<event>
 7    1  0.6857839E-013  0.5052886E+02  0.7816164E-02  0.1300439E+00
        -11   -1    0    0    0    0  0.00000000000E+00  0.00000000000E+00  0.45593999997E+02  0.45594000000E+02  0.51100000000E-03 0.  1.
         11   -1    0    0    0    0 -0.00000000000E+00 -0.00000000000E+00 -0.45593999997E+02  0.45594000000E+02  0.51100000000E-03 0. -1.
    9900012    2    1    2    0    0  0.38081659159E+02  0.12744697664E+02 -0.63659903953E+01  0.50528856913E+02  0.29999991072E+02 0.  0.
        -12    1    1    2    0    0 -0.38081659159E+02 -0.12744697664E+02  0.63659903953E+01  0.40659143087E+02  0.00000000000E+00 0.  1.
         11    1    3    3    0    0  0.28220615524E+02  0.30263587744E+01 -0.90968595801E+01  0.29804611094E+02  0.51100000000E-03 0. -1.
        -11    1    3    3    0    0  0.11151646362E+01 -0.15410185070E+01 -0.43924957825E+01  0.47866846214E+01  0.51100000000E-03 0.  1.
        -12    1    3    3    0    0  0.87458789987E+01  0.11259357397E+02  0.71233649673E+01  0.15937561197E+02  0.00000000000E+00 0.  1.
</event>
<event>
 7    1  0.6857839E-013  0.5052886E+02  0.7816164E-02  0.1300439E+00
        -11   -1    0    0    0    0  0.00000000000E+00  0.00000000000E+00  0.45593999997E+02  0.45594000000E+02  0.51100000000E-03 0. -1.
         11   -1    0    0    0    0 -0.00000000000E+00 -0.00000000000E+00 -0.45593999997E+02  0.45594000000E+02  0.51100000000E-03 0.  1.
    9900012    2    1    2    0    0  0.89153244119E+01  0.28075955755E+02  0.28025411072E+02  0.50528856296E+02  0.29999989198E+02 0.  0.
        -12    1    1    2    0    0 -0.89153244119E+01 -0.28075955755E+02 -0.28025411072E+02  0.40659143704E+02  0.00000000000E+00 0.  1.
         11    1    3    3    0    0 -0.60329850487E+01  0.18898317462E+02  0.10997977152E+02  0.22682566283E+02  0.51100000000E-03 0. -1.
        -11    1    3    3    0    0 -0.22631297963E+01  0.24379794859E+01  0.41510396200E+01  0.53194577389E+01  0.51100000000E-03 0.  1.
        -12    1    3    3    0    0  0.17211439257E+02  0.67396588073E+01  0.12876394301E+02  0.22526832274E+02  0.00000000000E+00 0.  1.
</event>
<event>
 7    1  0.6857839E-013  0.5052882E+02  0.7816164E-02  0.1300439E+00
        -11   -1    0    0    0    0  0.00000000000E+00  0.00000000000E+00  0.45593999997E+02  0.45594000000E+02  0.51100000000E-03 0.  1.
         11   -1    0    0    0    0 -0.00000000000E+00 -0.00000000000E+00 -0.45593999997E+02  0.45594000000E+02  0.51100000000E-03 0. -1.
    9900012    2    1    2    0    0  0.13958217360E+02  0.20078065719E+02 -0.32483974129E+02  0.50528817395E+02  0.29999870954E+02 0.  0.
        -12    1    1    2    0    0 -0.13958217360E+02 -0.20078065719E+02  0.32483974129E+02  0.40659182605E+02  0.00000000000E+00 0.  1.
         11    1    3    3    0    0  0.72884162150E+01  0.27820369364E+00 -0.18256963420E+02  0.19659987838E+02  0.51100000000E-03 0. -1.
        -11    1    3    3    0    0  0.10205106592E+02  0.16388864313E+02 -0.16555163163E+02  0.25432508757E+02  0.51100000000E-03 0.  1.
         12    1    3    3    0    0 -0.35353054473E+01  0.34109977120E+01  0.23281524538E+01  0.54363208004E+01  0.00000000000E+00 0. -1.
</event>
<event>
 7    1  0.6857839E-013  0.5052884E+02  0.7816164E-02  0.1300439E+00
        -11   -1    0    0    0    0  0.00000000000E+00  0.00000000000E+00  0.45593999997E+02  0.45594000000E+02  0.51100000000E-03 0.  1.
         11   -1    0    0    0    0 -0.00000000000E+00 -0.00000000000E+00 -0.45593999997E+02  0.45594000000E+02  0.51100000000E-03 0. -1.
    9900012    2    1    2    0    0 -0.38421783420E+02 -0.92646493833E+01 -0.95446564160E+01  0.50528835775E+02  0.29999926821E+02 0.  0.
        -12    1    1    2    0    0  0.38421783420E+02  0.92646493833E+01  0.95446564160E+01  0.40659164225E+02  0.00000000000E+00 0.  1.
         11    1    3    3    0    0 -0.23067726719E+02 -0.59513504602E+01 -0.11552448191E+02  0.26476360168E+02  0.51100000000E-03 0. -1.
        -11    1    3    3    0    0 -0.88954020955E+01 -0.81927866258E+01 -0.52469384519E+01  0.13182575413E+02  0.51100000000E-03 0.  1.
        -12    1    3    3    0    0 -0.64586546061E+01  0.48794877027E+01  0.72547302269E+01  0.10869900194E+02  0.00000000000E+00 0.  1.
</event>
<event>
 7    1  0.6857839E-013  0.5052886E+02  0.7816164E-02  0.1300439E+00
        -11   -1    0    0    0    0  0.00000000000E+00  0.00000000000E+00  0.45593999997E+02  0.45594000000E+02  0.51100000000E-03 0.  1.
         11   -1    0    0    0    0 -0.00000000000E+00 -0.00000000000E+00 -0.45593999997E+02  0.45594000000E+02  0.51100000000E-03 0. -1.
    9900012    2    1    2    0    0 -0.46714556709E+01  0.36473658604E+02 -0.17349791653E+02  0.50528861539E+02  0.30000005133E+02 0.  0.
        -12    1    1    2    0    0  0.46714556709E+01 -0.36473658604E+02  0.17349791653E+02  0.40659138461E+02  0.00000000000E+00 0.  1.
         11    1    3    3    0    0  0.18902178045E+00  0.19809452609E+01  0.55555525952E+01  0.59011895631E+01  0.51100000000E-03 0. -1.
        -11    1    3    3    0    0  0.26280949659E+01  0.75901804272E+00  0.64522107936E+00  0.28105697005E+01  0.51100000000E-03 0.  1.
         12    1    3    3    0    0 -0.74885724173E+01  0.33733695300E+02 -0.23550565328E+02  0.41817102275E+02  0.00000000000E+00 0. -1.
</event>
<event>
 7    1  0.6857839E-013  0.5052886E+02  0.7816164E-02  0.1300439E+00
        -11   -1    0    0    0    0  0.00000000000E+00  0.00000000000E+00  0.45593999997E+02  0.45594000000E+02  0.51100000000E-03 0.  1.
         11   -1    0    0    0    0 -0.00000000000E+00 -0.00000000000E+00 -0.45593999997E+02  0.45594000000E+02  0.51100000000E-03 0. -1.
    9900012    2    1    2    0    0  0.29247882008E+02  0.27580671585E+02 -0.60855445943E+01  0.50528857116E+02  0.29999991691E+02 0.  0.
        -12    1    1    2    0    0 -0.29247882008E+02 -0.27580671585E+02  0.60855445943E+01  0.40659142884E+02  0.00000000000E+00 0.  1.
         11    1    3    3    0    0  0.11299662052E+02  0.12786819177E+02  0.69974591484E+01  0.18443143494E+02  0.51100000000E-03 0. -1.
        -11    1    3    3    0    0  0.31560523471E+01  0.75873166595E+01  0.33100269086E+01  0.88591375938E+01  0.51100000000E-03 0.  1.
        -12    1    3    3    0    0  0.14792167609E+02  0.72065357485E+01 -0.16393030651E+02  0.23226576028E+02  0.00000000000E+00 0.  1.
</event>
<event>
 7    1  0.6857839E-013  0.5052887E+02  0.7816164E-02  0.1300439E+00
        -11   -1    0    0    0    0  0.00000000000E+00  0.00000000000E+00  0.45593999997E+02  0.45594000000E+02  0.51100000000E-03 0.  1.
         11   -1    0    0    0    0 -0.00000000000E+00 -0.00000000000E+00 -0.45593999997E+02  0.45594000000E+02  0.51100000000E-03 0. -1.
    9900012    2    1    2    0    0 -0.28213349542E+02 -0.21037952192E+01 -0.29201812911E+02  0.50528869119E+02  0.30000028173E+02 0.  0.
        -12    1    1    2    0    0  0.28213349542E+02  0.21037952192E+01  0.29201812911E+02  0.40659130881E+02  0.00000000000E+00 0.  1.
         11    1    3    3    0    0 -0.25589739774E+01  0.12809062737E+01 -0.78642025565E+01  0.83686767658E+01  0.51100000000E-03 0. -1.
        -11    1    3    3    0    0 -0.20367454833E+02  0.32771490176E+01 -0.25410693775E+02  0.32730357169E+02  0.51100000000E-03 0.  1.
        -12    1    3    3    0    0 -0.52869207319E+01 -0.66618505106E+01  0.40730834198E+01  0.94298351839E+01  0.00000000000E+00 0.  1.
</event>
<event>
 7    1  0.6857839E-013  0.5052886E+02  0.7816164E-02  0.1300439E+00
        -11   -1    0    0    0    0  0.00000000000E+00  0.00000000000E+00  0.45593999997E+02  0.45594000000E+02  0.51100000000E-03 0. -1.
         11   -1    0    0    0    0 -0.00000000000E+00 -0.00000000000E+00 -0.45593999997E+02  0.45594000000E+02  0.51100000000E-03 0.  1.
    9900012    2    1    2    0    0 -0.27878624957E+02 -0.29179376748E+02 -0.49509353931E+01  0.50528861812E+02  0.30000005965E+02 0.  0.
        -12    1    1    2    0    0  0.27878624957E+02  0.29179376748E+02  0.49509353931E+01  0.40659138188E+02  0.00000000000E+00 0.  1.
         11    1    3    3    0    0 -0.10474585784E+02 -0.69535091700E+01  0.99546999273E+01  0.16036342726E+02  0.51100000000E-03 0. -1.
        -11    1    3    3    0    0 -0.95948515131E+01 -0.25511709783E+01 -0.51581543977E+01  0.11188217283E+02  0.51100000000E-03 0.  1.
        -12    1    3    3    0    0 -0.78091876592E+01 -0.19674696600E+02 -0.97474809227E+01  0.23304301803E+02  0.00000000000E+00 0.  1.
</event>
<event>
 7    1  0.6857839E-013  0.5052886E+02  0.7816164E-02  0.1300439E+00
        -11   -1    0    0    0    0  0.00000000000E+00  0.00000000000E+00  0.45593999997E+02  0.45594000000E+02  0.51100000000E-03 0. -1.
         11   -1    0    0    0    0 -0.00000000000E+00 -0.00000000000E+00 -0.45593999997E+02  0.45594000000E+02  0.51100000000E-03 0.  1.
    9900012    2    1    2    0    0 -0.15118767711E+02 -0.10649869047E+01  0.37728693071E+02  0.50528860621E+02  0.30000002342E+02 0.  0.
        -12    1    1    2    0    0  0.15118767711E+02  0.10649869047E+01 -0.37728693071E+02  0.40659139379E+02  0.00000000000E+00 0.  1.
         11    1    3    3    0    0 -0.49906289581E+01  0.11671987685E+02  0.96930799627E+01  0.15971771140E+02  0.51100000000E-03 0. -1.
        -11    1    3    3    0    0  0.62648541377E+00  0.57217334567E+00 -0.70848265989E+00  0.11053570698E+01  0.51100000000E-03 0.  1.
        -12    1    3    3    0    0 -0.10754624167E+02 -0.13309147936E+02  0.28744095769E+02  0.33451732411E+02  0.00000000000E+00 0.  1.
</event>
<event>
 7    1  0.6857839E-013  0.5052884E+02  0.7816164E-02  0.1300439E+00
        -11   -1    0    0    0    0  0.00000000000E+00  0.00000000000E+00  0.45593999997E+02  0.45594000000E+02  0.51100000000E-03 0.  1.
         11   -1    0    0    0    0 -0.00000000000E+00 -0.00000000000E+00 -0.45593999997E+02  0.45594000000E+02  0.51100000000E-03 0. -1.
    9900012    2    1    2    0    0  0.22692825766E+02 -0.26343259543E+02 -0.21076894825E+02  0.50528841621E+02  0.29999944592E+02 0.  0.
        -12    1    1    2    0    0 -0.22692825766E+02  0.26343259543E+02  0.21076894825E+02  0.40659158379E+02  0.00000000000E+00 0.  1.
         11    1    3    3    0    0  0.10980304190E+02 -0.16634394658E+00 -0.53163173177E+01  0.12200736883E+02  0.51100000000E-03 0. -1.
        -11    1    3    3    0    0  0.51973922406E+01  0.22643080525E+01 -0.36122058662E+01  0.67222026554E+01  0.51100000000E-03 0.  1.
         12    1    3    3    0    0  0.65151293352E+01 -0.28441223649E+02 -0.12148371641E+02  0.31605902083E+02  0.00000000000E+00 0. -1.
</event>
<event>
 7    1  0.6857839E-013  0.5052888E+02  0.7816164E-02  0.1300439E+00
        -11   -1    0    0    0    0  0.00000000000E+00  0.00000000000E+00  0.45593999997E+02  0.45594000000E+02  0.51100000000E-03 0. -1.
         11   -1    0    0    0    0 -0.00000000000E+00 -0.00000000000E+00 -0.45593999997E+02  0.45594000000E+02  0.51100000000E-03 0.  1.
    9900012    2    1    2    0    0 -0.20837765435E+02 -0.24975896219E+02  0.24395830879E+02  0.50528875261E+02  0.30000046844E+02 0.  0.
        -12    1    1    2    0    0  0.20837765435E+02  0.24975896219E+02 -0.24395830879E+02  0.40659124739E+02  0.00000000000E+00 0.  1.
         11    1    3    3    0    0 -0.16318891769E+02 -0.47302860392E+01  0.10156113100E+02  0.19794657566E+02  0.51100000000E-03 0. -1.
        -11    1    3    3    0    0 -0.27176466553E+01 -0.24802287148E+00  0.97970829022E+01  0.10170051737E+02  0.51100000000E-03 0.  1.
         12    1    3    3    0    0 -0.18012270104E+01 -0.19997587309E+02  0.44426348763E+01  0.20564165958E+02  0.00000000000E+00 0. -1.
</event>
<event>
 7    1  0.6857839E-013  0.5052886E+02  0.7816164E-02  0.1300439E+00
        -11   -1    0    0    0    0  0.00000000000E+00  0.00000000000E+00  0.45593999997E+02  0.45594000000E+02  0.51100000000E-03 0.  1.
         11   -1    0    0    0    0 -0.00000000000E+00 -0.00000000000E+00 -0.45593999997E+02  0.45594000000E+02  0.51100000000E-03 0. -1.
    9900012    2    1    2    0    0  0.22964566770E+02 -0.16510032644E+01 -0.33512218417E+02  0.50528856847E+02  0.29999990872E+02 0.  0.
        -12    1    1    2    0    0 -0.22964566770E+02  0.16510032644E+01  0.33512218417E+02  0.40659143153E+02  0.00000000000E+00 0.  1.
         11    1    3    3    0    0  0.70218902229E+01  0.12580652837E+01  0.39673594415E+00  0.71447232439E+01  0.51100000000E-03 0. -1.
        -11    1    3    3    0    0 -0.47315254493E+01 -0.38895227596E+01 -0.54777686352E+01  0.82171570422E+01  0.51100000000E-03 0.  1.
         12    1    3    3    0    0  0.20674201996E+02  0.98045421143E+00 -0.28431185726E+02  0.35166976561E+02  0.00000000000E+00 0. -1.
</event>
<event>
 7    1  0.6857839E-013  0.5052885E+02  0.7816164E-02  0.1300439E+00
        -11   -1    0    0    0    0  0.00000000000E+00  0.00000000000E+00  0.45593999997E+02  0.45594000000E+02  0.51100000000E-03 0.  1.
         11   -1    0    0    0    0 -0.00000000000E+00 -0.00000000000E+00 -0.45593999997E+02  0.45594000000E+02  0.51100000000E-03 0. -1.
    9900012    2    1    2    0    0 -0.95071223284E+01  0.35443098736E+01 -0.39372818508E+02  0.50528851648E+02  0.29999975070E+02 0.  0.
        -12    1    1    2    0    0  0.95071223284E+01 -0.35443098736E+01  0.39372818508E+02  0.40659148352E+02  0.00000000000E+00 0.  1.
         11    1    3    3    0    0  0.29179193999E+01  0.49190384380E+01 -0.95030744671E+01  0.11091420890E+02  0.51100000000E-03 0. -1.
        -11    1    3    3    0    0  0.46163592685E+01 -0.63933485315E+01 -0.76233801036E+01  0.10968208733E+02  0.51100000000E-03 0.  1.
         12    1    3    3    0    0 -0.17041400997E+02  0.50186199671E+01 -0.22246363937E+02  0.28469222025E+02  0.00000000000E+00 0. -1.
</event>
<event>
 7    1  0.6857839E-013  0.5052886E+02  0.7816164E-02  0.1300439E+00
        -11   -1    0    0    0    0  0.00000000000E+00  0.00000000000E+00  0.45593999997E+02  0.45594000000E+02  0.51100000000E-03 0.  1.
         11   -1    0    0    0    0 -0.00000000000E+00 -0.00000000000E+00 -0.45593999997E+02  0.45594000000E+02  0.51100000000E-03 0. -1.
    9900012    2    1    2    0    0 -0.19613093008E+02  0.84481881701E+01 -0.34599430392E+02  0.50528857312E+02  0.29999992284E+02 0.  0.
        -12    1    1    2    0    0  0.19613093008E+02 -0.84481881701E+01  0.34599430392E+02  0.40659142688E+02  0.00000000000E+00 0.  1.
         11    1    3    3    0    0 -0.73128323081E+00 -0.12229679567E+01  0.24501041814E+01  0.28343317638E+01  0.51100000000E-03 0. -1.
        -11    1    3    3    0    0 -0.17235970885E+02 -0.13452871604E+00 -0.12750574901E+02  0.21440008183E+02  0.51100000000E-03 0.  1.
         12    1    3    3    0    0 -0.16458388923E+01  0.98056848429E+01 -0.24298959672E+02  0.26254517365E+02  0.00000000000E+00 0. -1.
</event>
<event>
 7    1  0.6857839E-013  0.5052887E+02  0.7816164E-02  0.1300439E+00
        -11   -1    0    0    0    0  0.00000000000E+00  0.00000000000E+00  0.45593999997E+02  0.45594000000E+02  0.51100000000E-03 0.  1.
         11   -1    0    0    0    0 -0.00000000000E+00 -0.00000000000E+00 -0.45593999997E+02  0.45594000000E+02  0.51100000000E-03 0. -1.
    9900012    2    1    2    0    0  0.32447329385E+02 -0.14574802307E+01 -0.24458361743E+02  0.50528869512E+02  0.30000029370E+02 0.  0.
        -12    1    1    2    0    0 -0.32447329385E+02  0.14574802307E+01  0.24458361743E+02  0.40659130488E+02  0.00000000000E+00 0.  1.
         11    1    3    3    0    0  0.64524334880E+01 -0.20043763973E+01 -0.15888088926E+02  0.17265074360E+02  0.51100000000E-03 0. -1.
        -11    1    3    3    0    0  0.91762036301E+01 -0.84237729018E+01 -0.66104434980E+01  0.14101795150E+02  0.51100000000E-03 0.  1.
         12    1    3    3    0    0  0.16818692267E+02  0.89706690685E+01 -0.19598293186E+01  0.19162000002E+02  0.00000000000E+00 0. -1.
</event>
<event>
 7    1  0.6857839E-013  0.5052886E+02  0.7816164E-02  0.1300439E+00
        -11   -1    0    0    0    0  0.00000000000E+00  0.00000000000E+00  0.45593999997E+02  0.45594000000E+02  0.51100000000E-03 0.  1.
         11   -1    0    0    0    0 -0.00000000000E+00 -0.00000000000E+00 -0.45593999997E+02  0.45594000000E+02  0.51100000000E-03 0. -1.
    9900012    2    1    2    0    0  0.39377274797E+02  0.92060768087E+01 -0.42241987561E+01  0.50528862334E+02  0.30000007550E+02 0.  0.
        -12    1    1    2    0    0 -0.39377274797E+02 -0.92060768087E+01  0.42241987561E+01  0.40659137666E+02  0.00000000000E+00 0.  1.
         11    1    3    3    0    0  0.94516683802E+01 -0.54019859643E+01  0.51283806693E+01  0.12033942666E+02  0.51100000000E-03 0. -1.
        -11    1    3    3    0    0  0.40891057843E+01  0.66399624410E+01  0.35127946892E+01  0.85527547681E+01  0.51100000000E-03 0.  1.
         12    1    3    3    0    0  0.25836500632E+02  0.79681003319E+01 -0.12865374115E+02  0.29942164900E+02  0.00000000000E+00 0. -1.
</event>
<event>
 7    1  0.6857839E-013  0.5052884E+02  0.7816164E-02  0.1300439E+00
        -11   -1    0    0    0    0  0.00000000000E+00  0.00000000000E+00  0.45593999997E+02  0.45594000000E+02  0.51100000000E-03 0. -1.
         11   -1    0    0    0    0 -0.00000000000E+00 -0.00000000000E+00 -0.45593999997E+02  0.45594000000E+02  0.51100000000E-03 0.  1.
    9900012    2    1    2    0    0 -0.41007053269E+01  0.66062394537E+01  0.39908755525E+02  0.50528844186E+02  0.29999952388E+02 0.  0.
        -12    1    1    2    0    0  0.41007053269E+01 -0.66062394537E+01 -0.39908755525E+02  0.40659155814E+02  0.00000000000E+00 0.  1.
         11    1    3    3    0    0 -0.37327670187E+01 -0.19613807953E+01  0.43670894167E+00  0.42392545572E+01  0.51100000000E-03 0. -1.
        -11    1    3    3    0    0  0.19793350438E+01  0.10613883937E+02  0.53934836463E+01  0.12069049903E+02  0.51100000000E-03 0.  1.
         12    1    3    3    0    0 -0.23472733520E+01 -0.20462636883E+01  0.34078562937E+02  0.34220539726E+02  0.00000000000E+00 0. -1.
</event>
<event>
 7    1  0.6857839E-013  0.5052886E+02  0.7816164E-02  0.1300439E+00
        -11   -1    0    0    0    0  0.00000000000E+00  0.00000000000E+00  0.45593999997E+02  0.45594000000E+02  0.51100000000E-03 0.  1.
         11   -1    0    0    0    0 -0.00000000000E+00 -0.00000000000E+00 -0.45593999997E+02  0.45594000000E+02  0.51100000000E-03 0. -1.
    9900012    2    1    2    0    0 -0.12874328928E+01  0.40638247742E+02  0.20181240877E+00  0.50528863373E+02  0.30000010709E+02 0.  0.
        -12    1    1    2    0    0  0.12874328928E+01 -0.40638247742E+02 -0.20181240877E+00  0.40659136627E+02  0.00000000000E+00 0.  1.
         11    1    3    3    0    0 -0.73937698451E+01  0.26412712591E+02  0.16514347781E+01  0.27477744740E+02  0.51100000000E-03 0. -1.
        -11    1    3    3    0    0  0.68913893434E+01  0.17408858730E+02 -0.36856299614E+01  0.19082543799E+02  0.51100000000E-03 0.  1.
        -12    1    3    3    0    0 -0.78505239114E+00 -0.31833235786E+01  0.22360075920E+01  0.39685748342E+01  0.00000000000E+00 0.  1.
</event>
<event>
 7    1  0.6857839E-013  0.5052888E+02  0.7816164E-02  0.1300439E+00
        -11   -1    0    0    0    0  0.00000000000E+00  0.00000000000E+00  0.45593999997E+02  0.45594000000E+02  0.51100000000E-03 0.  1.
         11   -1    0    0    0    0 -0.00000000000E+00 -0.00000000000E+00 -0.45593999997E+02  0.45594000000E+02  0.51100000000E-03 0. -1.
    9900012    2    1    2    0    0 -0.13752866037E+02 -0.37168488552E+02 -0.90843924998E+01  0.50528879835E+02  0.30000060747E+02 0.  0.
        -12    1    1    2    0    0  0.13752866037E+02  0.37168488552E+02  0.90843924998E+01  0.40659120165E+02  0.00000000000E+00 0.  1.
         11    1    3    3    0    0  0.59047047232E+01 -0.21186243863E+02 -0.78955785648E+01  0.23367982969E+02  0.51100000000E-03 0. -1.
        -11    1    3    3    0    0 -0.75711871077E+01 -0.47205873171E+01 -0.49710118357E+01  0.10213607481E+02  0.51100000000E-03 0.  1.
        -12    1    3    3    0    0 -0.12086383652E+02 -0.11261657372E+02  0.37821979007E+01  0.16947289385E+02  0.00000000000E+00 0.  1.
</event>
<event>
 7    1  0.6857839E-013  0.5052885E+02  0.7816164E-02  0.1300439E+00
        -11   -1    0    0    0    0  0.00000000000E+00  0.00000000000E+00  0.45593999997E+02  0.45594000000E+02  0.51100000000E-03 0. -1.
         11   -1    0    0    0    0 -0.00000000000E+00 -0.00000000000E+00 -0.45593999997E+02  0.45594000000E+02  0.51100000000E-03 0.  1.
    9900012    2    1    2    0    0 -0.78047789302E+01  0.30916675954E+02 -0.25227182146E+02  0.50528854101E+02  0.29999982526E+02 0.  0.
        -12    1    1    2    0    0  0.78047789302E+01 -0.30916675954E+02  0.25227182146E+02  0.40659145899E+02  0.00000000000E+00 0.  1.
         11    1    3    3    0    0 -0.26759423376E+01  0.29244807580E+01  0.34512458218E+01  0.52558874686E+01  0.51100000000E-03 0. -1.
        -11    1    3    3    0    0  0.36644118839E+01 -0.53802860730E+00 -0.84067883518E+01  0.91864835432E+01  0.51100000000E-03 0.  1.
        -12    1    3    3    0    0 -0.87932484765E+01  0.28530223803E+02 -0.20271639616E+02  0.36086483089E+02  0.00000000000E+00 0.  1.
</event>
<event>
 7    1  0.6857839E-013  0.5052886E+02  0.7816164E-02  0.1300439E+00
        -11   -1    0    0    0    0  0.00000000000E+00  0.00000000000E+00  0.45593999997E+02  0.45594000000E+02  0.51100000000E-03 0.  1.
         11   -1    0    0    0    0 -0.00000000000E+00 -0.00000000000E+00 -0.45593999997E+02  0.45594000000E+02  0.51100000000E-03 0. -1.
    9900012    2    1    2    0    0  0.27480088523E+02 -0.12382612317E+02 -0.27288850170E+02  0.50528859618E+02  0.29999999295E+02 0.  0.
        -12    1    1    2    0    0 -0.27480088523E+02  0.12382612317E+02  0.27288850170E+02  0.40659140382E+02  0.00000000000E+00 0.  1.
         11    1    3    3    0    0  0.21498174500E+01  0.26028140580E+01  0.14889122298E+01  0.36896091904E+01  0.51100000000E-03 0. -1.
        -11    1    3    3    0    0  0.12091800198E+02 -0.10624700495E+02 -0.14492564065E+01  0.16161566664E+02  0.51100000000E-03 0.  1.
         12    1    3    3    0    0  0.13238470875E+02 -0.43607258794E+01 -0.27328505993E+02  0.30677683764E+02  0.00000000000E+00 0. -1.
</event>
<event>
 7    1  0.6857839E-013  0.5052886E+02  0.7816164E-02  0.1300439E+00
        -11   -1    0    0    0    0  0.00000000000E+00  0.00000000000E+00  0.45593999997E+02  0.45594000000E+02  0.51100000000E-03 0.  1.
         11   -1    0    0    0    0 -0.00000000000E+00 -0.00000000000E+00 -0.45593999997E+02  0.45594000000E+02  0.51100000000E-03 0. -1.
    9900012    2    1    2    0    0 -0.34750919731E+01 -0.14586808418E+02 -0.37793052460E+02  0.50528855170E+02  0.29999985775E+02 0.  0.
        -12    1    1    2    0    0  0.34750919731E+01  0.14586808418E+02  0.37793052460E+02  0.40659144830E+02  0.00000000000E+00 0.  1.
         11    1    3    3    0    0  0.77331576536E+01  0.21436576521E+01 -0.12716945345E+02  0.15037210333E+02  0.51100000000E-03 0. -1.
        -11    1    3    3    0    0 -0.62761944051E+01 -0.20302637173E+01 -0.74288912829E+00  0.66381075232E+01  0.51100000000E-03 0.  1.
         12    1    3    3    0    0 -0.49320552216E+01 -0.14700202353E+02 -0.24333217986E+02  0.28853537314E+02  0.00000000000E+00 0. -1.
</event>
<event>
 7    1  0.6857839E-013  0.5052886E+02  0.7816164E-02  0.1300439E+00
        -11   -1    0    0    0    0  0.00000000000E+00  0.00000000000E+00  0.45593999997E+02  0.45594000000E+02  0.51100000000E-03 0. -1.
         11   -1    0    0    0    0 -0.00000000000E+00 -0.00000000000E+00 -0.45593999997E+02  0.45594000000E+02  0.51100000000E-03 0.  1.
    9900012    2    1    2    0    0  0.12681926951E+02 -0.33893734327E+02 -0.18535070532E+02  0.50528864035E+02  0.30000012719E+02 0.  0.
        -12    1    1    2    0    0 -0.12681926951E+02  0.33893734327E+02  0.18535070532E+02  0.40659135965E+02  0.00000000000E+00 0.  1.
         11    1    3    3    0    0  0.63412243644E+01 -0.88797201351E+01 -0.11699103077E+02  0.15997798885E+02  0.51100000000E-03 0. -1.
        -11    1    3    3    0    0 -0.23379765642E+01 -0.11487272604E+02 -0.12829193672E+02  0.17378486034E+02  0.51100000000E-03 0.  1.
         12    1    3    3    0    0  0.86786791512E+01 -0.13526741588E+02  0.59932262175E+01  0.17152579115E+02  0.00000000000E+00 0. -1.
</event>
<event>
 7    1  0.6857839E-013  0.5052876E+02  0.7816164E-02  0.1300439E+00
        -11   -1    0    0    0    0  0.00000000000E+00  0.00000000000E+00  0.45593999997E+02  0.45594000000E+02  0.51100000000E-03 0.  1.
         11   -1    0    0    0    0 -0.00000000000E+00 -0.00000000000E+00 -0.45593999997E+02  0.45594000000E+02  0.51100000000E-03 0. -1.
    9900012    2    1    2    0    0 -0.55188153317E+01  0.46650743877E+01 -0.40011913730E+02  0.50528763877E+02  0.29999708280E+02 0.  0.
        -12    1    1    2    0    0  0.55188153317E+01 -0.46650743877E+01  0.40011913730E+02  0.40659236123E+02  0.00000000000E+00 0.  1.
         11    1    3    3    0    0  0.24775071983E+01 -0.16146040892E+00 -0.17558921418E+02  0.17733579250E+02  0.51100000000E-03 0. -1.
        -11    1    3    3    0    0 -0.10025188388E+02  0.50407168989E+01 -0.26214998080E+02  0.28515598428E+02  0.51100000000E-03 0.  1.
        -12    1    3    3    0    0  0.20288658584E+01 -0.21418210230E+00  0.37620057678E+01  0.42795861998E+01  0.00000000000E+00 0.  1.
</event>
<event>
 7    1  0.6857839E-013  0.5052886E+02  0.7816164E-02  0.1300439E+00
        -11   -1    0    0    0    0  0.00000000000E+00  0.00000000000E+00  0.45593999997E+02  0.45594000000E+02  0.51100000000E-03 0.  1.
         11   -1    0    0    0    0 -0.00000000000E+00 -0.00000000000E+00 -0.45593999997E+02  0.45594000000E+02  0.51100000000E-03 0. -1.
    9900012    2    1    2    0    0 -0.82832411338E+00  0.30316308930E+02 -0.27081382842E+02  0.50528855830E+02  0.29999987782E+02 0.  0.
        -12    1    1    2    0    0  0.82832411338E+00 -0.30316308930E+02  0.27081382842E+02  0.40659144170E+02  0.00000000000E+00 0.  1.
         11    1    3    3    0    0 -0.23525192468E+01  0.17962613174E+02 -0.46079699560E+01  0.18692865116E+02  0.51100000000E-03 0. -1.
        -11    1    3    3    0    0 -0.81282352092E+01  0.59495937752E+01 -0.60891748889E+01  0.11770468334E+02  0.51100000000E-03 0.  1.
         12    1    3    3    0    0  0.96524303426E+01  0.64041019808E+01 -0.16384237997E+02  0.20065522381E+02  0.00000000000E+00 0. -1.
</event>
<event>
 7    1  0.6857839E-013  0.5052886E+02  0.7816164E-02  0.1300439E+00
        -11   -1    0    0    0    0  0.00000000000E+00  0.00000000000E+00  0.45593999997E+02  0.45594000000E+02  0.51100000000E-03 0. -1.
         11   -1    0    0    0    0 -0.00000000000E+00 -0.00000000000E+00 -0.45593999997E+02  0.45594000000E+02  0.51100000000E-03 0.  1.
    9900012    2    1    2    0    0 -0.22699164770E+02 -0.14057607522E+02  0.30664269830E+02  0.50528857674E+02  0.29999993386E+02 0.  0.
        -12    1    1    2    0    0  0.22699164770E+02  0.14057607522E+02 -0.30664269830E+02  0.40659142326E+02  0.00000000000E+00 0.  1.
         11    1    3    3    0    0 -0.42567266586E+01  0.38222839717E+01  0.16057476727E+02  0.17046176572E+02  0.51100000000E-03 0. -1.
        -11    1    3    3    0    0  0.17692318868E+01 -0.27287866990E+01  0.59494567623E+01  0.67803019361E+01  0.51100000000E-03 0.  1.
        -12    1    3    3    0    0 -0.20211669998E+02 -0.15151104795E+02  0.86573363401E+01  0.26702379166E+02  0.00000000000E+00 0.  1.
</event>
<event>
 7    1  0.6857839E-013  0.5052886E+02  0.7816164E-02  0.1300439E+00
        -11   -1    0    0    0    0  0.00000000000E+00  0.00000000000E+00  0.45593999997E+02  0.45594000000E+02  0.51100000000E-03 0. -1.
         11   -1    0    0    0    0 -0.00000000000E+00 -0.00000000000E+00 -0.45593999997E+02  0.45594000000E+02  0.51100000000E-03 0.  1.
    9900012    2    1    2    0    0 -0.23581029154E+02  0.19170350153E+02  0.27011079400E+02  0.50528859929E+02  0.30000000241E+02 0.  0.
        -12    1    1    2    0    0  0.23581029154E+02 -0.19170350153E+02 -0.27011079400E+02  0.40659140071E+02  0.00000000000E+00 0.  1.
         11    1    3    3    0    0  0.30458745649E+01  0.25614640017E+01  0.17738952039E+01  0.43571956753E+01  0.51100000000E-03 0. -1.
        -11    1    3    3    0    0 -0.98119686542E+01  0.39044249057E+00 -0.22738905727E+01  0.10079571063E+02  0.51100000000E-03 0.  1.
         12    1    3    3    0    0 -0.16814935065E+02  0.16218443661E+02  0.27511074768E+02  0.36092093191E+02  0.00000000000E+00 0. -1.
</event>
<event>
 7    1  0.6857839E-013  0.5052886E+02  0.7816164E-02  0.1300439E+00
        -11   -1    0    0    0    0  0.00000000000E+00  0.00000000000E+00  0.45593999997E+02  0.45594000000E+02  0.51100000000E-03 0.  1.
         11   -1    0    0    0    0 -0.00000000000E+00 -0.00000000000E+00 -0.45593999997E+02  0.45594000000E+02  0.51100000000E-03 0. -1.
    9900012    2    1    2    0    0  0.28379838824E+02 -0.22012861325E+02 -0.19057401346E+02  0.50528857591E+02  0.29999993132E+02 0.  0.
        -12    1    1    2    0    0 -0.28379838824E+02  0.22012861325E+02  0.19057401346E+02  0.40659142409E+02  0.00000000000E+00 0.  1.
         11    1    3    3    0    0  0.18589452911E+02 -0.23699780638E+02 -0.18078422769E+02  0.35129428289E+02  0.51100000000E-03 0. -1.
        -11    1    3    3    0    0  0.17237987370E+01 -0.45517832291E+00 -0.55877733253E+01  0.58653116189E+01  0.51100000000E-03 0.  1.
        -12    1    3    3    0    0  0.80665871761E+01  0.21420976364E+01  0.46087947481E+01  0.95341176825E+01  0.00000000000E+00 0.  1.
</event>
<event>
 7    1  0.6857839E-013  0.5052885E+02  0.7816164E-02  0.1300439E+00
        -11   -1    0    0    0    0  0.00000000000E+00  0.00000000000E+00  0.45593999997E+02  0.45594000000E+02  0.51100000000E-03 0.  1.
         11   -1    0    0    0    0 -0.00000000000E+00 -0.00000000000E+00 -0.45593999997E+02  0.45594000000E+02  0.51100000000E-03 0. -1.
    9900012    2    1    2    0    0  0.15485852805E+02 -0.24177710595E+02 -0.28788761022E+02  0.50528854806E+02  0.29999984668E+02 0.  0.
        -12    1    1    2    0    0 -0.15485852805E+02  0.24177710595E+02  0.28788761022E+02  0.40659145194E+02  0.00000000000E+00 0.  1.
         11    1    3    3    0    0 -0.16966944907E+01 -0.17510947723E+02 -0.12198966796E+02  0.21408569628E+02  0.51100000000E-03 0. -1.
        -11    1    3    3    0    0  0.73313774963E+01 -0.55747342225E+01 -0.16852780251E+02  0.19205284692E+02  0.51100000000E-03 0.  1.
        -12    1    3    3    0    0  0.98511697998E+01 -0.10920286495E+01  0.26298602489E+00  0.99150004863E+01  0.00000000000E+00 0.  1.
</event>
<event>
 7    1  0.6857839E-013  0.5052886E+02  0.7816164E-02  0.1300439E+00
        -11   -1    0    0    0    0  0.00000000000E+00  0.00000000000E+00  0.45593999997E+02  0.45594000000E+02  0.51100000000E-03 0. -1.
         11   -1    0    0    0    0 -0.00000000000E+00 -0.00000000000E+00 -0.45593999997E+02  0.45594000000E+02  0.51100000000E-03 0.  1.
    9900012    2    1    2    0    0  0.26632905516E+02  0.20913494133E+02  0.22505106964E+02  0.50528859176E+02  0.29999997951E+02 0.  0.
        -12    1    1    2    0    0 -0.26632905516E+02 -0.20913494133E+02 -0.22505106964E+02  0.40659140824E+02  0.00000000000E+00 0.  1.
         11    1    3    3    0    0  0.24613517162E+02  0.19919092148E+02  0.19131284474E+02  0.36994614540E+02  0.51100000000E-03 0. -1.
        -11    1    3    3    0    0  0.18005447362E+01  0.21341986214E+01  0.81520929631E+01  0.86170403877E+01  0.51100000000E-03 0.  1.
         12    1    3    3    0    0  0.21884361838E+00 -0.11397966364E+01 -0.47782704734E+01  0.49172042482E+01  0.00000000000E+00 0. -1.
</event>
<event>
 7    1  0.6857839E-013  0.5052885E+02  0.7816164E-02  0.1300439E+00
        -11   -1    0    0    0    0  0.00000000000E+00  0.00000000000E+00  0.45593999997E+02  0.45594000000E+02  0.51100000000E-03 0. -1.
         11   -1    0    0    0    0 -0.00000000000E+00 -0.00000000000E+00 -0.45593999997E+02  0.45594000000E+02  0.51100000000E-03 0.  1.
    9900012    2    1    2    0    0 -0.20891880796E+02 -0.16964864651E+01  0.34839884819E+02  0.50528851906E+02  0.29999975853E+02 0.  0.
        -12    1    1    2    0    0  0.20891880796E+02  0.16964864651E+01 -0.34839884819E+02  0.40659148094E+02  0.00000000000E+00 0.  1.
         11    1    3    3    0    0 -0.98701600398E+01 -0.64962632365E+01  0.24188915970E+02  0.26920719740E+02  0.51100000000E-03 0. -1.
        -11    1    3    3    0    0 -0.69583291623E+01  0.24078361898E+01  0.15304317631E+02  0.16983467204E+02  0.51100000000E-03 0.  1.
        -12    1    3    3    0    0 -0.40633915936E+01  0.23919405817E+01 -0.46533487812E+01  0.66246649627E+01  0.00000000000E+00 0.  1.
</event>
<event>
 7    1  0.6857839E-013  0.5052886E+02  0.7816164E-02  0.1300439E+00
        -11   -1    0    0    0    0  0.00000000000E+00  0.00000000000E+00  0.45593999997E+02  0.45594000000E+02  0.51100000000E-03 0.  1.
         11   -1    0    0    0    0 -0.00000000000E+00 -0.00000000000E+00 -0.45593999997E+02  0.45594000000E+02  0.51100000000E-03 0. -1.
    9900012    2    1    2    0    0 -0.16062023547E+02  0.30695206822E+02 -0.21283358091E+02  0.50528860144E+02  0.30000000893E+02 0.  0.
        -12    1    1    2    0    0  0.16062023547E+02 -0.30695206822E+02  0.21283358091E+02  0.40659139856E+02  0.00000000000E+00 0.  1.
         11    1    3    3    0    0  0.75593866297E+01  0.78278271596E+01 -0.39615233318E+01  0.11580711188E+02  0.51100000000E-03 0. -1.
        -11    1    3    3    0    0 -0.22919655319E+01  0.15480220314E+01 -0.62290331427E+01  0.68154480676E+01  0.51100000000E-03 0.  1.
         12    1    3    3    0    0 -0.21329444645E+02  0.21319357631E+02 -0.11092801616E+02  0.32132700888E+02  0.00000000000E+00 0. -1.
</event>
<event>
 7    1  0.6857839E-013  0.5052886E+02  0.7816164E-02  0.1300439E+00
        -11   -1    0    0    0    0  0.00000000000E+00  0.00000000000E+00  0.45593999997E+02  0.45594000000E+02  0.51100000000E-03 0. -1.
         11   -1    0    0    0    0 -0.00000000000E+00 -0.00000000000E+00 -0.45593999997E+02  0.45594000000E+02  0.51100000000E-03 0.  1.
    9900012    2    1    2    0    0 -0.20088417468E+02 -0.33881669035E+02 -0.10082362575E+02  0.50528855296E+02  0.29999986157E+02 0.  0.
        -12    1    1    2    0    0  0.20088417468E+02  0.33881669035E+02  0.10082362575E+02  0.40659144704E+02  0.00000000000E+00 0.  1.
         11    1    3    3    0    0 -0.63124356025E+01 -0.17549264058E+02 -0.14129093319E+02  0.23397751825E+02  0.51100000000E-03 0.  1.
        -11    1    3    3    0    0  0.32113858766E+01 -0.62069790406E+01  0.24465193700E+00  0.69928136605E+01  0.51100000000E-03 0. -1.
        -12    1    3    3    0    0 -0.16987367742E+02 -0.10125425937E+02  0.38020788066E+01  0.20138289810E+02  0.00000000000E+00 0.  1.
</event>
<event>
 7    1  0.6857839E-013  0.5052888E+02  0.7816164E-02  0.1300439E+00
        -11   -1    0    0    0    0  0.00000000000E+00  0.00000000000E+00  0.45593999997E+02  0.45594000000E+02  0.51100000000E-03 0. -1.
         11   -1    0    0    0    0 -0.00000000000E+00 -0.00000000000E+00 -0.45593999997E+02  0.45594000000E+02  0.51100000000E-03 0.  1.
    9900012    2    1    2    0    0 -0.24389763779E+02  0.25765078559E+02 -0.19861130070E+02  0.50528876325E+02  0.30000050077E+02 0.  0.
        -12    1    1    2    0    0  0.24389763779E+02 -0.25765078559E+02  0.19861130070E+02  0.40659123675E+02  0.00000000000E+00 0.  1.
         11    1    3    3    0    0 -0.22335349454E+02  0.16919263310E+02 -0.70834195337E+01  0.28901628652E+02  0.51100000000E-03 0. -1.
        -11    1    3    3    0    0 -0.51350779846E+01  0.11876060594E+02 -0.81293344180E+01  0.15280573271E+02  0.51100000000E-03 0.  1.
        -12    1    3    3    0    0  0.30806636594E+01 -0.30302453448E+01 -0.46483761182E+01  0.63466744022E+01  0.00000000000E+00 0.  1.
</event>
<event>
 7    1  0.6857839E-013  0.5052887E+02  0.7816164E-02  0.1300439E+00
        -11   -1    0    0    0    0  0.00000000000E+00  0.00000000000E+00  0.45593999997E+02  0.45594000000E+02  0.51100000000E-03 0. -1.
         11   -1    0    0    0    0 -0.00000000000E+00 -0.00000000000E+00 -0.45593999997E+02  0.45594000000E+02  0.51100000000E-03 0.  1.
    9900012    2    1    2    0    0  0.10393073636E+02 -0.34740302578E+02  0.18391860619E+02  0.50528866465E+02  0.30000020107E+02 0.  0.
        -12    1    1    2    0    0 -0.10393073636E+02  0.34740302578E+02 -0.18391860619E+02  0.40659133535E+02  0.00000000000E+00 0.  1.
         11    1    3    3    0    0  0.26770369003E+01 -0.21484295351E+02  0.65100299416E+01  0.22608006621E+02  0.51100000000E-03 0. -1.
        -11    1    3    3    0    0  0.11616162780E+02 -0.13228256096E+02  0.25263563713E+01  0.17784950769E+02  0.51100000000E-03 0.  1.
         12    1    3    3    0    0 -0.39001260443E+01 -0.27751131338E-01  0.93554743062E+01  0.10135909075E+02  0.00000000000E+00 0. -1.
</event>
<event>
 7    1  0.6857839E-013  0.5052886E+02  0.7816164E-02  0.1300439E+00
        -11   -1    0    0    0    0  0.00000000000E+00  0.00000000000E+00  0.45593999997E+02  0.45594000000E+02  0.51100000000E-03 0.  1.
         11   -1    0    0    0    0 -0.00000000000E+00 -0.00000000000E+00 -0.45593999997E+02  0.45594000000E+02  0.51100000000E-03 0. -1.
    9900012    2    1    2    0    0  0.34694468464E+02  0.16554199809E+02 -0.13244558369E+02  0.50528855891E+02  0.29999987967E+02 0.  0.
        -12    1    1    2    0    0 -0.34694468464E+02 -0.16554199809E+02  0.13244558369E+02  0.40659144109E+02  0.00000000000E+00 0.  1.
         11    1    3    3    0    0  0.35876022600E+02  0.62728661052E+01 -0.12450358687E+02  0.38489599614E+02  0.51100000000E-03 0. -1.
        -11    1    3    3    0    0  0.14898287513E+00  0.55439581180E+01  0.25353075084E+01  0.60979875315E+01  0.51100000000E-03 0.  1.
        -12    1    3    3    0    0 -0.13305370115E+01  0.47373755854E+01 -0.33295071897E+01  0.59412687452E+01  0.00000000000E+00 0.  1.
</event>
<event>
 7    1  0.6857839E-013  0.5052886E+02  0.7816164E-02  0.1300439E+00
        -11   -1    0    0    0    0  0.00000000000E+00  0.00000000000E+00  0.45593999997E+02  0.45594000000E+02  0.51100000000E-03 0.  1.
         11   -1    0    0    0    0 -0.00000000000E+00 -0.00000000000E+00 -0.45593999997E+02  0.45594000000E+02  0.51100000000E-03 0. -1.
    9900012    2    1    2    0    0 -0.24581681325E+02  0.98471491447E+01 -0.30853535351E+02  0.50528855313E+02  0.29999986208E+02 0.  0.
        -12    1    1    2    0    0  0.24581681325E+02 -0.98471491447E+01  0.30853535351E+02  0.40659144687E+02  0.00000000000E+00 0.  1.
         11    1    3    3    0    0 -0.14943934721E+02  0.13436533891E+02 -0.28004281820E+02  0.34468847217E+02  0.51100000000E-03 0. -1.
        -11    1    3    3    0    0 -0.73066280477E+01  0.36730095572E+01 -0.14795102836E+01  0.83106415863E+01  0.51100000000E-03 0.  1.
        -12    1    3    3    0    0 -0.23311185564E+01 -0.72623943032E+01 -0.13697432476E+01  0.77493665098E+01  0.00000000000E+00 0.  1.
</event>
<event>
 7    1  0.6857839E-013  0.5052886E+02  0.7816164E-02  0.1300439E+00
        -11   -1    0    0    0    0  0.00000000000E+00  0.00000000000E+00  0.45593999997E+02  0.45594000000E+02  0.51100000000E-03 0. -1.
         11   -1    0    0    0    0 -0.00000000000E+00 -0.00000000000E+00 -0.45593999997E+02  0.45594000000E+02  0.51100000000E-03 0.  1.
    9900012    2    1    2    0    0  0.40055888948E+02  0.55338033347E+01  0.42507397165E+01  0.50528855802E+02  0.29999987695E+02 0.  0.
        -12    1    1    2    0    0 -0.40055888948E+02 -0.55338033347E+01 -0.42507397165E+01  0.40659144198E+02  0.00000000000E+00 0.  1.
         11    1    3    3    0    0  0.13514889965E+02 -0.42275400504E+01 -0.25834689615E+01  0.14394396749E+02  0.51100000000E-03 0. -1.
        -11    1    3    3    0    0 -0.26646332638E+01 -0.18715981883E+01 -0.15385659505E+01  0.36014352214E+01  0.51100000000E-03 0.  1.
         12    1    3    3    0    0  0.29205632247E+02  0.11632941573E+02  0.83727746286E+01  0.32533023831E+02  0.00000000000E+00 0. -1.
</event>
<event>
 7    1  0.1684160E-012  0.5052886E+02  0.7816164E-02  0.1300439E+00
        -11   -1    0    0    0    0  0.00000000000E+00  0.00000000000E+00  0.45593999997E+02  0.45594000000E+02  0.51100000000E-03 0. -1.
         11   -1    0    0    0    0 -0.00000000000E+00 -0.00000000000E+00 -0.45593999997E+02  0.45594000000E+02  0.51100000000E-03 0.  1.
    9900012    2    1    2    0    0  0.27142655947E+02  0.28431036482E+02 -0.10397979470E+02  0.50528860999E+02  0.30000003491E+02 0.  0.
        -12    1    1    2    0    0 -0.27142655947E+02 -0.28431036482E+02  0.10397979470E+02  0.40659139001E+02  0.00000000000E+00 0.  1.
         11    1    3    3    0    0  0.96647809143E+01  0.21856817487E+02 -0.85412913879E+01  0.25378773012E+02  0.51100000000E-03 0. -1.
        -11    1    3    3    0    0  0.19872199851E+02  0.79690299749E+01 -0.38272421610E+01  0.21749886171E+02  0.51100000000E-03 0.  1.
        -12    1    3    3    0    0 -0.23943248181E+01 -0.13948109801E+01  0.19705540788E+01  0.34002018150E+01  0.00000000000E+00 0.  1.
</event>
<event>
 7    1  0.6857839E-013  0.5052886E+02  0.7816164E-02  0.1300439E+00
        -11   -1    0    0    0    0  0.00000000000E+00  0.00000000000E+00  0.45593999997E+02  0.45594000000E+02  0.51100000000E-03 0. -1.
         11   -1    0    0    0    0 -0.00000000000E+00 -0.00000000000E+00 -0.45593999997E+02  0.45594000000E+02  0.51100000000E-03 0.  1.
    9900012    2    1    2    0    0  0.25525041694E+02 -0.21405721092E+01  0.31576195853E+02  0.50528856539E+02  0.29999989937E+02 0.  0.
        -12    1    1    2    0    0 -0.25525041694E+02  0.21405721092E+01 -0.31576195853E+02  0.40659143461E+02  0.00000000000E+00 0.  1.
         11    1    3    3    0    0  0.16541884257E+01 -0.70616985963E+01  0.44657039470E+01  0.85174197041E+01  0.51100000000E-03 0. -1.
        -11    1    3    3    0    0  0.69414604762E+01  0.41977318915E+01 -0.19759120207E+01  0.83491948804E+01  0.51100000000E-03 0.  1.
        -12    1    3    3    0    0  0.16929392792E+02  0.72339459557E+00  0.29086403927E+02  0.33662241955E+02  0.00000000000E+00 0.  1.
</event>
<event>
 7    1  0.7121504E-013  0.5052886E+02  0.7816164E-02  0.1300439E+00
        -11   -1    0    0    0    0  0.00000000000E+00  0.00000000000E+00  0.45593999997E+02  0.45594000000E+02  0.51100000000E-03 0. -1.
         11   -1    0    0    0    0 -0.00000000000E+00 -0.00000000000E+00 -0.45593999997E+02  0.45594000000E+02  0.51100000000E-03 0.  1.
    9900012    2    1    2    0    0  0.94807185555E+01 -0.17412898689E+01  0.39499993307E+02  0.50528860979E+02  0.30000003430E+02 0.  0.
        -12    1    1    2    0    0 -0.94807185555E+01  0.17412898689E+01 -0.39499993307E+02  0.40659139021E+02  0.00000000000E+00 0.  1.
         11    1    3    3    0    0  0.78942025042E+01 -0.83090759257E+00  0.17252002430E+02  0.18990535240E+02  0.51100000000E-03 0. -1.
        -11    1    3    3    0    0 -0.16806245797E+01  0.58669441339E+01  0.23168212146E+02  0.23958538911E+02  0.51100000000E-03 0.  1.
        -12    1    3    3    0    0  0.32671406310E+01 -0.67773264103E+01 -0.92022126857E+00  0.75797868280E+01  0.00000000000E+00 0.  1.
</event>
<event>
 7    1  0.6857839E-013  0.5052884E+02  0.7816164E-02  0.1300439E+00
        -11   -1    0    0    0    0  0.00000000000E+00  0.00000000000E+00  0.45593999997E+02  0.45594000000E+02  0.51100000000E-03 0.  1.
         11   -1    0    0    0    0 -0.00000000000E+00 -0.00000000000E+00 -0.45593999997E+02  0.45594000000E+02  0.51100000000E-03 0. -1.
    9900012    2    1    2    0    0 -0.11207390318E+01 -0.21748024554E+02 -0.34335614295E+02  0.50528843134E+02  0.29999949191E+02 0.  0.
        -12    1    1    2    0    0  0.11207390318E+01  0.21748024554E+02  0.34335614295E+02  0.40659156866E+02  0.00000000000E+00 0.  1.
         11    1    3    3    0    0  0.50473667711E+01 -0.12401297008E+02 -0.24229715086E+02  0.27682976217E+02  0.51100000000E-03 0. -1.
        -11    1    3    3    0    0  0.89403854769E+00 -0.12647055774E+02 -0.58283586193E+01  0.13954106533E+02  0.51100000000E-03 0.  1.
        -12    1    3    3    0    0 -0.70621443506E+01  0.33003282276E+01 -0.42775405894E+01  0.88917603843E+01  0.00000000000E+00 0.  1.
</event>
<event>
 7    1  0.6857839E-013  0.5052886E+02  0.7816164E-02  0.1300439E+00
        -11   -1    0    0    0    0  0.00000000000E+00  0.00000000000E+00  0.45593999997E+02  0.45594000000E+02  0.51100000000E-03 0.  1.
         11   -1    0    0    0    0 -0.00000000000E+00 -0.00000000000E+00 -0.45593999997E+02  0.45594000000E+02  0.51100000000E-03 0. -1.
    9900012    2    1    2    0    0 -0.20041470108E+02  0.49429173976E+01 -0.35029598108E+02  0.50528859575E+02  0.29999999165E+02 0.  0.
        -12    1    1    2    0    0  0.20041470108E+02 -0.49429173976E+01  0.35029598108E+02  0.40659140425E+02  0.00000000000E+00 0.  1.
         11    1    3    3    0    0 -0.51049872500E+01  0.23680050464E+01 -0.83327179735E+01  0.10054975475E+02  0.51100000000E-03 0. -1.
        -11    1    3    3    0    0 -0.11145904746E+02  0.59796317410E+01 -0.31204763714E+02  0.33670825162E+02  0.51100000000E-03 0.  1.
        -12    1    3    3    0    0 -0.37905781113E+01 -0.34047193898E+01  0.45078835799E+01  0.68030589378E+01  0.00000000000E+00 0.  1.
</event>
<event>
 7    1  0.6857839E-013  0.5052886E+02  0.7816164E-02  0.1300439E+00
        -11   -1    0    0    0    0  0.00000000000E+00  0.00000000000E+00  0.45593999997E+02  0.45594000000E+02  0.51100000000E-03 0.  1.
         11   -1    0    0    0    0 -0.00000000000E+00 -0.00000000000E+00 -0.45593999997E+02  0.45594000000E+02  0.51100000000E-03 0. -1.
    9900012    2    1    2    0    0  0.35717028804E+02 -0.99048689407E+01 -0.16713858841E+02  0.50528860158E+02  0.30000000936E+02 0.  0.
        -12    1    1    2    0    0 -0.35717028804E+02  0.99048689407E+01  0.16713858841E+02  0.40659139842E+02  0.00000000000E+00 0.  1.
         11    1    3    3    0    0  0.15939076580E+02 -0.14737827827E+02 -0.34044124699E+01  0.21973797028E+02  0.51100000000E-03 0. -1.
        -11    1    3    3    0    0 -0.20442781962E+01 -0.10901109509E+01  0.53537402048E-03  0.23167683908E+01  0.51100000000E-03 0.  1.
        -12    1    3    3    0    0  0.21822230420E+02  0.59230698368E+01 -0.13309981745E+02  0.26238294740E+02  0.00000000000E+00 0.  1.
</event>
<event>
 7    1  0.6857839E-013  0.5052886E+02  0.7816164E-02  0.1300439E+00
        -11   -1    0    0    0    0  0.00000000000E+00  0.00000000000E+00  0.45593999997E+02  0.45594000000E+02  0.51100000000E-03 0. -1.
         11   -1    0    0    0    0 -0.00000000000E+00 -0.00000000000E+00 -0.45593999997E+02  0.45594000000E+02  0.51100000000E-03 0.  1.
    9900012    2    1    2    0    0 -0.80295257992E+01  0.39363895049E+02 -0.62590946772E+01  0.50528858541E+02  0.29999996023E+02 0.  0.
        -12    1    1    2    0    0  0.80295257992E+01 -0.39363895049E+02  0.62590946772E+01  0.40659141459E+02  0.00000000000E+00 0.  1.
         11    1    3    3    0    0 -0.35064739160E+01  0.11692383411E+01 -0.77626215489E+01  0.85977189530E+01  0.51100000000E-03 0.  1.
        -11    1    3    3    0    0  0.61925156037E+01  0.15493012863E+02  0.21275132031E+01  0.16819839766E+02  0.51100000000E-03 0. -1.
         12    1    3    3    0    0 -0.10715567487E+02  0.22701643845E+02 -0.62398633145E+00  0.25111299822E+02  0.00000000000E+00 0. -1.
</event>
<event>
 7    1  0.6857839E-013  0.5052886E+02  0.7816164E-02  0.1300439E+00
        -11   -1    0    0    0    0  0.00000000000E+00  0.00000000000E+00  0.45593999997E+02  0.45594000000E+02  0.51100000000E-03 0.  1.
         11   -1    0    0    0    0 -0.00000000000E+00 -0.00000000000E+00 -0.45593999997E+02  0.45594000000E+02  0.51100000000E-03 0. -1.
    9900012    2    1    2    0    0 -0.31355582494E+01 -0.39024350902E+02  0.10974241565E+02  0.50528859985E+02  0.30000000410E+02 0.  0.
        -12    1    1    2    0    0  0.31355582494E+01  0.39024350902E+02 -0.10974241565E+02  0.40659140015E+02  0.00000000000E+00 0.  1.
         11    1    3    3    0    0 -0.10620118884E+02 -0.24413851848E+02  0.52949726583E+01  0.27145162052E+02  0.51100000000E-03 0. -1.
        -11    1    3    3    0    0  0.16419619465E+01 -0.15568586793E+02  0.73850925938E+00  0.15672342835E+02  0.51100000000E-03 0.  1.
        -12    1    3    3    0    0  0.58425986877E+01  0.95808773882E+00  0.49407596471E+01  0.77113550969E+01  0.00000000000E+00 0.  1.
</event>
<event>
 7    1  0.6857839E-013  0.5052887E+02  0.7816164E-02  0.1300439E+00
        -11   -1    0    0    0    0  0.00000000000E+00  0.00000000000E+00  0.45593999997E+02  0.45594000000E+02  0.51100000000E-03 0. -1.
         11   -1    0    0    0    0 -0.00000000000E+00 -0.00000000000E+00 -0.45593999997E+02  0.45594000000E+02  0.51100000000E-03 0.  1.
    9900012    2    1    2    0    0  0.15418597273E+02  0.23755630962E+02  0.29173650421E+02  0.50528867900E+02  0.30000024468E+02 0.  0.
        -12    1    1    2    0    0 -0.15418597273E+02 -0.23755630962E+02 -0.29173650421E+02  0.40659132100E+02  0.00000000000E+00 0.  1.
         11    1    3    3    0    0 -0.37416949851E+01  0.31814005545E+01 -0.93303407198E+00  0.49992143073E+01  0.51100000000E-03 0. -1.
        -11    1    3    3    0    0  0.12889868174E+02  0.15569999305E+01  0.63306649299E+01  0.14444731532E+02  0.51100000000E-03 0.  1.
         12    1    3    3    0    0  0.62704240842E+01  0.19017230477E+02  0.23776019563E+02  0.31084922060E+02  0.00000000000E+00 0. -1.
</event>
<event>
 7    1  0.6857839E-013  0.5052886E+02  0.7816164E-02  0.1300439E+00
        -11   -1    0    0    0    0  0.00000000000E+00  0.00000000000E+00  0.45593999997E+02  0.45594000000E+02  0.51100000000E-03 0. -1.
         11   -1    0    0    0    0 -0.00000000000E+00 -0.00000000000E+00 -0.45593999997E+02  0.45594000000E+02  0.51100000000E-03 0.  1.
    9900012    2    1    2    0    0 -0.28070501325E+02  0.26335194610E+02  0.13102293969E+02  0.50528860474E+02  0.30000001896E+02 0.  0.
        -12    1    1    2    0    0  0.28070501325E+02 -0.26335194610E+02 -0.13102293969E+02  0.40659139526E+02  0.00000000000E+00 0.  1.
         11    1    3    3    0    0  0.17020301963E+01  0.11009662356E+01  0.32442381605E+01  0.38254561747E+01  0.51100000000E-03 0. -1.
        -11    1    3    3    0    0 -0.41401539454E+01  0.18756022672E+02  0.37981283520E+01  0.19579454548E+02  0.51100000000E-03 0.  1.
        -12    1    3    3    0    0 -0.25632377576E+02  0.64782057018E+01  0.60599274565E+01  0.27123949751E+02  0.00000000000E+00 0.  1.
</event>
<event>
 7    1  0.6857839E-013  0.5052888E+02  0.7816164E-02  0.1300439E+00
        -11   -1    0    0    0    0  0.00000000000E+00  0.00000000000E+00  0.45593999997E+02  0.45594000000E+02  0.51100000000E-03 0. -1.
         11   -1    0    0    0    0 -0.00000000000E+00 -0.00000000000E+00 -0.45593999997E+02  0.45594000000E+02  0.51100000000E-03 0.  1.
    9900012    2    1    2    0    0 -0.33185631320E+02  0.13489754187E+02  0.19232897479E+02  0.50528881225E+02  0.30000064971E+02 0.  0.
        -12    1    1    2    0    0  0.33185631320E+02 -0.13489754187E+02 -0.19232897479E+02  0.40659118775E+02  0.00000000000E+00 0.  1.
         11    1    3    3    0    0 -0.51964708811E+01 -0.25789672980E+01  0.13288119733E+02  0.14499258886E+02  0.51100000000E-03 0. -1.
        -11    1    3    3    0    0 -0.29886840722E+00  0.60942700648E+01  0.11729452865E+01  0.62133123898E+01  0.51100000000E-03 0.  1.
        -12    1    3    3    0    0 -0.27690292032E+02  0.99744514198E+01  0.47718324590E+01  0.29816309949E+02  0.00000000000E+00 0.  1.
</event>
<event>
 7    1  0.6857839E-013  0.5052887E+02  0.7816164E-02  0.1300439E+00
        -11   -1    0    0    0    0  0.00000000000E+00  0.00000000000E+00  0.45593999997E+02  0.45594000000E+02  0.51100000000E-03 0.  1.
         11   -1    0    0    0    0 -0.00000000000E+00 -0.00000000000E+00 -0.45593999997E+02  0.45594000000E+02  0.51100000000E-03 0. -1.
    9900012    2    1    2    0    0  0.24048858476E+02  0.81427534637E+01 -0.31757097271E+02  0.50528865048E+02  0.30000015799E+02 0.  0.
        -12    1    1    2    0    0 -0.24048858476E+02 -0.81427534637E+01  0.31757097271E+02  0.40659134952E+02  0.00000000000E+00 0.  1.
         11    1    3    3    0    0  0.20066336384E+02  0.77393160673E+01 -0.17230211583E+02  0.27557849345E+02  0.51100000000E-03 0. -1.
        -11    1    3    3    0    0  0.34245501681E+01 -0.79277488845E+01 -0.10797505282E+02  0.13826166019E+02  0.51100000000E-03 0.  1.
        -12    1    3    3    0    0  0.55797192392E+00  0.83311862808E+01 -0.37293804072E+01  0.91448496836E+01  0.00000000000E+00 0.  1.
</event>
<event>
 7    1  0.6857839E-013  0.5052887E+02  0.7816164E-02  0.1300439E+00
        -11   -1    0    0    0    0  0.00000000000E+00  0.00000000000E+00  0.45593999997E+02  0.45594000000E+02  0.51100000000E-03 0. -1.
         11   -1    0    0    0    0 -0.00000000000E+00 -0.00000000000E+00 -0.45593999997E+02  0.45594000000E+02  0.51100000000E-03 0.  1.
    9900012    2    1    2    0    0  0.80991134051E+01  0.44272277269E+01  0.39597589632E+02  0.50528867103E+02  0.30000022046E+02 0.  0.
        -12    1    1    2    0    0 -0.80991134051E+01 -0.44272277269E+01 -0.39597589632E+02  0.40659132897E+02  0.00000000000E+00 0.  1.
         11    1    3    3    0    0  0.10422338260E+02 -0.70141951502E+01  0.17603979062E+02  0.21626931070E+02  0.51100000000E-03 0. -1.
        -11    1    3    3    0    0 -0.11113213755E+01  0.39187507502E+01  0.20793055500E+02  0.21188270339E+02  0.51100000000E-03 0.  1.
        -12    1    3    3    0    0 -0.12119034797E+01  0.75226721270E+01  0.12005550696E+01  0.77136656947E+01  0.00000000000E+00 0.  1.
</event>
<event>
 7    1  0.6857839E-013  0.5052887E+02  0.7816164E-02  0.1300439E+00
        -11   -1    0    0    0    0  0.00000000000E+00  0.00000000000E+00  0.45593999997E+02  0.45594000000E+02  0.51100000000E-03 0.  1.
         11   -1    0    0    0    0 -0.00000000000E+00 -0.00000000000E+00 -0.45593999997E+02  0.45594000000E+02  0.51100000000E-03 0. -1.
    9900012    2    1    2    0    0 -0.10005064370E+01  0.11987023888E+02 -0.38839095259E+02  0.50528867258E+02  0.30000022516E+02 0.  0.
        -12    1    1    2    0    0  0.10005064370E+01 -0.11987023888E+02  0.38839095259E+02  0.40659132742E+02  0.00000000000E+00 0.  1.
         11    1    3    3    0    0 -0.44024546189E+01  0.38291742433E+01 -0.17428003195E+02  0.18378777916E+02  0.51100000000E-03 0. -1.
        -11    1    3    3    0    0  0.26780640565E+01 -0.75152291351E+01 -0.97684118441E+01  0.12612397324E+02  0.51100000000E-03 0.  1.
        -12    1    3    3    0    0  0.72388412536E+00  0.15673078780E+02 -0.11642680220E+02  0.19537692018E+02  0.00000000000E+00 0.  1.
</event>
<event>
 7    1  0.6857839E-013  0.5052885E+02  0.7816164E-02  0.1300439E+00
        -11   -1    0    0    0    0  0.00000000000E+00  0.00000000000E+00  0.45593999997E+02  0.45594000000E+02  0.51100000000E-03 0.  1.
         11   -1    0    0    0    0 -0.00000000000E+00 -0.00000000000E+00 -0.45593999997E+02  0.45594000000E+02  0.51100000000E-03 0. -1.
    9900012    2    1    2    0    0 -0.23746274408E+02 -0.17470012639E+02 -0.28001415376E+02  0.50528854007E+02  0.29999982239E+02 0.  0.
        -12    1    1    2    0    0  0.23746274408E+02  0.17470012639E+02  0.28001415376E+02  0.40659145993E+02  0.00000000000E+00 0.  1.
         11    1    3    3    0    0 -0.84250725696E+01 -0.36571394716E+01 -0.45744722649E+00  0.91959651556E+01  0.51100000000E-03 0. -1.
        -11    1    3    3    0    0 -0.17617458129E+02 -0.18452114810E+02 -0.21399181238E+02  0.33298353260E+02  0.51100000000E-03 0.  1.
        -12    1    3    3    0    0  0.22962562905E+01  0.46392416434E+01 -0.61447869114E+01  0.80345355911E+01  0.00000000000E+00 0.  1.
</event>
<event>
 7    1  0.6857839E-013  0.5052886E+02  0.7816164E-02  0.1300439E+00
        -11   -1    0    0    0    0  0.00000000000E+00  0.00000000000E+00  0.45593999997E+02  0.45594000000E+02  0.51100000000E-03 0.  1.
         11   -1    0    0    0    0 -0.00000000000E+00 -0.00000000000E+00 -0.45593999997E+02  0.45594000000E+02  0.51100000000E-03 0. -1.
    9900012    2    1    2    0    0 -0.12114387001E+02 -0.38636645055E+02 -0.36900865607E+01  0.50528862621E+02  0.30000008424E+02 0.  0.
        -12    1    1    2    0    0  0.12114387001E+02  0.38636645055E+02  0.36900865607E+01  0.40659137379E+02  0.00000000000E+00 0.  1.
         11    1    3    3    0    0  0.36249152036E+01 -0.14514786492E+01 -0.77283836355E+00  0.39804622721E+01  0.51100000000E-03 0. -1.
        -11    1    3    3    0    0 -0.23796629627E+01  0.95004839294E+00 -0.54904835323E+01  0.60589435915E+01  0.51100000000E-03 0.  1.
        -12    1    3    3    0    0 -0.13359639242E+02 -0.38135214799E+02  0.25732353351E+01  0.40489456758E+02  0.00000000000E+00 0.  1.
</event>
<event>
 7    1  0.6857839E-013  0.5052886E+02  0.7816164E-02  0.1300439E+00
        -11   -1    0    0    0    0  0.00000000000E+00  0.00000000000E+00  0.45593999997E+02  0.45594000000E+02  0.51100000000E-03 0.  1.
         11   -1    0    0    0    0 -0.00000000000E+00 -0.00000000000E+00 -0.45593999997E+02  0.45594000000E+02  0.51100000000E-03 0. -1.
    9900012    2    1    2    0    0 -0.18141676029E+02 -0.29927986654E+02 -0.20696876698E+02  0.50528862044E+02  0.30000006668E+02 0.  0.
        -12    1    1    2    0    0  0.18141676029E+02  0.29927986654E+02  0.20696876698E+02  0.40659137956E+02  0.00000000000E+00 0.  1.
         11    1    3    3    0    0 -0.11644881727E+02 -0.70607514341E+01 -0.62123224082E+01  0.14968314241E+02  0.51100000000E-03 0. -1.
        -11    1    3    3    0    0 -0.10336285817E+02 -0.22796314725E+02 -0.52715946559E+01  0.25579297880E+02  0.51100000000E-03 0.  1.
         12    1    3    3    0    0  0.38394915156E+01 -0.70920495184E-01 -0.92129596336E+01  0.99812499230E+01  0.00000000000E+00 0. -1.
</event>
<event>
 7    1  0.6857839E-013  0.5052886E+02  0.7816164E-02  0.1300439E+00
        -11   -1    0    0    0    0  0.00000000000E+00  0.00000000000E+00  0.45593999997E+02  0.45594000000E+02  0.51100000000E-03 0. -1.
         11   -1    0    0    0    0 -0.00000000000E+00 -0.00000000000E+00 -0.45593999997E+02  0.45594000000E+02  0.51100000000E-03 0.  1.
    9900012    2    1    2    0    0 -0.27532699424E+01  0.79730608502E+01  0.39774555635E+02  0.50528862396E+02  0.30000007739E+02 0.  0.
        -12    1    1    2    0    0  0.27532699424E+01 -0.79730608502E+01 -0.39774555635E+02  0.40659137604E+02  0.00000000000E+00 0.  1.
         11    1    3    3    0    0 -0.14414324701E+01 -0.14646706985E+01 -0.22980632660E+01  0.30828692571E+01  0.51100000000E-03 0. -1.
        -11    1    3    3    0    0  0.52916465441E+01  0.78229972034E+01  0.70918875051E+01  0.11810828804E+02  0.51100000000E-03 0.  1.
         12    1    3    3    0    0 -0.66034840165E+01  0.16147343454E+01  0.34980731396E+02  0.35635164335E+02  0.00000000000E+00 0. -1.
</event>
<event>
 7    1  0.9070241E-013  0.5052885E+02  0.7816164E-02  0.1300439E+00
        -11   -1    0    0    0    0  0.00000000000E+00  0.00000000000E+00  0.45593999997E+02  0.45594000000E+02  0.51100000000E-03 0. -1.
         11   -1    0    0    0    0 -0.00000000000E+00 -0.00000000000E+00 -0.45593999997E+02  0.45594000000E+02  0.51100000000E-03 0.  1.
    9900012    2    1    2    0    0  0.16788558221E+02  0.14104437223E+02  0.34239966732E+02  0.50528853940E+02  0.29999982035E+02 0.  0.
        -12    1    1    2    0    0 -0.16788558221E+02 -0.14104437223E+02 -0.34239966732E+02  0.40659146060E+02  0.00000000000E+00 0.  1.
         11    1    3    3    0    0  0.73369792950E+01  0.76515201202E+01  0.29848248805E+02  0.31674832002E+02  0.51100000000E-03 0. -1.
        -11    1    3    3    0    0  0.43411767511E+01  0.96357769969E+00  0.90090157805E+01  0.10046724001E+02  0.51100000000E-03 0.  1.
        -12    1    3    3    0    0  0.51104021752E+01  0.54893394031E+01 -0.46172978535E+01  0.88072979365E+01  0.00000000000E+00 0.  1.
</event>
<event>
 7    1  0.6857839E-013  0.5052888E+02  0.7816164E-02  0.1300439E+00
        -11   -1    0    0    0    0  0.00000000000E+00  0.00000000000E+00  0.45593999997E+02  0.45594000000E+02  0.51100000000E-03 0. -1.
         11   -1    0    0    0    0 -0.00000000000E+00 -0.00000000000E+00 -0.45593999997E+02  0.45594000000E+02  0.51100000000E-03 0.  1.
    9900012    2    1    2    0    0 -0.42048640664E+01  0.26941193835E+01  0.40351273568E+02  0.50528875075E+02  0.30000046279E+02 0.  0.
        -12    1    1    2    0    0  0.42048640664E+01 -0.26941193835E+01 -0.40351273568E+02  0.40659124925E+02  0.00000000000E+00 0.  1.
         11    1    3    3    0    0  0.11481199906E+01  0.65400365223E+01  0.45371472884E+01  0.80421367188E+01  0.51100000000E-03 0. -1.
        -11    1    3    3    0    0 -0.41574286989E+01 -0.23396405420E+01 -0.15935485272E+01  0.50296648419E+01  0.51100000000E-03 0.  1.
         12    1    3    3    0    0 -0.11955553581E+01 -0.15062765968E+01  0.37407674807E+02  0.37457073514E+02  0.00000000000E+00 0. -1.
</event>
<event>
 7    1  0.6857839E-013  0.5052885E+02  0.7816164E-02  0.1300439E+00
        -11   -1    0    0    0    0  0.00000000000E+00  0.00000000000E+00  0.45593999997E+02  0.45594000000E+02  0.51100000000E-03 0.  1.
         11   -1    0    0    0    0 -0.00000000000E+00 -0.00000000000E+00 -0.45593999997E+02  0.45594000000E+02  0.51100000000E-03 0. -1.
    9900012    2    1    2    0    0  0.93811077301E+01 -0.33280048478E+02 -0.21391584860E+02  0.50528847134E+02  0.29999961350E+02 0.  0.
        -12    1    1    2    0    0 -0.93811077301E+01  0.33280048478E+02  0.21391584860E+02  0.40659152866E+02  0.00000000000E+00 0.  1.
         11    1    3    3    0    0  0.38345567482E+01 -0.18240183512E+02 -0.45416434093E+01  0.19184229073E+02  0.51100000000E-03 0. -1.
        -11    1    3    3    0    0  0.63092596886E+01 -0.15473013835E+01  0.31399248352E+01  0.72152635171E+01  0.51100000000E-03 0.  1.
         12    1    3    3    0    0 -0.76270870661E+00 -0.13492563582E+02 -0.19989866286E+02  0.24129354544E+02  0.00000000000E+00 0. -1.
</event>
<event>
 7    1  0.6857839E-013  0.5052886E+02  0.7816164E-02  0.1300439E+00
        -11   -1    0    0    0    0  0.00000000000E+00  0.00000000000E+00  0.45593999997E+02  0.45594000000E+02  0.51100000000E-03 0.  1.
         11   -1    0    0    0    0 -0.00000000000E+00 -0.00000000000E+00 -0.45593999997E+02  0.45594000000E+02  0.51100000000E-03 0. -1.
    9900012    2    1    2    0    0 -0.20304295825E+02 -0.26472160027E+02  0.23240610387E+02  0.50528860110E+02  0.30000000791E+02 0.  0.
        -12    1    1    2    0    0  0.20304295825E+02  0.26472160027E+02 -0.23240610387E+02  0.40659139890E+02  0.00000000000E+00 0.  1.
         11    1    3    3    0    0 -0.18571000096E+02 -0.11069781435E+02  0.19589910553E+02  0.29175104136E+02  0.51100000000E-03 0. -1.
        -11    1    3    3    0    0 -0.41409270428E+01  0.71090816549E-01  0.39047331871E+01  0.56920358573E+01  0.51100000000E-03 0.  1.
         12    1    3    3    0    0  0.24076313141E+01 -0.15473469409E+02 -0.25403335355E+00  0.15661720117E+02  0.00000000000E+00 0. -1.
</event>
<event>
 7    1  0.6857839E-013  0.5052893E+02  0.7816164E-02  0.1300439E+00
        -11   -1    0    0    0    0  0.00000000000E+00  0.00000000000E+00  0.45593999997E+02  0.45594000000E+02  0.51100000000E-03 0.  1.
         11   -1    0    0    0    0 -0.00000000000E+00 -0.00000000000E+00 -0.45593999997E+02  0.45594000000E+02  0.51100000000E-03 0. -1.
    9900012    2    1    2    0    0  0.27252013790E+01  0.34663795861E+02 -0.21074964291E+02  0.50528934763E+02  0.30000227706E+02 0.  0.
        -12    1    1    2    0    0 -0.27252013790E+01 -0.34663795861E+02  0.21074964291E+02  0.40659065237E+02  0.00000000000E+00 0.  1.
         11    1    3    3    0    0  0.66541643691E+01  0.80523679048E+01  0.42160475875E+01  0.11264705493E+02  0.51100000000E-03 0.  1.
        -11    1    3    3    0    0 -0.40547210581E+00  0.17730842551E+02 -0.23664235347E+02  0.29572676917E+02  0.51100000000E-03 0. -1.
         12    1    3    3    0    0 -0.35234908842E+01  0.88805854046E+01 -0.16267765321E+01  0.96915523537E+01  0.00000000000E+00 0. -1.
</event>
<event>
 7    1  0.6857839E-013  0.5052888E+02  0.7816164E-02  0.1300439E+00
        -11   -1    0    0    0    0  0.00000000000E+00  0.00000000000E+00  0.45593999997E+02  0.45594000000E+02  0.51100000000E-03 0.  1.
         11   -1    0    0    0    0 -0.00000000000E+00 -0.00000000000E+00 -0.45593999997E+02  0.45594000000E+02  0.51100000000E-03 0. -1.
    9900012    2    1    2    0    0  0.13727191796E+02 -0.35446907911E+02 -0.14430688854E+02  0.50528882255E+02  0.30000068101E+02 0.  0.
        -12    1    1    2    0    0 -0.13727191796E+02  0.35446907911E+02  0.14430688854E+02  0.40659117745E+02  0.00000000000E+00 0.  1.
         11    1    3    3    0    0  0.34736527352E+01 -0.27949941083E+02 -0.18705613195E+02  0.33810729585E+02  0.51100000000E-03 0. -1.
        -11    1    3    3    0    0 -0.30581940959E-01 -0.32444847433E+01  0.45472777850E+01  0.55861750796E+01  0.51100000000E-03 0.  1.
        -12    1    3    3    0    0  0.10284121001E+02 -0.42524820852E+01 -0.27235344401E+00  0.11131977590E+02  0.00000000000E+00 0.  1.
</event>
<event>
 7    1  0.6857839E-013  0.5052887E+02  0.7816164E-02  0.1300439E+00
        -11   -1    0    0    0    0  0.00000000000E+00  0.00000000000E+00  0.45593999997E+02  0.45594000000E+02  0.51100000000E-03 0.  1.
         11   -1    0    0    0    0 -0.00000000000E+00 -0.00000000000E+00 -0.45593999997E+02  0.45594000000E+02  0.51100000000E-03 0. -1.
    9900012    2    1    2    0    0 -0.28101364245E+02  0.29154957659E+02  0.36697376067E+01  0.50528865692E+02  0.30000017758E+02 0.  0.
        -12    1    1    2    0    0  0.28101364245E+02 -0.29154957659E+02 -0.36697376067E+01  0.40659134308E+02  0.00000000000E+00 0.  1.
         11    1    3    3    0    0 -0.16187031892E+02  0.96907217873E+01  0.12044311131E+02  0.22382929234E+02  0.51100000000E-03 0. -1.
        -11    1    3    3    0    0  0.60470225124E+00  0.86936618055E+01  0.15892514605E+01  0.88583938085E+01  0.51100000000E-03 0.  1.
        -12    1    3    3    0    0 -0.12519034605E+02  0.10770574066E+02 -0.99638249844E+01  0.19287542650E+02  0.00000000000E+00 0.  1.
</event>
<event>
 7    1  0.6857839E-013  0.5052886E+02  0.7816164E-02  0.1300439E+00
        -11   -1    0    0    0    0  0.00000000000E+00  0.00000000000E+00  0.45593999997E+02  0.45594000000E+02  0.51100000000E-03 0.  1.
         11   -1    0    0    0    0 -0.00000000000E+00 -0.00000000000E+00 -0.45593999997E+02  0.45594000000E+02  0.51100000000E-03 0. -1.
    9900012    2    1    2    0    0  0.13637802774E+02  0.30768102642E+02 -0.22814463234E+02  0.50528861577E+02  0.30000005249E+02 0.  0.
        -12    1    1    2    0    0 -0.13637802774E+02 -0.30768102642E+02  0.22814463234E+02  0.40659138423E+02  0.00000000000E+00 0.  1.
         11    1    3    3    0    0  0.60399413380E+00  0.52680876691E+01 -0.12751136140E+02  0.13809744014E+02  0.51100000000E-03 0. -1.
        -11    1    3    3    0    0 -0.48368051478E+01  0.47644903230E+01  0.15820953919E+01  0.69712321842E+01  0.51100000000E-03 0.  1.
        -12    1    3    3    0    0  0.17870613788E+02  0.20735524650E+02 -0.11645422486E+02  0.29747885379E+02  0.00000000000E+00 0.  1.
</event>
<event>
 7    1  0.6857839E-013  0.5052885E+02  0.7816164E-02  0.1300439E+00
        -11   -1    0    0    0    0  0.00000000000E+00  0.00000000000E+00  0.45593999997E+02  0.45594000000E+02  0.51100000000E-03 0.  1.
         11   -1    0    0    0    0 -0.00000000000E+00 -0.00000000000E+00 -0.45593999997E+02  0.45594000000E+02  0.51100000000E-03 0. -1.
    9900012    2    1    2    0    0  0.29875533285E+02 -0.25884894163E+02 -0.95179509613E+01  0.50528848196E+02  0.29999964578E+02 0.  0.
        -12    1    1    2    0    0 -0.29875533285E+02  0.25884894163E+02  0.95179509613E+01  0.40659151804E+02  0.00000000000E+00 0.  1.
         11    1    3    3    0    0  0.15526597905E+02 -0.26307326102E+02 -0.76060943538E+01  0.31480205220E+02  0.51100000000E-03 0. -1.
        -11    1    3    3    0    0  0.25913420791E+01 -0.38217875078E+01  0.31210248726E+01  0.55733212757E+01  0.51100000000E-03 0.  1.
         12    1    3    3    0    0  0.11757593301E+02  0.42442194467E+01 -0.50328814801E+01  0.13475321700E+02  0.00000000000E+00 0. -1.
</event>
<event>
 7    1  0.6857839E-013  0.5052886E+02  0.7816164E-02  0.1300439E+00
        -11   -1    0    0    0    0  0.00000000000E+00  0.00000000000E+00  0.45593999997E+02  0.45594000000E+02  0.51100000000E-03 0.  1.
         11   -1    0    0    0    0 -0.00000000000E+00 -0.00000000000E+00 -0.45593999997E+02  0.45594000000E+02  0.51100000000E-03 0. -1.
    9900012    2    1    2    0    0  0.21020276216E+02 -0.41773152821E+01 -0.34552334139E+02  0.50528858720E+02  0.29999996564E+02 0.  0.
        -12    1    1    2    0    0 -0.21020276216E+02  0.41773152821E+01  0.34552334139E+02  0.40659141280E+02  0.00000000000E+00 0.  1.
         11    1    3    3    0    0  0.11743040901E+02  0.56645531645E+01 -0.13960381548E+02  0.19101791157E+02  0.51100000000E-03 0. -1.
        -11    1    3    3    0    0 -0.28614399541E+01 -0.36441128054E+01 -0.16586264912E+02  0.17221253751E+02  0.51100000000E-03 0.  1.
        -12    1    3    3    0    0  0.12138675269E+02 -0.61977556412E+01 -0.40056876785E+01  0.14205813812E+02  0.00000000000E+00 0.  1.
</event>
<event>
 7    1  0.1404319E-012  0.5052886E+02  0.7816164E-02  0.1300439E+00
        -11   -1    0    0    0    0  0.00000000000E+00  0.00000000000E+00  0.45593999997E+02  0.45594000000E+02  0.51100000000E-03 0. -1.
         11   -1    0    0    0    0 -0.00000000000E+00 -0.00000000000E+00 -0.45593999997E+02  0.45594000000E+02  0.51100000000E-03 0.  1.
    9900012    2    1    2    0    0 -0.75830240140E+01  0.38274365801E+02  0.11434012940E+02  0.50528856101E+02  0.29999988606E+02 0.  0.
        -12    1    1    2    0    0  0.75830240140E+01 -0.38274365801E+02 -0.11434012940E+02  0.40659143899E+02  0.00000000000E+00 0.  1.
         11    1    3    3    0    0 -0.57992120551E+01  0.20036526369E+02  0.10718763097E+02  0.23451761810E+02  0.51100000000E-03 0. -1.
        -11    1    3    3    0    0 -0.94279362684E+01  0.16396527828E+02 -0.13055119642E+01  0.18958809795E+02  0.51100000000E-03 0.  1.
        -12    1    3    3    0    0  0.76441243095E+01  0.18413116039E+01  0.20207618067E+01  0.81182844963E+01  0.00000000000E+00 0.  1.
</event>
<event>
 7    1  0.6857839E-013  0.5052888E+02  0.7816164E-02  0.1300439E+00
        -11   -1    0    0    0    0  0.00000000000E+00  0.00000000000E+00  0.45593999997E+02  0.45594000000E+02  0.51100000000E-03 0.  1.
         11   -1    0    0    0    0 -0.00000000000E+00 -0.00000000000E+00 -0.45593999997E+02  0.45594000000E+02  0.51100000000E-03 0. -1.
    9900012    2    1    2    0    0 -0.28670595763E+02 -0.25312232067E+02 -0.13800430762E+02  0.50528879955E+02  0.30000061111E+02 0.  0.
        -12    1    1    2    0    0  0.28670595763E+02  0.25312232067E+02  0.13800430762E+02  0.40659120045E+02  0.00000000000E+00 0.  1.
         11    1    3    3    0    0 -0.15892320135E+02 -0.15652191372E+02 -0.72032403702E+01  0.23440213440E+02  0.51100000000E-03 0. -1.
        -11    1    3    3    0    0 -0.13298241393E+02 -0.15362406423E+02 -0.36329076875E+01  0.20640852061E+02  0.51100000000E-03 0.  1.
        -12    1    3    3    0    0  0.51996576491E+00  0.57023657278E+01 -0.29642827039E+01  0.64478144544E+01  0.00000000000E+00 0.  1.
</event>
<event>
 7    1  0.6857839E-013  0.5052886E+02  0.7816164E-02  0.1300439E+00
        -11   -1    0    0    0    0  0.00000000000E+00  0.00000000000E+00  0.45593999997E+02  0.45594000000E+02  0.51100000000E-03 0.  1.
         11   -1    0    0    0    0 -0.00000000000E+00 -0.00000000000E+00 -0.45593999997E+02  0.45594000000E+02  0.51100000000E-03 0. -1.
    9900012    2    1    2    0    0  0.44916260541E+00 -0.40550606719E+02  0.29346748319E+01  0.50528858731E+02  0.29999996599E+02 0.  0.
        -12    1    1    2    0    0 -0.44916260541E+00  0.40550606719E+02 -0.29346748319E+01  0.40659141269E+02  0.00000000000E+00 0.  1.
         11    1    3    3    0    0  0.10966667805E+02 -0.13193347543E+02  0.68859981678E+00  0.17169926968E+02  0.51100000000E-03 0. -1.
        -11    1    3    3    0    0  0.28243229768E+01 -0.42842478256E+00  0.16528625866E+01  0.33003489305E+01  0.51100000000E-03 0.  1.
        -12    1    3    3    0    0 -0.13341828176E+02 -0.26928834394E+02  0.59321242846E+00  0.30058582832E+02  0.00000000000E+00 0.  1.
</event>
<event>
 7    1  0.6857839E-013  0.5052889E+02  0.7816164E-02  0.1300439E+00
        -11   -1    0    0    0    0  0.00000000000E+00  0.00000000000E+00  0.45593999997E+02  0.45594000000E+02  0.51100000000E-03 0.  1.
         11   -1    0    0    0    0 -0.00000000000E+00 -0.00000000000E+00 -0.45593999997E+02  0.45594000000E+02  0.51100000000E-03 0. -1.
    9900012    2    1    2    0    0 -0.28992769269E+01  0.37119684591E+02 -0.16336667188E+02  0.50528886807E+02  0.30000081938E+02 0.  0.
        -12    1    1    2    0    0  0.28992769269E+01 -0.37119684591E+02  0.16336667188E+02  0.40659113193E+02  0.00000000000E+00 0.  1.
         11    1    3    3    0    0 -0.25070826621E+00 -0.23237396678E+01 -0.18398125750E+01  0.29744799967E+01  0.51100000000E-03 0. -1.
        -11    1    3    3    0    0  0.15199306901E+01  0.37874365417E+01 -0.10704220035E+02  0.11455792931E+02  0.51100000000E-03 0.  1.
         12    1    3    3    0    0 -0.41684993509E+01  0.35655987717E+02 -0.37926345775E+01  0.36098613879E+02  0.00000000000E+00 0. -1.
</event>
<event>
 7    1  0.6857839E-013  0.5052886E+02  0.7816164E-02  0.1300439E+00
        -11   -1    0    0    0    0  0.00000000000E+00  0.00000000000E+00  0.45593999997E+02  0.45594000000E+02  0.51100000000E-03 0.  1.
         11   -1    0    0    0    0 -0.00000000000E+00 -0.00000000000E+00 -0.45593999997E+02  0.45594000000E+02  0.51100000000E-03 0. -1.
    9900012    2    1    2    0    0 -0.27828310905E+02  0.21213967124E+02 -0.20705521187E+02  0.50528857158E+02  0.29999991819E+02 0.  0.
        -12    1    1    2    0    0  0.27828310905E+02 -0.21213967124E+02  0.20705521187E+02  0.40659142842E+02  0.00000000000E+00 0.  1.
         11    1    3    3    0    0 -0.15434947003E+02  0.20811104576E+02 -0.89203945572E+01  0.27402793689E+02  0.51100000000E-03 0. -1.
        -11    1    3    3    0    0 -0.72622590893E+01 -0.14091252066E+01  0.25245754523E+01  0.78166183483E+01  0.51100000000E-03 0.  1.
        -12    1    3    3    0    0 -0.51311048130E+01  0.18119877549E+01 -0.14309702082E+02  0.15309445121E+02  0.00000000000E+00 0.  1.
</event>
<event>
 7    1  0.6857839E-013  0.5052886E+02  0.7816164E-02  0.1300439E+00
        -11   -1    0    0    0    0  0.00000000000E+00  0.00000000000E+00  0.45593999997E+02  0.45594000000E+02  0.51100000000E-03 0.  1.
         11   -1    0    0    0    0 -0.00000000000E+00 -0.00000000000E+00 -0.45593999997E+02  0.45594000000E+02  0.51100000000E-03 0. -1.
    9900012    2    1    2    0    0 -0.19275234128E+02 -0.16598698692E+02 -0.31719307379E+02  0.50528856999E+02  0.29999991335E+02 0.  0.
        -12    1    1    2    0    0  0.19275234128E+02  0.16598698692E+02  0.31719307379E+02  0.40659143001E+02  0.00000000000E+00 0.  1.
         11    1    3    3    0    0  0.71375948713E+00 -0.70330039643E+01 -0.58957484412E+01  0.92050229392E+01  0.51100000000E-03 0. -1.
        -11    1    3    3    0    0 -0.24035940369E+02 -0.12218771213E+02 -0.24168136356E+02  0.36209440959E+02  0.51100000000E-03 0.  1.
         12    1    3    3    0    0  0.40469467539E+01  0.26530764856E+01 -0.16554225821E+01  0.51143931011E+01  0.00000000000E+00 0. -1.
</event>
<event>
 7    1  0.6857839E-013  0.5052885E+02  0.7816164E-02  0.1300439E+00
        -11   -1    0    0    0    0  0.00000000000E+00  0.00000000000E+00  0.45593999997E+02  0.45594000000E+02  0.51100000000E-03 0.  1.
         11   -1    0    0    0    0 -0.00000000000E+00 -0.00000000000E+00 -0.45593999997E+02  0.45594000000E+02  0.51100000000E-03 0. -1.
    9900012    2    1    2    0    0  0.14682703257E+02  0.89851743900E+01 -0.36835463361E+02  0.50528849802E+02  0.29999969459E+02 0.  0.
        -12    1    1    2    0    0 -0.14682703257E+02 -0.89851743900E+01  0.36835463361E+02  0.40659150198E+02  0.00000000000E+00 0.  1.
         11    1    3    3    0    0  0.72759393222E+01 -0.28451032054E+01 -0.29561478593E+02  0.30576378499E+02  0.51100000000E-03 0. -1.
        -11    1    3    3    0    0 -0.32042537576E+01  0.11427436838E+01 -0.49906866536E+00  0.34383389978E+01  0.51100000000E-03 0.  1.
        -12    1    3    3    0    0  0.10611017693E+02  0.10687533912E+02 -0.67749161031E+01  0.16514132305E+02  0.00000000000E+00 0.  1.
</event>
<event>
 7    1  0.6857839E-013  0.5052886E+02  0.7816164E-02  0.1300439E+00
        -11   -1    0    0    0    0  0.00000000000E+00  0.00000000000E+00  0.45593999997E+02  0.45594000000E+02  0.51100000000E-03 0.  1.
         11   -1    0    0    0    0 -0.00000000000E+00 -0.00000000000E+00 -0.45593999997E+02  0.45594000000E+02  0.51100000000E-03 0. -1.
    9900012    2    1    2    0    0  0.22689944254E+02 -0.33710111278E+02  0.14002618603E+01  0.50528857044E+02  0.29999991472E+02 0.  0.
        -12    1    1    2    0    0 -0.22689944254E+02  0.33710111278E+02 -0.14002618603E+01  0.40659142956E+02  0.00000000000E+00 0.  1.
         11    1    3    3    0    0 -0.65114569914E+01 -0.43911208429E+01 -0.38173026822E+01  0.87322857510E+01  0.51100000000E-03 0.  1.
        -11    1    3    3    0    0  0.78443209907E+01 -0.94304003707E+01  0.21317494548E+01  0.12450308388E+02  0.51100000000E-03 0. -1.
        -12    1    3    3    0    0  0.21357080255E+02 -0.19888590064E+02  0.30858150878E+01  0.29346262905E+02  0.00000000000E+00 0.  1.
</event>
<event>
 7    1  0.6857839E-013  0.5052887E+02  0.7816164E-02  0.1300439E+00
        -11   -1    0    0    0    0  0.00000000000E+00  0.00000000000E+00  0.45593999997E+02  0.45594000000E+02  0.51100000000E-03 0.  1.
         11   -1    0    0    0    0 -0.00000000000E+00 -0.00000000000E+00 -0.45593999997E+02  0.45594000000E+02  0.51100000000E-03 0. -1.
    9900012    2    1    2    0    0  0.28540260555E+02  0.38329419854E+00 -0.28956371122E+02  0.50528870452E+02  0.30000032227E+02 0.  0.
        -12    1    1    2    0    0 -0.28540260555E+02 -0.38329419854E+00  0.28956371122E+02  0.40659129548E+02  0.00000000000E+00 0.  1.
         11    1    3    3    0    0  0.19665292902E+02 -0.34044924592E+01 -0.75310083469E+01  0.21331441602E+02  0.51100000000E-03 0. -1.
        -11    1    3    3    0    0  0.69895195865E+01 -0.63925938294E+01 -0.10697970054E+02  0.14288638964E+02  0.51100000000E-03 0.  1.
        -12    1    3    3    0    0  0.18854480672E+01  0.10180380487E+02 -0.10727392721E+02  0.14908789886E+02  0.00000000000E+00 0.  1.
</event>
<event>
 7    1  0.6857839E-013  0.5052886E+02  0.7816164E-02  0.1300439E+00
        -11   -1    0    0    0    0  0.00000000000E+00  0.00000000000E+00  0.45593999997E+02  0.45594000000E+02  0.51100000000E-03 0.  1.
         11   -1    0    0    0    0 -0.00000000000E+00 -0.00000000000E+00 -0.45593999997E+02  0.45594000000E+02  0.51100000000E-03 0. -1.
    9900012    2    1    2    0    0  0.48130816662E+01 -0.24968835001E+02 -0.31726283826E+02  0.50528861275E+02  0.30000004332E+02 0.  0.
        -12    1    1    2    0    0 -0.48130816662E+01  0.24968835001E+02  0.31726283826E+02  0.40659138725E+02  0.00000000000E+00 0.  1.
         11    1    3    3    0    0  0.13045025346E+01 -0.84028997127E+01 -0.10399193442E+02  0.13433304692E+02  0.51100000000E-03 0. -1.
        -11    1    3    3    0    0  0.14348474674E+02 -0.94019196255E+01 -0.14242716842E+02  0.22296407815E+02  0.51100000000E-03 0.  1.
         12    1    3    3    0    0 -0.10839895543E+02 -0.71640156629E+01 -0.70843735422E+01  0.14799148769E+02  0.00000000000E+00 0. -1.
</event>
<event>
 7    1  0.6857839E-013  0.5052886E+02  0.7816164E-02  0.1300439E+00
        -11   -1    0    0    0    0  0.00000000000E+00  0.00000000000E+00  0.45593999997E+02  0.45594000000E+02  0.51100000000E-03 0.  1.
         11   -1    0    0    0    0 -0.00000000000E+00 -0.00000000000E+00 -0.45593999997E+02  0.45594000000E+02  0.51100000000E-03 0. -1.
    9900012    2    1    2    0    0 -0.14777614241E+02  0.90522508221E+01 -0.36781036428E+02  0.50528858737E+02  0.29999996616E+02 0.  0.
        -12    1    1    2    0    0  0.14777614241E+02 -0.90522508221E+01  0.36781036428E+02  0.40659141263E+02  0.00000000000E+00 0.  1.
         11    1    3    3    0    0 -0.12963970033E+02 -0.85842639029E+01 -0.18917015637E+02  0.24486886013E+02  0.51100000000E-03 0. -1.
        -11    1    3    3    0    0 -0.81006075634E+00  0.34093336512E+00 -0.32810506080E+01  0.33967230299E+01  0.51100000000E-03 0.  1.
        -12    1    3    3    0    0 -0.10035834514E+01  0.17295581360E+02 -0.14582970183E+02  0.22645249693E+02  0.00000000000E+00 0.  1.
</event>
<event>
 7    1  0.6857839E-013  0.5052886E+02  0.7816164E-02  0.1300439E+00
        -11   -1    0    0    0    0  0.00000000000E+00  0.00000000000E+00  0.45593999997E+02  0.45594000000E+02  0.51100000000E-03 0. -1.
         11   -1    0    0    0    0 -0.00000000000E+00 -0.00000000000E+00 -0.45593999997E+02  0.45594000000E+02  0.51100000000E-03 0.  1.
    9900012    2    1    2    0    0 -0.29637560725E+00  0.20615211543E+02  0.35044128623E+02  0.50528859128E+02  0.29999997806E+02 0.  0.
        -12    1    1    2    0    0  0.29637560725E+00 -0.20615211543E+02 -0.35044128623E+02  0.40659140872E+02  0.00000000000E+00 0.  1.
         11    1    3    3    0    0  0.55238776770E+01  0.14665049917E+02  0.15715149917E+02  0.22193306442E+02  0.51100000000E-03 0.  1.
        -11    1    3    3    0    0 -0.16988762803E+01  0.45174357616E+01 -0.29345713479E+01  0.56484613598E+01  0.51100000000E-03 0. -1.
         12    1    3    3    0    0 -0.41213770040E+01  0.14327258638E+01  0.22263550055E+02  0.22687091326E+02  0.00000000000E+00 0. -1.
</event>
<event>
 7    1  0.6857839E-013  0.5052885E+02  0.7816164E-02  0.1300439E+00
        -11   -1    0    0    0    0  0.00000000000E+00  0.00000000000E+00  0.45593999997E+02  0.45594000000E+02  0.51100000000E-03 0. -1.
         11   -1    0    0    0    0 -0.00000000000E+00 -0.00000000000E+00 -0.45593999997E+02  0.45594000000E+02  0.51100000000E-03 0.  1.
    9900012    2    1    2    0    0 -0.13189666380E+02  0.25318087400E+02  0.28951567003E+02  0.50528854895E+02  0.29999984938E+02 0.  0.
        -12    1    1    2    0    0  0.13189666380E+02 -0.25318087400E+02 -0.28951567003E+02  0.40659145105E+02  0.00000000000E+00 0.  1.
         11    1    3    3    0    0 -0.11109148104E+02  0.26584502365E+02  0.20292434768E+02  0.35241053427E+02  0.51100000000E-03 0. -1.
        -11    1    3    3    0    0  0.27373087033E+01  0.43368060847E+01  0.27064700879E+01  0.57987693997E+01  0.51100000000E-03 0.  1.
         12    1    3    3    0    0 -0.48178269793E+01 -0.56032210505E+01  0.59526621473E+01  0.94890320678E+01  0.00000000000E+00 0. -1.
</event>
<event>
 7    1  0.6857839E-013  0.5052885E+02  0.7816164E-02  0.1300439E+00
        -11   -1    0    0    0    0  0.00000000000E+00  0.00000000000E+00  0.45593999997E+02  0.45594000000E+02  0.51100000000E-03 0. -1.
         11   -1    0    0    0    0 -0.00000000000E+00 -0.00000000000E+00 -0.45593999997E+02  0.45594000000E+02  0.51100000000E-03 0.  1.
    9900012    2    1    2    0    0  0.21637965314E+02  0.33584317142E+02  0.75537076202E+01  0.50528850973E+02  0.29999973017E+02 0.  0.
        -12    1    1    2    0    0 -0.21637965314E+02 -0.33584317142E+02 -0.75537076202E+01  0.40659149027E+02  0.00000000000E+00 0.  1.
         11    1    3    3    0    0  0.10893919741E+02  0.28601339555E+01  0.89921347376E+01  0.14412367639E+02  0.51100000000E-03 0. -1.
        -11    1    3    3    0    0 -0.17423577140E+01  0.10550254016E+02 -0.55337096770E+01  0.12040166663E+02  0.51100000000E-03 0.  1.
         12    1    3    3    0    0  0.12486403287E+02  0.20173929170E+02  0.40952825596E+01  0.24076316671E+02  0.00000000000E+00 0. -1.
</event>
<event>
 7    1  0.6857839E-013  0.5052885E+02  0.7816164E-02  0.1300439E+00
        -11   -1    0    0    0    0  0.00000000000E+00  0.00000000000E+00  0.45593999997E+02  0.45594000000E+02  0.51100000000E-03 0. -1.
         11   -1    0    0    0    0 -0.00000000000E+00 -0.00000000000E+00 -0.45593999997E+02  0.45594000000E+02  0.51100000000E-03 0.  1.
    9900012    2    1    2    0    0 -0.29689676629E+02 -0.22293959858E+02  0.16573149239E+02  0.50528845801E+02  0.29999957296E+02 0.  0.
        -12    1    1    2    0    0  0.29689676629E+02  0.22293959858E+02 -0.16573149239E+02  0.40659154199E+02  0.00000000000E+00 0.  1.
         11    1    3    3    0    0 -0.77603010499E+01  0.57430350469E+01  0.23198546468E+01  0.99290709424E+01  0.51100000000E-03 0.  1.
        -11    1    3    3    0    0 -0.12474498332E+02 -0.15429744076E+02  0.14922535063E+02  0.24826843614E+02  0.51100000000E-03 0. -1.
        -12    1    3    3    0    0 -0.94548772467E+01 -0.12607250829E+02 -0.66924047038E+00  0.15772931244E+02  0.00000000000E+00 0.  1.
</event>
<event>
 7    1  0.6857839E-013  0.5052886E+02  0.7816164E-02  0.1300439E+00
        -11   -1    0    0    0    0  0.00000000000E+00  0.00000000000E+00  0.45593999997E+02  0.45594000000E+02  0.51100000000E-03 0. -1.
         11   -1    0    0    0    0 -0.00000000000E+00 -0.00000000000E+00 -0.45593999997E+02  0.45594000000E+02  0.51100000000E-03 0.  1.
    9900012    2    1    2    0    0  0.32253830668E+02  0.23135873327E+02 -0.88083589841E+01  0.50528863076E+02  0.30000009807E+02 0.  0.
        -12    1    1    2    0    0 -0.32253830668E+02 -0.23135873327E+02  0.88083589841E+01  0.40659136924E+02  0.00000000000E+00 0.  1.
         11    1    3    3    0    0  0.32236066935E+02  0.22767181847E+02 -0.64921872657E+01  0.39995713226E+02  0.51100000000E-03 0. -1.
        -11    1    3    3    0    0  0.17701868321E+01 -0.35987726782E+01  0.19411134080E+01  0.44556310141E+01  0.51100000000E-03 0.  1.
        -12    1    3    3    0    0 -0.17524230986E+01  0.39674641577E+01 -0.42572851263E+01  0.60775188363E+01  0.00000000000E+00 0.  1.
</event>
<event>
 7    1  0.6857839E-013  0.5052886E+02  0.7816164E-02  0.1300439E+00
        -11   -1    0    0    0    0  0.00000000000E+00  0.00000000000E+00  0.45593999997E+02  0.45594000000E+02  0.51100000000E-03 0.  1.
         11   -1    0    0    0    0 -0.00000000000E+00 -0.00000000000E+00 -0.45593999997E+02  0.45594000000E+02  0.51100000000E-03 0. -1.
    9900012    2    1    2    0    0 -0.19573645549E+01 -0.29353356718E+02 -0.28066258429E+02  0.50528859714E+02  0.29999999586E+02 0.  0.
        -12    1    1    2    0    0  0.19573645549E+01  0.29353356718E+02  0.28066258429E+02  0.40659140286E+02  0.00000000000E+00 0.  1.
         11    1    3    3    0    0 -0.63945886349E+01 -0.11618697505E+02 -0.15194829063E+02  0.20168483484E+02  0.51100000000E-03 0. -1.
        -11    1    3    3    0    0  0.76519652412E+00 -0.21903085078E+02 -0.97383393740E+01  0.23982616948E+02  0.51100000000E-03 0.  1.
         12    1    3    3    0    0  0.36720275559E+01  0.41684258647E+01 -0.31330899916E+01  0.63777592817E+01  0.00000000000E+00 0. -1.
</event>
<event>
 7    1  0.6857839E-013  0.5052887E+02  0.7816164E-02  0.1300439E+00
        -11   -1    0    0    0    0  0.00000000000E+00  0.00000000000E+00  0.45593999997E+02  0.45594000000E+02  0.51100000000E-03 0.  1.
         11   -1    0    0    0    0 -0.00000000000E+00 -0.00000000000E+00 -0.45593999997E+02  0.45594000000E+02  0.51100000000E-03 0. -1.
    9900012    2    1    2    0    0 -0.18783000854E+02 -0.31308492841E+02 -0.17892523187E+02  0.50528865343E+02  0.30000016697E+02 0.  0.
        -12    1    1    2    0    0  0.18783000854E+02  0.31308492841E+02  0.17892523187E+02  0.40659134657E+02  0.00000000000E+00 0.  1.
         11    1    3    3    0    0 -0.10029548012E+02 -0.24420832520E+02 -0.14008304288E+02  0.29886476600E+02  0.51100000000E-03 0. -1.
        -11    1    3    3    0    0 -0.64533867864E+01  0.96443475276E+00 -0.89072460733E+01  0.11041529255E+02  0.51100000000E-03 0.  1.
        -12    1    3    3    0    0 -0.23000660552E+01 -0.78520950744E+01  0.50230271747E+01  0.96008594883E+01  0.00000000000E+00 0.  1.
</event>
<event>
 7    1  0.6857839E-013  0.5052887E+02  0.7816164E-02  0.1300439E+00
        -11   -1    0    0    0    0  0.00000000000E+00  0.00000000000E+00  0.45593999997E+02  0.45594000000E+02  0.51100000000E-03 0.  1.
         11   -1    0    0    0    0 -0.00000000000E+00 -0.00000000000E+00 -0.45593999997E+02  0.45594000000E+02  0.51100000000E-03 0. -1.
    9900012    2    1    2    0    0 -0.36555854139E+02 -0.16353373848E+02 -0.70286284760E+01  0.50528869091E+02  0.30000028088E+02 0.  0.
        -12    1    1    2    0    0  0.36555854139E+02  0.16353373848E+02  0.70286284760E+01  0.40659130909E+02  0.00000000000E+00 0.  1.
         11    1    3    3    0    0 -0.11785624868E+02 -0.30087551431E+01 -0.23523834733E+01  0.12388997914E+02  0.51100000000E-03 0. -1.
        -11    1    3    3    0    0 -0.10417564089E+02 -0.10128827142E+02 -0.14440578645E+02  0.20485338481E+02  0.51100000000E-03 0.  1.
        -12    1    3    3    0    0 -0.14352665183E+02 -0.32157915623E+01  0.97643336425E+01  0.17654532696E+02  0.00000000000E+00 0.  1.
</event>
<event>
 7    1  0.6857839E-013  0.5052887E+02  0.7816164E-02  0.1300439E+00
        -11   -1    0    0    0    0  0.00000000000E+00  0.00000000000E+00  0.45593999997E+02  0.45594000000E+02  0.51100000000E-03 0.  1.
         11   -1    0    0    0    0 -0.00000000000E+00 -0.00000000000E+00 -0.45593999997E+02  0.45594000000E+02  0.51100000000E-03 0. -1.
    9900012    2    1    2    0    0 -0.40576824995E+02 -0.25676344682E+01 -0.30577996275E+00  0.50528868494E+02  0.30000026276E+02 0.  0.
        -12    1    1    2    0    0  0.40576824995E+02  0.25676344682E+01  0.30577996275E+00  0.40659131506E+02  0.00000000000E+00 0.  1.
         11    1    3    3    0    0 -0.18185917939E+01  0.19759007409E+01 -0.75372803183E+01  0.80013783005E+01  0.51100000000E-03 0. -1.
        -11    1    3    3    0    0 -0.58643534988E+01  0.48902636045E+01  0.21469190731E+01  0.79318712703E+01  0.51100000000E-03 0.  1.
         12    1    3    3    0    0 -0.32893879702E+02 -0.94337988136E+01  0.50845812824E+01  0.34595618924E+02  0.00000000000E+00 0. -1.
</event>
<event>
 7    1  0.6857839E-013  0.5052886E+02  0.7816164E-02  0.1300439E+00
        -11   -1    0    0    0    0  0.00000000000E+00  0.00000000000E+00  0.45593999997E+02  0.45594000000E+02  0.51100000000E-03 0.  1.
         11   -1    0    0    0    0 -0.00000000000E+00 -0.00000000000E+00 -0.45593999997E+02  0.45594000000E+02  0.51100000000E-03 0. -1.
    9900012    2    1    2    0    0 -0.31371831967E+02 -0.11206769824E+02 -0.23310555164E+02  0.50528861877E+02  0.30000006161E+02 0.  0.
        -12    1    1    2    0    0  0.31371831967E+02  0.11206769824E+02  0.23310555164E+02  0.40659138123E+02  0.00000000000E+00 0.  1.
         11    1    3    3    0    0 -0.26761590884E+02 -0.15617959876E+02 -0.22444700717E+02  0.38260528066E+02  0.51100000000E-03 0. -1.
        -11    1    3    3    0    0 -0.63065478510E+01  0.32986697042E+01  0.31392940236E+01  0.77787489252E+01  0.51100000000E-03 0.  1.
        -12    1    3    3    0    0  0.16963067676E+01  0.11125203486E+01 -0.40051484706E+01  0.44895848859E+01  0.00000000000E+00 0.  1.
</event>
<event>
 7    1  0.6857839E-013  0.5052886E+02  0.7816164E-02  0.1300439E+00
        -11   -1    0    0    0    0  0.00000000000E+00  0.00000000000E+00  0.45593999997E+02  0.45594000000E+02  0.51100000000E-03 0.  1.
         11   -1    0    0    0    0 -0.00000000000E+00 -0.00000000000E+00 -0.45593999997E+02  0.45594000000E+02  0.51100000000E-03 0. -1.
    9900012    2    1    2    0    0  0.27003896384E+02 -0.29004920293E+02 -0.90923160943E+01  0.50528855480E+02  0.29999986718E+02 0.  0.
        -12    1    1    2    0    0 -0.27003896384E+02  0.29004920293E+02  0.90923160943E+01  0.40659144520E+02  0.00000000000E+00 0.  1.
         11    1    3    3    0    0 -0.17205416309E+01 -0.49385058166E+01 -0.34212892472E+01  0.62493458520E+01  0.51100000000E-03 0. -1.
        -11    1    3    3    0    0  0.19059676740E+01  0.37161362811E+01  0.24190077753E+01  0.48263837924E+01  0.51100000000E-03 0.  1.
         12    1    3    3    0    0  0.26818470341E+02 -0.27782550758E+02 -0.80900346224E+01  0.39453125836E+02  0.00000000000E+00 0. -1.
</event>
<event>
 7    1  0.6857839E-013  0.5052885E+02  0.7816164E-02  0.1300439E+00
        -11   -1    0    0    0    0  0.00000000000E+00  0.00000000000E+00  0.45593999997E+02  0.45594000000E+02  0.51100000000E-03 0. -1.
         11   -1    0    0    0    0 -0.00000000000E+00 -0.00000000000E+00 -0.45593999997E+02  0.45594000000E+02  0.51100000000E-03 0.  1.
    9900012    2    1    2    0    0  0.14287614477E+02  0.35915403779E+02  0.12614042691E+02  0.50528853071E+02  0.29999979393E+02 0.  0.
        -12    1    1    2    0    0 -0.14287614477E+02 -0.35915403779E+02 -0.12614042691E+02  0.40659146929E+02  0.00000000000E+00 0.  1.
         11    1    3    3    0    0 -0.70458066631E+01  0.72079982047E+01  0.88732846614E+01  0.13428842489E+02  0.51100000000E-03 0.  1.
        -11    1    3    3    0    0  0.54498680587E+01  0.14680033653E+02  0.26447744073E+01  0.15880783414E+02  0.51100000000E-03 0. -1.
        -12    1    3    3    0    0  0.15883553081E+02  0.14027371921E+02  0.10959836220E+01  0.21219227168E+02  0.00000000000E+00 0.  1.
</event>
<event>
 7    1  0.6857839E-013  0.5052886E+02  0.7816164E-02  0.1300439E+00
        -11   -1    0    0    0    0  0.00000000000E+00  0.00000000000E+00  0.45593999997E+02  0.45594000000E+02  0.51100000000E-03 0.  1.
         11   -1    0    0    0    0 -0.00000000000E+00 -0.00000000000E+00 -0.45593999997E+02  0.45594000000E+02  0.51100000000E-03 0. -1.
    9900012    2    1    2    0    0  0.34912652143E+02 -0.75503254211E+01 -0.19423313049E+02  0.50528858550E+02  0.29999996049E+02 0.  0.
        -12    1    1    2    0    0 -0.34912652143E+02  0.75503254211E+01  0.19423313049E+02  0.40659141450E+02  0.00000000000E+00 0.  1.
         11    1    3    3    0    0  0.73303020996E+01 -0.57350693567E+01  0.35160459327E+01  0.99492174898E+01  0.51100000000E-03 0. -1.
        -11    1    3    3    0    0  0.15882025780E+02  0.32335036409E+01 -0.23662950294E+01  0.16379671581E+02  0.51100000000E-03 0.  1.
         12    1    3    3    0    0  0.11700324264E+02 -0.50487597053E+01 -0.20573063952E+02  0.24199969480E+02  0.00000000000E+00 0. -1.
</event>
<event>
 7    1  0.6857839E-013  0.5052886E+02  0.7816164E-02  0.1300439E+00
        -11   -1    0    0    0    0  0.00000000000E+00  0.00000000000E+00  0.45593999997E+02  0.45594000000E+02  0.51100000000E-03 0. -1.
         11   -1    0    0    0    0 -0.00000000000E+00 -0.00000000000E+00 -0.45593999997E+02  0.45594000000E+02  0.51100000000E-03 0.  1.
    9900012    2    1    2    0    0 -0.26898301532E+02 -0.16405146176E+02  0.25700552686E+02  0.50528857674E+02  0.29999993385E+02 0.  0.
        -12    1    1    2    0    0  0.26898301532E+02  0.16405146176E+02 -0.25700552686E+02  0.40659142326E+02  0.00000000000E+00 0.  1.
         11    1    3    3    0    0 -0.85503918873E+00 -0.95119152320E+01  0.65967519943E+01  0.11607099574E+02  0.51100000000E-03 0. -1.
        -11    1    3    3    0    0 -0.16922958851E+02 -0.13829073465E+02  0.89649909575E+01  0.23622042086E+02  0.51100000000E-03 0.  1.
         12    1    3    3    0    0 -0.91203034915E+01  0.69358425210E+01  0.10138809734E+02  0.15299716013E+02  0.00000000000E+00 0. -1.
</event>
<event>
 7    1  0.6857839E-013  0.5052886E+02  0.7816164E-02  0.1300439E+00
        -11   -1    0    0    0    0  0.00000000000E+00  0.00000000000E+00  0.45593999997E+02  0.45594000000E+02  0.51100000000E-03 0.  1.
         11   -1    0    0    0    0 -0.00000000000E+00 -0.00000000000E+00 -0.45593999997E+02  0.45594000000E+02  0.51100000000E-03 0. -1.
    9900012    2    1    2    0    0 -0.28688301894E+02  0.11441972918E+02 -0.26442922198E+02  0.50528861492E+02  0.30000004992E+02 0.  0.
        -12    1    1    2    0    0  0.28688301894E+02 -0.11441972918E+02  0.26442922198E+02  0.40659138508E+02  0.00000000000E+00 0.  1.
         11    1    3    3    0    0 -0.18571814864E+01 -0.55085106699E+01  0.18609000889E+01  0.61037498536E+01  0.51100000000E-03 0.  1.
        -11    1    3    3    0    0 -0.81149005381E+01  0.44949956765E+01 -0.14280466292E+01  0.93859423774E+01  0.51100000000E-03 0. -1.
        -12    1    3    3    0    0 -0.18716219870E+02  0.12455487911E+02 -0.26875775658E+02  0.35039169261E+02  0.00000000000E+00 0.  1.
</event>
<event>
 7    1  0.6857839E-013  0.5052885E+02  0.7816164E-02  0.1300439E+00
        -11   -1    0    0    0    0  0.00000000000E+00  0.00000000000E+00  0.45593999997E+02  0.45594000000E+02  0.51100000000E-03 0. -1.
         11   -1    0    0    0    0 -0.00000000000E+00 -0.00000000000E+00 -0.45593999997E+02  0.45594000000E+02  0.51100000000E-03 0.  1.
    9900012    2    1    2    0    0 -0.38796211233E+02 -0.12165516467E+02 -0.14372826489E+00  0.50528850295E+02  0.29999970957E+02 0.  0.
        -12    1    1    2    0    0  0.38796211233E+02  0.12165516467E+02  0.14372826489E+00  0.40659149705E+02  0.00000000000E+00 0.  1.
         11    1    3    3    0    0 -0.11387517104E+02 -0.78044678109E+01  0.43778267349E+01  0.14482770135E+02  0.51100000000E-03 0. -1.
        -11    1    3    3    0    0 -0.17604005010E+02 -0.85012656772E+01  0.66184206984E+01  0.20639186110E+02  0.51100000000E-03 0.  1.
        -12    1    3    3    0    0 -0.98046891194E+01  0.41402170212E+01 -0.11139975698E+02  0.15406894050E+02  0.00000000000E+00 0.  1.
</event>
<event>
 7    1  0.6857839E-013  0.5052886E+02  0.7816164E-02  0.1300439E+00
        -11   -1    0    0    0    0  0.00000000000E+00  0.00000000000E+00  0.45593999997E+02  0.45594000000E+02  0.51100000000E-03 0.  1.
         11   -1    0    0    0    0 -0.00000000000E+00 -0.00000000000E+00 -0.45593999997E+02  0.45594000000E+02  0.51100000000E-03 0. -1.
    9900012    2    1    2    0    0 -0.21664907698E+02 -0.28516440860E+02 -0.19251230149E+02  0.50528862194E+02  0.30000007125E+02 0.  0.
        -12    1    1    2    0    0  0.21664907698E+02  0.28516440860E+02  0.19251230149E+02  0.40659137806E+02  0.00000000000E+00 0.  1.
         11    1    3    3    0    0 -0.39929553552E+01 -0.22887079318E+02 -0.14632116136E+02  0.27456527731E+02  0.51100000000E-03 0. -1.
        -11    1    3    3    0    0  0.40077660788E+00 -0.31546216084E+01 -0.35987765754E+01  0.48024423455E+01  0.51100000000E-03 0.  1.
        -12    1    3    3    0    0 -0.18072728951E+02 -0.24747399332E+01 -0.10203374372E+01  0.18269892117E+02  0.00000000000E+00 0.  1.
</event>
<event>
 7    1  0.6857839E-013  0.5052886E+02  0.7816164E-02  0.1300439E+00
        -11   -1    0    0    0    0  0.00000000000E+00  0.00000000000E+00  0.45593999997E+02  0.45594000000E+02  0.51100000000E-03 0.  1.
         11   -1    0    0    0    0 -0.00000000000E+00 -0.00000000000E+00 -0.45593999997E+02  0.45594000000E+02  0.51100000000E-03 0. -1.
    9900012    2    1    2    0    0  0.34832293217E+02 -0.12673092571E+02 -0.16711369539E+02  0.50528858372E+02  0.29999995507E+02 0.  0.
        -12    1    1    2    0    0 -0.34832293217E+02  0.12673092571E+02  0.16711369539E+02  0.40659141628E+02  0.00000000000E+00 0.  1.
         11    1    3    3    0    0  0.30432110727E+02 -0.10850567668E+02 -0.10351789097E+02  0.33926504680E+02  0.51100000000E-03 0. -1.
        -11    1    3    3    0    0  0.54026378941E+01 -0.48521387074E+01  0.21013834328E+01  0.75596004421E+01  0.51100000000E-03 0.  1.
         12    1    3    3    0    0 -0.10024554040E+01  0.30296138046E+01 -0.84609638752E+01  0.90427532499E+01  0.00000000000E+00 0. -1.
</event>
<event>
 7    1  0.6857839E-013  0.5052886E+02  0.7816164E-02  0.1300439E+00
        -11   -1    0    0    0    0  0.00000000000E+00  0.00000000000E+00  0.45593999997E+02  0.45594000000E+02  0.51100000000E-03 0.  1.
         11   -1    0    0    0    0 -0.00000000000E+00 -0.00000000000E+00 -0.45593999997E+02  0.45594000000E+02  0.51100000000E-03 0. -1.
    9900012    2    1    2    0    0  0.14815438618E+02 -0.12234132059E+02 -0.35832866733E+02  0.50528861458E+02  0.30000004888E+02 0.  0.
        -12    1    1    2    0    0 -0.14815438618E+02  0.12234132059E+02  0.35832866733E+02  0.40659138542E+02  0.00000000000E+00 0.  1.
         11    1    3    3    0    0 -0.30727559225E+01 -0.23297488056E+01 -0.21167980963E+01  0.43989081484E+01  0.51100000000E-03 0. -1.
        -11    1    3    3    0    0 -0.30077480873E+01  0.33221580472E+01 -0.21077939849E+00  0.44863917421E+01  0.51100000000E-03 0.  1.
        -12    1    3    3    0    0  0.20895942628E+02 -0.13226541301E+02 -0.33505289238E+02  0.41643561567E+02  0.00000000000E+00 0.  1.
</event>
<event>
 7    1  0.6857839E-013  0.5052886E+02  0.7816164E-02  0.1300439E+00
        -11   -1    0    0    0    0  0.00000000000E+00  0.00000000000E+00  0.45593999997E+02  0.45594000000E+02  0.51100000000E-03 0.  1.
         11   -1    0    0    0    0 -0.00000000000E+00 -0.00000000000E+00 -0.45593999997E+02  0.45594000000E+02  0.51100000000E-03 0. -1.
    9900012    2    1    2    0    0  0.18793278911E+02  0.22859071965E+02 -0.27882630630E+02  0.50528860877E+02  0.30000003122E+02 0.  0.
        -12    1    1    2    0    0 -0.18793278911E+02 -0.22859071965E+02  0.27882630630E+02  0.40659139123E+02  0.00000000000E+00 0.  1.
         11    1    3    3    0    0  0.45378483348E+01  0.38216528955E+01 -0.43420723311E+01  0.73519174882E+01  0.51100000000E-03 0. -1.
        -11    1    3    3    0    0  0.19633077376E+02  0.49077699758E+01 -0.17972625705E+02  0.27065831013E+02  0.51100000000E-03 0.  1.
        -12    1    3    3    0    0 -0.53776467999E+01  0.14129649094E+02 -0.55679325936E+01  0.16111112376E+02  0.00000000000E+00 0.  1.
</event>
<event>
 7    1  0.6857839E-013  0.5052888E+02  0.7816164E-02  0.1300439E+00
        -11   -1    0    0    0    0  0.00000000000E+00  0.00000000000E+00  0.45593999997E+02  0.45594000000E+02  0.51100000000E-03 0.  1.
         11   -1    0    0    0    0 -0.00000000000E+00 -0.00000000000E+00 -0.45593999997E+02  0.45594000000E+02  0.51100000000E-03 0. -1.
    9900012    2    1    2    0    0  0.38939611118E+01  0.36350322599E+02 -0.17794818168E+02  0.50528875073E+02  0.30000046273E+02 0.  0.
        -12    1    1    2    0    0 -0.38939611118E+01 -0.36350322599E+02  0.17794818168E+02  0.40659124927E+02  0.00000000000E+00 0.  1.
         11    1    3    3    0    0  0.32742013321E+01 -0.16808159454E+01 -0.77319766779E+01  0.85632353824E+01  0.51100000000E-03 0.  1.
        -11    1    3    3    0    0 -0.48733700684E+01  0.49903464303E+01  0.58708316209E-01  0.69754383550E+01  0.51100000000E-03 0. -1.
         12    1    3    3    0    0  0.54931298481E+01  0.33040792114E+02 -0.10121549806E+02  0.34990201336E+02  0.00000000000E+00 0. -1.
</event>
<event>
 7    1  0.6857839E-013  0.5052886E+02  0.7816164E-02  0.1300439E+00
        -11   -1    0    0    0    0  0.00000000000E+00  0.00000000000E+00  0.45593999997E+02  0.45594000000E+02  0.51100000000E-03 0. -1.
         11   -1    0    0    0    0 -0.00000000000E+00 -0.00000000000E+00 -0.45593999997E+02  0.45594000000E+02  0.51100000000E-03 0.  1.
    9900012    2    1    2    0    0  0.37347274984E+02  0.69647182410E+01  0.14485822914E+02  0.50528864318E+02  0.30000013580E+02 0.  0.
        -12    1    1    2    0    0 -0.37347274984E+02 -0.69647182410E+01 -0.14485822914E+02  0.40659135682E+02  0.00000000000E+00 0.  1.
         11    1    3    3    0    0  0.14584597826E+02  0.13787092208E+02  0.86720922079E+01  0.21863201705E+02  0.51100000000E-03 0. -1.
        -11    1    3    3    0    0  0.15543889686E+02  0.14594206426E+01 -0.11560887905E+01  0.15654997820E+02  0.51100000000E-03 0.  1.
        -12    1    3    3    0    0  0.72187874727E+01 -0.82817946097E+01  0.69698194966E+01  0.13010664793E+02  0.00000000000E+00 0.  1.
</event>
<event>
 7    1  0.6857839E-013  0.5052887E+02  0.7816164E-02  0.1300439E+00
        -11   -1    0    0    0    0  0.00000000000E+00  0.00000000000E+00  0.45593999997E+02  0.45594000000E+02  0.51100000000E-03 0.  1.
         11   -1    0    0    0    0 -0.00000000000E+00 -0.00000000000E+00 -0.45593999997E+02  0.45594000000E+02  0.51100000000E-03 0. -1.
    9900012    2    1    2    0    0  0.25595000208E+02  0.28449688125E+02 -0.13735952438E+02  0.50528865978E+02  0.30000018626E+02 0.  0.
        -12    1    1    2    0    0 -0.25595000208E+02 -0.28449688125E+02  0.13735952438E+02  0.40659134022E+02  0.00000000000E+00 0.  1.
         11    1    3    3    0    0  0.99205618622E+01  0.17573753838E+02 -0.49556476605E+01  0.20780106247E+02  0.51100000000E-03 0. -1.
        -11    1    3    3    0    0  0.79698415131E+01  0.80517091454E+01  0.60174681335E+01  0.12828028567E+02  0.51100000000E-03 0.  1.
        -12    1    3    3    0    0  0.77045968327E+01  0.28242251415E+01 -0.14797772911E+02  0.16920731164E+02  0.00000000000E+00 0.  1.
</event>
<event>
 7    1  0.6857839E-013  0.5052881E+02  0.7816164E-02  0.1300439E+00
        -11   -1    0    0    0    0  0.00000000000E+00  0.00000000000E+00  0.45593999997E+02  0.45594000000E+02  0.51100000000E-03 0.  1.
         11   -1    0    0    0    0 -0.00000000000E+00 -0.00000000000E+00 -0.45593999997E+02  0.45594000000E+02  0.51100000000E-03 0. -1.
    9900012    2    1    2    0    0 -0.30481581912E+02 -0.25624798994E+02 -0.82105032984E+01  0.50528812555E+02  0.29999856241E+02 0.  0.
        -12    1    1    2    0    0  0.30481581912E+02  0.25624798994E+02  0.82105032984E+01  0.40659187445E+02  0.00000000000E+00 0.  1.
         11    1    3    3    0    0 -0.12534171645E+02 -0.35249148868E+01 -0.76011825890E+01  0.15076752329E+02  0.51100000000E-03 0. -1.
        -11    1    3    3    0    0 -0.17750015964E+01  0.26538674627E+01  0.44265226559E+01  0.54578151546E+01  0.51100000000E-03 0.  1.
        -12    1    3    3    0    0 -0.16172408670E+02 -0.24753751570E+02 -0.50358433654E+01  0.29994245071E+02  0.00000000000E+00 0.  1.
</event>
<event>
 7    1  0.6857839E-013  0.5052886E+02  0.7816164E-02  0.1300439E+00
        -11   -1    0    0    0    0  0.00000000000E+00  0.00000000000E+00  0.45593999997E+02  0.45594000000E+02  0.51100000000E-03 0.  1.
         11   -1    0    0    0    0 -0.00000000000E+00 -0.00000000000E+00 -0.45593999997E+02  0.45594000000E+02  0.51100000000E-03 0. -1.
    9900012    2    1    2    0    0  0.36951342726E+02 -0.16149568439E+02 -0.51918655630E+01  0.50528858862E+02  0.29999996997E+02 0.  0.
        -12    1    1    2    0    0 -0.36951342726E+02  0.16149568439E+02  0.51918655630E+01  0.40659141138E+02  0.00000000000E+00 0.  1.
         11    1    3    3    0    0  0.19834577552E+02 -0.11076732914E+02  0.76909129392E+00  0.22730947635E+02  0.51100000000E-03 0. -1.
        -11    1    3    3    0    0  0.76931011774E+01 -0.12293201364E+02 -0.65477936587E+01  0.15911637488E+02  0.51100000000E-03 0.  1.
         12    1    3    3    0    0  0.94236639966E+01  0.72203658381E+01  0.58683680183E+00  0.11886273739E+02  0.00000000000E+00 0. -1.
</event>
<event>
 7    1  0.6857839E-013  0.5052886E+02  0.7816164E-02  0.1300439E+00
        -11   -1    0    0    0    0  0.00000000000E+00  0.00000000000E+00  0.45593999997E+02  0.45594000000E+02  0.51100000000E-03 0. -1.
         11   -1    0    0    0    0 -0.00000000000E+00 -0.00000000000E+00 -0.45593999997E+02  0.45594000000E+02  0.51100000000E-03 0.  1.
    9900012    2    1    2    0    0  0.58620752742E+00  0.36860464786E+02  0.17150164363E+02  0.50528860299E+02  0.30000001365E+02 0.  0.
        -12    1    1    2    0    0 -0.58620752742E+00 -0.36860464786E+02 -0.17150164363E+02  0.40659139701E+02  0.00000000000E+00 0.  1.
         11    1    3    3    0    0 -0.24381736106E+01 -0.20674135968E+00  0.49523553206E+01  0.55238805226E+01  0.51100000000E-03 0. -1.
        -11    1    3    3    0    0  0.62300216183E+01  0.13542227682E+02  0.14940067051E+02  0.21104755476E+02  0.51100000000E-03 0.  1.
        -12    1    3    3    0    0 -0.32056404802E+01  0.23524978464E+02 -0.27422580084E+01  0.23900224300E+02  0.00000000000E+00 0.  1.
</event>
<event>
 7    1  0.6857839E-013  0.5052886E+02  0.7816164E-02  0.1300439E+00
        -11   -1    0    0    0    0  0.00000000000E+00  0.00000000000E+00  0.45593999997E+02  0.45594000000E+02  0.51100000000E-03 0. -1.
         11   -1    0    0    0    0 -0.00000000000E+00 -0.00000000000E+00 -0.45593999997E+02  0.45594000000E+02  0.51100000000E-03 0.  1.
    9900012    2    1    2    0    0 -0.33321422583E+02  0.12399971110E+02  0.19725350565E+02  0.50528856607E+02  0.29999990144E+02 0.  0.
        -12    1    1    2    0    0  0.33321422583E+02 -0.12399971110E+02 -0.19725350565E+02  0.40659143393E+02  0.00000000000E+00 0.  1.
         11    1    3    3    0    0 -0.20815243346E+02  0.14995205699E+02  0.86386124985E+01  0.27069469438E+02  0.51100000000E-03 0. -1.
        -11    1    3    3    0    0  0.18781780590E+01  0.42101427249E+01  0.37207598719E+01  0.59242644160E+01  0.51100000000E-03 0.  1.
         12    1    3    3    0    0 -0.14384357296E+02 -0.68053773138E+01  0.73659781946E+01  0.17535122753E+02  0.00000000000E+00 0. -1.
</event>
<event>
 7    1  0.6857839E-013  0.5052887E+02  0.7816164E-02  0.1300439E+00
        -11   -1    0    0    0    0  0.00000000000E+00  0.00000000000E+00  0.45593999997E+02  0.45594000000E+02  0.51100000000E-03 0.  1.
         11   -1    0    0    0    0 -0.00000000000E+00 -0.00000000000E+00 -0.45593999997E+02  0.45594000000E+02  0.51100000000E-03 0. -1.
    9900012    2    1    2    0    0 -0.26775980147E+02  0.27692375627E+02 -0.13013230787E+02  0.50528868722E+02  0.30000026969E+02 0.  0.
        -12    1    1    2    0    0  0.26775980147E+02 -0.27692375627E+02  0.13013230787E+02  0.40659131278E+02  0.00000000000E+00 0.  1.
         11    1    3    3    0    0 -0.85382337815E+01  0.21919372888E+02 -0.80360954728E+01  0.24858382381E+02  0.51100000000E-03 0. -1.
        -11    1    3    3    0    0 -0.71320424297E+01  0.85279763705E+01  0.32441815160E+01  0.11580894791E+02  0.51100000000E-03 0.  1.
         12    1    3    3    0    0 -0.11105703936E+02 -0.27549736311E+01 -0.82213168301E+01  0.14089591550E+02  0.00000000000E+00 0. -1.
</event>
<event>
 7    1  0.6857839E-013  0.5052886E+02  0.7816164E-02  0.1300439E+00
        -11   -1    0    0    0    0  0.00000000000E+00  0.00000000000E+00  0.45593999997E+02  0.45594000000E+02  0.51100000000E-03 0.  1.
         11   -1    0    0    0    0 -0.00000000000E+00 -0.00000000000E+00 -0.45593999997E+02  0.45594000000E+02  0.51100000000E-03 0. -1.
    9900012    2    1    2    0    0  0.43067289970E+01 -0.23304654030E+02 -0.33038020758E+02  0.50528860441E+02  0.30000001795E+02 0.  0.
        -12    1    1    2    0    0 -0.43067289970E+01  0.23304654030E+02  0.33038020758E+02  0.40659139559E+02  0.00000000000E+00 0.  1.
         11    1    3    3    0    0  0.53345241433E+01 -0.12844971378E+02 -0.50322215592E+01  0.14791000359E+02  0.51100000000E-03 0. -1.
        -11    1    3    3    0    0 -0.29240547413E+01  0.48906648845E+01 -0.32852167623E+01  0.65773359788E+01  0.51100000000E-03 0.  1.
         12    1    3    3    0    0  0.18962595950E+01 -0.15350347536E+02 -0.24720582437E+02  0.29160524103E+02  0.00000000000E+00 0. -1.
</event>
<event>
 7    1  0.6857839E-013  0.5052886E+02  0.7816164E-02  0.1300439E+00
        -11   -1    0    0    0    0  0.00000000000E+00  0.00000000000E+00  0.45593999997E+02  0.45594000000E+02  0.51100000000E-03 0.  1.
         11   -1    0    0    0    0 -0.00000000000E+00 -0.00000000000E+00 -0.45593999997E+02  0.45594000000E+02  0.51100000000E-03 0. -1.
    9900012    2    1    2    0    0 -0.73503046460E-01 -0.10971466741E+01 -0.40644266284E+02  0.50528861848E+02  0.30000006073E+02 0.  0.
        -12    1    1    2    0    0  0.73503046460E-01  0.10971466741E+01  0.40644266284E+02  0.40659138152E+02  0.00000000000E+00 0.  1.
         11    1    3    3    0    0  0.56039117950E+01  0.47380195677E+01 -0.12828653658E+02  0.14779276429E+02  0.51100000000E-03 0. -1.
        -11    1    3    3    0    0  0.49179219010E+01 -0.85991112725E+01 -0.66861334776E+01  0.11951361916E+02  0.51100000000E-03 0.  1.
         12    1    3    3    0    0 -0.10595336742E+02  0.27639450307E+01 -0.21129479148E+02  0.23798223503E+02  0.00000000000E+00 0. -1.
</event>
<event>
 7    1  0.6857839E-013  0.5052887E+02  0.7816164E-02  0.1300439E+00
        -11   -1    0    0    0    0  0.00000000000E+00  0.00000000000E+00  0.45593999997E+02  0.45594000000E+02  0.51100000000E-03 0.  1.
         11   -1    0    0    0    0 -0.00000000000E+00 -0.00000000000E+00 -0.45593999997E+02  0.45594000000E+02  0.51100000000E-03 0. -1.
    9900012    2    1    2    0    0 -0.96242412606E+01 -0.65675031564E+00 -0.39498195249E+02  0.50528871028E+02  0.30000033976E+02 0.  0.
        -12    1    1    2    0    0  0.96242412606E+01  0.65675031564E+00  0.39498195249E+02  0.40659128972E+02  0.00000000000E+00 0.  1.
         11    1    3    3    0    0 -0.31105596647E+01 -0.42210813668E+01 -0.21390420565E+01  0.56629153723E+01  0.51100000000E-03 0. -1.
        -11    1    3    3    0    0 -0.98348863241E+00  0.81524340071E+01 -0.15671159867E+01  0.83597417967E+01  0.51100000000E-03 0.  1.
         12    1    3    3    0    0 -0.55301929635E+01 -0.45881029559E+01 -0.35792037206E+02  0.36506213859E+02  0.00000000000E+00 0. -1.
</event>
<event>
 7    1  0.6857839E-013  0.5052875E+02  0.7816164E-02  0.1300439E+00
        -11   -1    0    0    0    0  0.00000000000E+00  0.00000000000E+00  0.45593999997E+02  0.45594000000E+02  0.51100000000E-03 0.  1.
         11   -1    0    0    0    0 -0.00000000000E+00 -0.00000000000E+00 -0.45593999997E+02  0.45594000000E+02  0.51100000000E-03 0. -1.
    9900012    2    1    2    0    0  0.22891124756E+02 -0.29894876511E+02 -0.15344952515E+02  0.50528747647E+02  0.29999658946E+02 0.  0.
        -12    1    1    2    0    0 -0.22891124756E+02  0.29894876511E+02  0.15344952515E+02  0.40659252353E+02  0.00000000000E+00 0.  1.
         11    1    3    3    0    0  0.63675550772E+01 -0.16742412864E+02 -0.92942042519E+01  0.20180098590E+02  0.51100000000E-03 0. -1.
        -11    1    3    3    0    0 -0.39920693577E+01 -0.67083395639E+01  0.62781778518E+00  0.78315128101E+01  0.51100000000E-03 0.  1.
        -12    1    3    3    0    0  0.20515639037E+02 -0.64441240831E+01 -0.66785660486E+01  0.22517136247E+02  0.00000000000E+00 0.  1.
</event>
<event>
 7    1  0.6857839E-013  0.5052886E+02  0.7816164E-02  0.1300439E+00
        -11   -1    0    0    0    0  0.00000000000E+00  0.00000000000E+00  0.45593999997E+02  0.45594000000E+02  0.51100000000E-03 0.  1.
         11   -1    0    0    0    0 -0.00000000000E+00 -0.00000000000E+00 -0.45593999997E+02  0.45594000000E+02  0.51100000000E-03 0. -1.
    9900012    2    1    2    0    0  0.10462770436E+02 -0.30564579872E+02 -0.24688099457E+02  0.50528863724E+02  0.30000011775E+02 0.  0.
        -12    1    1    2    0    0 -0.10462770436E+02  0.30564579872E+02  0.24688099457E+02  0.40659136276E+02  0.00000000000E+00 0.  1.
         11    1    3    3    0    0  0.12896822451E+02 -0.62390840072E+01 -0.16767551822E+02  0.22054591199E+02  0.51100000000E-03 0. -1.
        -11    1    3    3    0    0 -0.12048840583E+01 -0.97103819773E+01 -0.96048363589E+01  0.13711168640E+02  0.51100000000E-03 0.  1.
         12    1    3    3    0    0 -0.12291679566E+01 -0.14615113887E+02  0.16842887246E+01  0.14763103885E+02  0.00000000000E+00 0. -1.
</event>
<event>
 7    1  0.6857839E-013  0.5052886E+02  0.7816164E-02  0.1300439E+00
        -11   -1    0    0    0    0  0.00000000000E+00  0.00000000000E+00  0.45593999997E+02  0.45594000000E+02  0.51100000000E-03 0.  1.
         11   -1    0    0    0    0 -0.00000000000E+00 -0.00000000000E+00 -0.45593999997E+02  0.45594000000E+02  0.51100000000E-03 0. -1.
    9900012    2    1    2    0    0 -0.51209828714E+01  0.22931179531E+02 -0.33182862778E+02  0.50528857825E+02  0.29999993846E+02 0.  0.
        -12    1    1    2    0    0  0.51209828714E+01 -0.22931179531E+02  0.33182862778E+02  0.40659142175E+02  0.00000000000E+00 0.  1.
         11    1    3    3    0    0  0.55377876034E+00  0.15345040166E+02 -0.14084600485E+02  0.20836336043E+02  0.51100000000E-03 0. -1.
        -11    1    3    3    0    0 -0.19175914449E+01  0.32327579518E+01 -0.22632686836E+02  0.22942676274E+02  0.51100000000E-03 0.  1.
        -12    1    3    3    0    0 -0.37571701868E+01  0.43533814130E+01  0.35344245434E+01  0.67498455088E+01  0.00000000000E+00 0.  1.
</event>
<event>
 7    1  0.6857839E-013  0.5052884E+02  0.7816164E-02  0.1300439E+00
        -11   -1    0    0    0    0  0.00000000000E+00  0.00000000000E+00  0.45593999997E+02  0.45594000000E+02  0.51100000000E-03 0.  1.
         11   -1    0    0    0    0 -0.00000000000E+00 -0.00000000000E+00 -0.45593999997E+02  0.45594000000E+02  0.51100000000E-03 0. -1.
    9900012    2    1    2    0    0 -0.39943703132E+02  0.75615956848E+01  0.69998341558E+00  0.50528842040E+02  0.29999945865E+02 0.  0.
        -12    1    1    2    0    0  0.39943703132E+02 -0.75615956848E+01 -0.69998341558E+00  0.40659157960E+02  0.00000000000E+00 0.  1.
         11    1    3    3    0    0 -0.38611811708E+02  0.32550791925E+01 -0.76765001675E+01  0.39501850577E+02  0.51100000000E-03 0. -1.
        -11    1    3    3    0    0  0.75923534223E+00  0.46290678691E-01 -0.53545435548E+00  0.93021113719E+00  0.51100000000E-03 0.  1.
         12    1    3    3    0    0 -0.20911267668E+01  0.42602258136E+01  0.89119379386E+01  0.10096780326E+02  0.00000000000E+00 0. -1.
</event>
<event>
 7    1  0.6857839E-013  0.5052885E+02  0.7816164E-02  0.1300439E+00
        -11   -1    0    0    0    0  0.00000000000E+00  0.00000000000E+00  0.45593999997E+02  0.45594000000E+02  0.51100000000E-03 0.  1.
         11   -1    0    0    0    0 -0.00000000000E+00 -0.00000000000E+00 -0.45593999997E+02  0.45594000000E+02  0.51100000000E-03 0. -1.
    9900012    2    1    2    0    0  0.11136010862E+02 -0.39036208938E+02 -0.23086849504E+01  0.50528851308E+02  0.29999974036E+02 0.  0.
        -12    1    1    2    0    0 -0.11136010862E+02  0.39036208938E+02  0.23086849504E+01  0.40659148692E+02  0.00000000000E+00 0.  1.
         11    1    3    3    0    0  0.45391102806E+01  0.21786291725E+01  0.13364344802E+00  0.50366465077E+01  0.51100000000E-03 0. -1.
        -11    1    3    3    0    0 -0.10463514475E+01  0.15571870090E+01  0.50476114918E+00  0.19427987059E+01  0.51100000000E-03 0.  1.
         12    1    3    3    0    0  0.76432520292E+01 -0.42772025119E+02 -0.29470895476E+01  0.43549406095E+02  0.00000000000E+00 0. -1.
</event>
<event>
 7    1  0.6857839E-013  0.5052886E+02  0.7816164E-02  0.1300439E+00
        -11   -1    0    0    0    0  0.00000000000E+00  0.00000000000E+00  0.45593999997E+02  0.45594000000E+02  0.51100000000E-03 0.  1.
         11   -1    0    0    0    0 -0.00000000000E+00 -0.00000000000E+00 -0.45593999997E+02  0.45594000000E+02  0.51100000000E-03 0. -1.
    9900012    2    1    2    0    0 -0.14994219997E+02 -0.37780000569E+02 -0.10052016593E+01  0.50528861953E+02  0.30000006394E+02 0.  0.
        -12    1    1    2    0    0  0.14994219997E+02  0.37780000569E+02  0.10052016593E+01  0.40659138047E+02  0.00000000000E+00 0.  1.
         11    1    3    3    0    0  0.25112057615E+01 -0.22108627235E+01  0.32956766346E+01  0.46963340064E+01  0.51100000000E-03 0. -1.
        -11    1    3    3    0    0 -0.14968759484E+02 -0.17319011647E+02  0.73381779050E+01  0.24038734995E+02  0.51100000000E-03 0.  1.
         12    1    3    3    0    0 -0.25366662747E+01 -0.18250126198E+02 -0.11639056199E+02  0.21793792952E+02  0.00000000000E+00 0. -1.
</event>
<event>
 7    1  0.6857839E-013  0.5052884E+02  0.7816164E-02  0.1300439E+00
        -11   -1    0    0    0    0  0.00000000000E+00  0.00000000000E+00  0.45593999997E+02  0.45594000000E+02  0.51100000000E-03 0.  1.
         11   -1    0    0    0    0 -0.00000000000E+00 -0.00000000000E+00 -0.45593999997E+02  0.45594000000E+02  0.51100000000E-03 0. -1.
    9900012    2    1    2    0    0 -0.12626545099E+02  0.29888598610E+02 -0.24503244022E+02  0.50528844382E+02  0.29999952982E+02 0.  0.
        -12    1    1    2    0    0  0.12626545099E+02 -0.29888598610E+02  0.24503244022E+02  0.40659155618E+02  0.00000000000E+00 0.  1.
         11    1    3    3    0    0 -0.43333777951E+01  0.82618444970E+01 -0.21542740010E+02  0.23476070477E+02  0.51100000000E-03 0. -1.
        -11    1    3    3    0    0 -0.32347299839E+01  0.66651698190E+01 -0.75782148116E+01  0.10597985977E+02  0.51100000000E-03 0.  1.
        -12    1    3    3    0    0 -0.50584373205E+01  0.14961584294E+02  0.46177108002E+01  0.16454787928E+02  0.00000000000E+00 0.  1.
</event>
<event>
 7    1  0.6857839E-013  0.5052886E+02  0.7816164E-02  0.1300439E+00
        -11   -1    0    0    0    0  0.00000000000E+00  0.00000000000E+00  0.45593999997E+02  0.45594000000E+02  0.51100000000E-03 0.  1.
         11   -1    0    0    0    0 -0.00000000000E+00 -0.00000000000E+00 -0.45593999997E+02  0.45594000000E+02  0.51100000000E-03 0. -1.
    9900012    2    1    2    0    0 -0.13845583125E+02 -0.16027974347E+01 -0.38195506767E+02  0.50528857499E+02  0.29999992855E+02 0.  0.
        -12    1    1    2    0    0  0.13845583125E+02  0.16027974347E+01  0.38195506767E+02  0.40659142501E+02  0.00000000000E+00 0.  1.
         11    1    3    3    0    0  0.23627833772E+01 -0.39391576645E+01 -0.22216391564E+02  0.22686290194E+02  0.51100000000E-03 0. -1.
        -11    1    3    3    0    0 -0.12720362472E+01 -0.52634219403E+01 -0.13109470376E+01  0.55713794640E+01  0.51100000000E-03 0.  1.
         12    1    3    3    0    0 -0.14936330255E+02  0.75997821701E+01 -0.14668168166E+02  0.22271187841E+02  0.00000000000E+00 0. -1.
</event>
<event>
 7    1  0.6857839E-013  0.5052885E+02  0.7816164E-02  0.1300439E+00
        -11   -1    0    0    0    0  0.00000000000E+00  0.00000000000E+00  0.45593999997E+02  0.45594000000E+02  0.51100000000E-03 0.  1.
         11   -1    0    0    0    0 -0.00000000000E+00 -0.00000000000E+00 -0.45593999997E+02  0.45594000000E+02  0.51100000000E-03 0. -1.
    9900012    2    1    2    0    0 -0.17707039862E+02 -0.36588776054E+02 -0.94269005016E+00  0.50528850251E+02  0.29999970823E+02 0.  0.
        -12    1    1    2    0    0  0.17707039862E+02  0.36588776054E+02  0.94269005016E+00  0.40659149749E+02  0.00000000000E+00 0.  1.
         11    1    3    3    0    0 -0.16681233702E+02 -0.25642851213E+02 -0.80852014164E+01  0.31641584321E+02  0.51100000000E-03 0. -1.
        -11    1    3    3    0    0 -0.65346772827E+01 -0.78039229639E+01  0.73289799002E+01  0.12542614060E+02  0.51100000000E-03 0.  1.
        -12    1    3    3    0    0  0.55088711225E+01 -0.31420018763E+01 -0.18646853399E+00  0.63446518699E+01  0.00000000000E+00 0.  1.
</event>
<event>
 7    1  0.6857839E-013  0.5052885E+02  0.7816164E-02  0.1300439E+00
        -11   -1    0    0    0    0  0.00000000000E+00  0.00000000000E+00  0.45593999997E+02  0.45594000000E+02  0.51100000000E-03 0.  1.
         11   -1    0    0    0    0 -0.00000000000E+00 -0.00000000000E+00 -0.45593999997E+02  0.45594000000E+02  0.51100000000E-03 0. -1.
    9900012    2    1    2    0    0  0.76307329116E+01  0.11482835506E+02 -0.38250262030E+02  0.50528854149E+02  0.29999982671E+02 0.  0.
        -12    1    1    2    0    0 -0.76307329116E+01 -0.11482835506E+02  0.38250262030E+02  0.40659145851E+02  0.00000000000E+00 0.  1.
         11    1    3    3    0    0  0.60524893067E+01 -0.35413137431E+01 -0.41028354001E+01  0.81244561921E+01  0.51100000000E-03 0. -1.
        -11    1    3    3    0    0 -0.42515704078E+01 -0.94211968862E+00 -0.10669607583E+00  0.43560101876E+01  0.51100000000E-03 0.  1.
         12    1    3    3    0    0  0.58298140127E+01  0.15966268937E+02 -0.34040730554E+02  0.38048387769E+02  0.00000000000E+00 0. -1.
</event>
<event>
 7    1  0.6857839E-013  0.5052886E+02  0.7816164E-02  0.1300439E+00
        -11   -1    0    0    0    0  0.00000000000E+00  0.00000000000E+00  0.45593999997E+02  0.45594000000E+02  0.51100000000E-03 0. -1.
         11   -1    0    0    0    0 -0.00000000000E+00 -0.00000000000E+00 -0.45593999997E+02  0.45594000000E+02  0.51100000000E-03 0.  1.
    9900012    2    1    2    0    0  0.15801733506E+02 -0.36868504121E+02  0.66471009477E+01  0.50528864140E+02  0.30000013039E+02 0.  0.
        -12    1    1    2    0    0 -0.15801733506E+02  0.36868504121E+02 -0.66471009477E+01  0.40659135860E+02  0.00000000000E+00 0.  1.
         11    1    3    3    0    0  0.13273743045E+02 -0.20426383498E+02  0.44778167476E+01  0.24768533269E+02  0.51100000000E-03 0. -1.
        -11    1    3    3    0    0  0.69150807395E+01 -0.57354223555E+01 -0.66785447458E+01  0.11194479506E+02  0.51100000000E-03 0.  1.
        -12    1    3    3    0    0 -0.43870902786E+01 -0.10706698267E+02  0.88478289459E+01  0.14565851364E+02  0.00000000000E+00 0.  1.
</event>
<event>
 7    1  0.6857839E-013  0.5052885E+02  0.7816164E-02  0.1300439E+00
        -11   -1    0    0    0    0  0.00000000000E+00  0.00000000000E+00  0.45593999997E+02  0.45594000000E+02  0.51100000000E-03 0.  1.
         11   -1    0    0    0    0 -0.00000000000E+00 -0.00000000000E+00 -0.45593999997E+02  0.45594000000E+02  0.51100000000E-03 0. -1.
    9900012    2    1    2    0    0 -0.14826525543E+02  0.35655480805E+02 -0.12728985325E+02  0.50528852954E+02  0.29999979038E+02 0.  0.
        -12    1    1    2    0    0  0.14826525543E+02 -0.35655480805E+02  0.12728985325E+02  0.40659147046E+02  0.00000000000E+00 0.  1.
         11    1    3    3    0    0 -0.86739709840E+01  0.27613614015E+02 -0.63514362286E+01  0.29632586692E+02  0.51100000000E-03 0. -1.
        -11    1    3    3    0    0  0.49230026780E+01  0.49617941378E+01  0.12493722787E+01  0.71004427880E+01  0.51100000000E-03 0.  1.
         12    1    3    3    0    0 -0.11075557237E+02  0.30800726522E+01 -0.76269213755E+01  0.13795823474E+02  0.00000000000E+00 0. -1.
</event>
<event>
 7    1  0.6857839E-013  0.5052887E+02  0.7816164E-02  0.1300439E+00
        -11   -1    0    0    0    0  0.00000000000E+00  0.00000000000E+00  0.45593999997E+02  0.45594000000E+02  0.51100000000E-03 0. -1.
         11   -1    0    0    0    0 -0.00000000000E+00 -0.00000000000E+00 -0.45593999997E+02  0.45594000000E+02  0.51100000000E-03 0.  1.
    9900012    2    1    2    0    0 -0.11955546025E+02  0.15031045341E+02  0.35837091440E+02  0.50528873993E+02  0.30000042989E+02 0.  0.
        -12    1    1    2    0    0  0.11955546025E+02 -0.15031045341E+02 -0.35837091440E+02  0.40659126007E+02  0.00000000000E+00 0.  1.
         11    1    3    3    0    0 -0.48609277275E+01 -0.54508335771E+01  0.17599430213E+02  0.19054662137E+02  0.51100000000E-03 0.  1.
        -11    1    3    3    0    0 -0.22176664346E+01  0.80101305677E+01  0.15814199388E+02  0.17865305446E+02  0.51100000000E-03 0. -1.
        -12    1    3    3    0    0 -0.48769518626E+01  0.12471748351E+02  0.24234618383E+01  0.13608906410E+02  0.00000000000E+00 0.  1.
</event>
<event>
 7    1  0.7933069E-013  0.5052886E+02  0.7816164E-02  0.1300439E+00
        -11   -1    0    0    0    0  0.00000000000E+00  0.00000000000E+00  0.45593999997E+02  0.45594000000E+02  0.51100000000E-03 0. -1.
         11   -1    0    0    0    0 -0.00000000000E+00 -0.00000000000E+00 -0.45593999997E+02  0.45594000000E+02  0.51100000000E-03 0.  1.
    9900012    2    1    2    0    0  0.39658319439E+02  0.33357498098E+01  0.83220060888E+01  0.50528864337E+02  0.30000013638E+02 0.  0.
        -12    1    1    2    0    0 -0.39658319439E+02 -0.33357498098E+01 -0.83220060888E+01  0.40659135663E+02  0.00000000000E+00 0.  1.
         11    1    3    3    0    0  0.18985700469E+02 -0.53517874637E+01  0.59582986830E+01  0.20605818955E+02  0.51100000000E-03 0. -1.
        -11    1    3    3    0    0  0.22990010432E+02  0.80083968905E+01 -0.25199187761E+01  0.24474987055E+02  0.51100000000E-03 0.  1.
        -12    1    3    3    0    0 -0.23173914619E+01  0.67914038293E+00  0.48836261818E+01  0.54480583267E+01  0.00000000000E+00 0.  1.
</event>
<event>
 7    1  0.6857839E-013  0.5052892E+02  0.7816164E-02  0.1300439E+00
        -11   -1    0    0    0    0  0.00000000000E+00  0.00000000000E+00  0.45593999997E+02  0.45594000000E+02  0.51100000000E-03 0.  1.
         11   -1    0    0    0    0 -0.00000000000E+00 -0.00000000000E+00 -0.45593999997E+02  0.45594000000E+02  0.51100000000E-03 0. -1.
    9900012    2    1    2    0    0 -0.24504713075E+02  0.16155774033E+01 -0.32404780439E+02  0.50528919237E+02  0.30000180512E+02 0.  0.
        -12    1    1    2    0    0  0.24504713075E+02 -0.16155774033E+01  0.32404780439E+02  0.40659080763E+02  0.00000000000E+00 0.  1.
         11    1    3    3    0    0 -0.15658292691E+02 -0.12377899923E+02 -0.14009933379E+02  0.24385913353E+02  0.51100000000E-03 0. -1.
        -11    1    3    3    0    0 -0.72773284035E+01  0.64290182649E+01 -0.14603824596E+02  0.17537487780E+02  0.51100000000E-03 0.  1.
        -12    1    3    3    0    0 -0.15690919802E+01  0.75644590610E+01 -0.37910224636E+01  0.86055181046E+01  0.00000000000E+00 0.  1.
</event>
<event>
 7    1  0.6857839E-013  0.5052886E+02  0.7816164E-02  0.1300439E+00
        -11   -1    0    0    0    0  0.00000000000E+00  0.00000000000E+00  0.45593999997E+02  0.45594000000E+02  0.51100000000E-03 0.  1.
         11   -1    0    0    0    0 -0.00000000000E+00 -0.00000000000E+00 -0.45593999997E+02  0.45594000000E+02  0.51100000000E-03 0. -1.
    9900012    2    1    2    0    0  0.17303326307E+02 -0.34176625201E+02 -0.13627884900E+02  0.50528855171E+02  0.29999985777E+02 0.  0.
        -12    1    1    2    0    0 -0.17303326307E+02  0.34176625201E+02  0.13627884900E+02  0.40659144829E+02  0.00000000000E+00 0.  1.
         11    1    3    3    0    0  0.38197373312E+01 -0.88113479913E+01 -0.16765191608E+02  0.19321022142E+02  0.51100000000E-03 0. -1.
        -11    1    3    3    0    0 -0.16422978839E+01 -0.66661059573E+01 -0.49872993552E+00  0.68835196508E+01  0.51100000000E-03 0.  1.
         12    1    3    3    0    0  0.15125886860E+02 -0.18699171252E+02  0.36360366443E+01  0.24324313378E+02  0.00000000000E+00 0. -1.
</event>
<event>
 7    1  0.6857839E-013  0.5052885E+02  0.7816164E-02  0.1300439E+00
        -11   -1    0    0    0    0  0.00000000000E+00  0.00000000000E+00  0.45593999997E+02  0.45594000000E+02  0.51100000000E-03 0. -1.
         11   -1    0    0    0    0 -0.00000000000E+00 -0.00000000000E+00 -0.45593999997E+02  0.45594000000E+02  0.51100000000E-03 0.  1.
    9900012    2    1    2    0    0 -0.55663711965E+00  0.40525403497E+02 -0.32478203990E+01  0.50528849605E+02  0.29999968859E+02 0.  0.
        -12    1    1    2    0    0  0.55663711965E+00 -0.40525403497E+02  0.32478203990E+01  0.40659150395E+02  0.00000000000E+00 0.  1.
         11    1    3    3    0    0  0.10064152640E+01  0.31019067784E+02  0.94839125287E+01  0.32452119114E+02  0.51100000000E-03 0. -1.
        -11    1    3    3    0    0 -0.20593744798E+01 -0.35916513544E+00 -0.17139100136E+00  0.20974741903E+01  0.51100000000E-03 0.  1.
        -12    1    3    3    0    0  0.49632209615E+00  0.98655008490E+01 -0.12560341926E+02  0.15979256301E+02  0.00000000000E+00 0.  1.
</event>
<event>
 7    1  0.6857839E-013  0.5052886E+02  0.7816164E-02  0.1300439E+00
        -11   -1    0    0    0    0  0.00000000000E+00  0.00000000000E+00  0.45593999997E+02  0.45594000000E+02  0.51100000000E-03 0.  1.
         11   -1    0    0    0    0 -0.00000000000E+00 -0.00000000000E+00 -0.45593999997E+02  0.45594000000E+02  0.51100000000E-03 0. -1.
    9900012    2    1    2    0    0 -0.19301616043E+02 -0.19064085264E+00 -0.35785151509E+02  0.50528858416E+02  0.29999995642E+02 0.  0.
        -12    1    1    2    0    0  0.19301616043E+02  0.19064085264E+00  0.35785151509E+02  0.40659141584E+02  0.00000000000E+00 0.  1.
         11    1    3    3    0    0 -0.49634793019E+00  0.59374734171E+01  0.42303423432E+00  0.59731825747E+01  0.51100000000E-03 0. -1.
        -11    1    3    3    0    0 -0.14921765983E+02 -0.24802950919E+01 -0.10778528447E+02  0.18573842886E+02  0.51100000000E-03 0.  1.
         12    1    3    3    0    0 -0.38835021296E+01 -0.36478191778E+01 -0.25429657296E+02  0.25981832956E+02  0.00000000000E+00 0. -1.
</event>
<event>
 7    1  0.6857839E-013  0.5052886E+02  0.7816164E-02  0.1300439E+00
        -11   -1    0    0    0    0  0.00000000000E+00  0.00000000000E+00  0.45593999997E+02  0.45594000000E+02  0.51100000000E-03 0.  1.
         11   -1    0    0    0    0 -0.00000000000E+00 -0.00000000000E+00 -0.45593999997E+02  0.45594000000E+02  0.51100000000E-03 0. -1.
    9900012    2    1    2    0    0 -0.22215435753E+02  0.24254531975E+02 -0.23903085371E+02  0.50528863299E+02  0.30000010484E+02 0.  0.
        -12    1    1    2    0    0  0.22215435753E+02 -0.24254531975E+02  0.23903085371E+02  0.40659136701E+02  0.00000000000E+00 0.  1.
         11    1    3    3    0    0 -0.20844901319E+02  0.15565432852E+02 -0.16113548880E+02  0.30601291944E+02  0.51100000000E-03 0. -1.
        -11    1    3    3    0    0  0.28891007165E+00  0.17764013741E+01 -0.11683897372E+02  0.11821697379E+02  0.51100000000E-03 0.  1.
        -12    1    3    3    0    0 -0.16594445061E+01  0.69126977486E+01  0.38943608816E+01  0.81058739756E+01  0.00000000000E+00 0.  1.
</event>
<event>
 7    1  0.6857839E-013  0.5052886E+02  0.7816164E-02  0.1300439E+00
        -11   -1    0    0    0    0  0.00000000000E+00  0.00000000000E+00  0.45593999997E+02  0.45594000000E+02  0.51100000000E-03 0. -1.
         11   -1    0    0    0    0 -0.00000000000E+00 -0.00000000000E+00 -0.45593999997E+02  0.45594000000E+02  0.51100000000E-03 0.  1.
    9900012    2    1    2    0    0 -0.20273196131E+02  0.15864306629E+02  0.31472001974E+02  0.50528860628E+02  0.30000002365E+02 0.  0.
        -12    1    1    2    0    0  0.20273196131E+02 -0.15864306629E+02 -0.31472001974E+02  0.40659139372E+02  0.00000000000E+00 0.  1.
         11    1    3    3    0    0 -0.79072819079E+01 -0.34943337775E+01  0.80028541631E+01  0.11780541190E+02  0.51100000000E-03 0.  1.
        -11    1    3    3    0    0 -0.81987900533E+01 -0.24955192165E+01  0.70589608077E+01  0.11103004208E+02  0.51100000000E-03 0. -1.
        -12    1    3    3    0    0 -0.41671241702E+01  0.21854159623E+02  0.16410187004E+02  0.27645315230E+02  0.00000000000E+00 0.  1.
</event>
<event>
 7    1  0.6857839E-013  0.5052894E+02  0.7816164E-02  0.1300438E+00
        -11   -1    0    0    0    0  0.00000000000E+00  0.00000000000E+00  0.45593999997E+02  0.45594000000E+02  0.51100000000E-03 0.  1.
         11   -1    0    0    0    0 -0.00000000000E+00 -0.00000000000E+00 -0.45593999997E+02  0.45594000000E+02  0.51100000000E-03 0. -1.
    9900012    2    1    2    0    0 -0.25652967758E+02  0.25094348296E+02  0.19114335876E+02  0.50528943110E+02  0.30000253077E+02 0.  0.
        -12    1    1    2    0    0  0.25652967758E+02 -0.25094348296E+02 -0.19114335876E+02  0.40659056890E+02  0.00000000000E+00 0.  1.
         11    1    3    3    0    0 -0.91754927033E+01  0.74282427054E+00 -0.42913210052E+01  0.10156618063E+02  0.51100000000E-03 0. -1.
        -11    1    3    3    0    0 -0.20657348713E+01  0.17255661133E+01  0.10052656141E+02  0.10406763893E+02  0.51100000000E-03 0.  1.
        -12    1    3    3    0    0 -0.14411740183E+02  0.22625957912E+02  0.13353000740E+02  0.29965561154E+02  0.00000000000E+00 0.  1.
</event>
<event>
 7    1  0.6857839E-013  0.5052886E+02  0.7816164E-02  0.1300439E+00
        -11   -1    0    0    0    0  0.00000000000E+00  0.00000000000E+00  0.45593999997E+02  0.45594000000E+02  0.51100000000E-03 0.  1.
         11   -1    0    0    0    0 -0.00000000000E+00 -0.00000000000E+00 -0.45593999997E+02  0.45594000000E+02  0.51100000000E-03 0. -1.
    9900012    2    1    2    0    0 -0.35822599155E+02 -0.84680223046E+01 -0.17268450832E+02  0.50528863190E+02  0.30000010153E+02 0.  0.
        -12    1    1    2    0    0  0.35822599155E+02  0.84680223046E+01  0.17268450832E+02  0.40659136810E+02  0.00000000000E+00 0.  1.
         11    1    3    3    0    0 -0.21848618042E+02 -0.12401103040E+02 -0.64582442420E+01  0.25939513987E+02  0.51100000000E-03 0. -1.
        -11    1    3    3    0    0 -0.13093111582E+02  0.59580946455E+00  0.14066036729E+00  0.13107415665E+02  0.51100000000E-03 0.  1.
        -12    1    3    3    0    0 -0.88086953186E+00  0.33372712705E+01 -0.10950866957E+02  0.11481933538E+02  0.00000000000E+00 0.  1.
</event>
<event>
 7    1  0.6857839E-013  0.5052886E+02  0.7816164E-02  0.1300439E+00
        -11   -1    0    0    0    0  0.00000000000E+00  0.00000000000E+00  0.45593999997E+02  0.45594000000E+02  0.51100000000E-03 0.  1.
         11   -1    0    0    0    0 -0.00000000000E+00 -0.00000000000E+00 -0.45593999997E+02  0.45594000000E+02  0.51100000000E-03 0. -1.
    9900012    2    1    2    0    0  0.28420461906E+02  0.27135089763E+02 -0.10446531836E+02  0.50528858607E+02  0.29999996222E+02 0.  0.
        -12    1    1    2    0    0 -0.28420461906E+02 -0.27135089763E+02  0.10446531836E+02  0.40659141393E+02  0.00000000000E+00 0.  1.
         11    1    3    3    0    0  0.14116249580E+02  0.16267537840E+02 -0.17100501796E+02  0.27501426354E+02  0.51100000000E-03 0. -1.
        -11    1    3    3    0    0  0.12361752439E+02  0.15914317097E+01  0.48824981975E+01  0.13385976511E+02  0.51100000000E-03 0.  1.
        -12    1    3    3    0    0  0.19424598877E+01  0.92761202132E+01  0.17714717621E+01  0.96414557422E+01  0.00000000000E+00 0.  1.
</event>
<event>
 7    1  0.7232260E-013  0.5052886E+02  0.7816164E-02  0.1300439E+00
        -11   -1    0    0    0    0  0.00000000000E+00  0.00000000000E+00  0.45593999997E+02  0.45594000000E+02  0.51100000000E-03 0.  1.
         11   -1    0    0    0    0 -0.00000000000E+00 -0.00000000000E+00 -0.45593999997E+02  0.45594000000E+02  0.51100000000E-03 0. -1.
    9900012    2    1    2    0    0  0.30159695297E+02  0.22686082192E+02 -0.15129445392E+02  0.50528860025E+02  0.30000000531E+02 0.  0.
        -12    1    1    2    0    0 -0.30159695297E+02 -0.22686082192E+02  0.15129445392E+02  0.40659139975E+02  0.00000000000E+00 0.  1.
         11    1    3    3    0    0  0.22364461044E+02  0.14918713575E+02 -0.99548389218E+01  0.28667681294E+02  0.51100000000E-03 0. -1.
        -11    1    3    3    0    0 -0.17249757931E+00  0.96731600542E+01 -0.86350873999E+01  0.12967826168E+02  0.51100000000E-03 0.  1.
        -12    1    3    3    0    0  0.79677318324E+01 -0.19057914371E+01  0.34604809298E+01  0.88933525635E+01  0.00000000000E+00 0.  1.
</event>
<event>
 7    1  0.6857839E-013  0.5052887E+02  0.7816164E-02  0.1300439E+00
        -11   -1    0    0    0    0  0.00000000000E+00  0.00000000000E+00  0.45593999997E+02  0.45594000000E+02  0.51100000000E-03 0.  1.
         11   -1    0    0    0    0 -0.00000000000E+00 -0.00000000000E+00 -0.45593999997E+02  0.45594000000E+02  0.51100000000E-03 0. -1.
    9900012    2    1    2    0    0 -0.16397193432E+02 -0.36894237011E+02 -0.48075014714E+01  0.50528871290E+02  0.30000034772E+02 0.  0.
        -12    1    1    2    0    0  0.16397193432E+02  0.36894237011E+02  0.48075014714E+01  0.40659128710E+02  0.00000000000E+00 0.  1.
         11    1    3    3    0    0 -0.17508294130E+02 -0.15004724958E+02 -0.29293670688E+00  0.23060094245E+02  0.51100000000E-03 0. -1.
        -11    1    3    3    0    0 -0.12908171011E+01 -0.15535668900E+02  0.44588429550E+01  0.16214330011E+02  0.51100000000E-03 0.  1.
         12    1    3    3    0    0  0.24019177990E+01 -0.63538431529E+01 -0.89734077195E+01  0.11254447033E+02  0.00000000000E+00 0. -1.
</event>
<event>
 7    1  0.6857839E-013  0.5052886E+02  0.7816164E-02  0.1300439E+00
        -11   -1    0    0    0    0  0.00000000000E+00  0.00000000000E+00  0.45593999997E+02  0.45594000000E+02  0.51100000000E-03 0.  1.
         11   -1    0    0    0    0 -0.00000000000E+00 -0.00000000000E+00 -0.45593999997E+02  0.45594000000E+02  0.51100000000E-03 0. -1.
    9900012    2    1    2    0    0 -0.75493979756E+00 -0.33966883492E+02 -0.22334871675E+02  0.50528860793E+02  0.30000002868E+02 0.  0.
        -12    1    1    2    0    0  0.75493979756E+00  0.33966883492E+02  0.22334871675E+02  0.40659139207E+02  0.00000000000E+00 0.  1.
         11    1    3    3    0    0 -0.33996396716E+01 -0.36105162722E+01  0.14419067402E+01  0.51645399560E+01  0.51100000000E-03 0. -1.
        -11    1    3    3    0    0  0.13061925148E+02 -0.15232372588E+02 -0.10085480682E+02  0.22457871316E+02  0.51100000000E-03 0.  1.
         12    1    3    3    0    0 -0.10417225274E+02 -0.15123994632E+02 -0.13691297733E+02  0.22906449521E+02  0.00000000000E+00 0. -1.
</event>
<event>
 7    1  0.7050116E-013  0.5052885E+02  0.7816164E-02  0.1300439E+00
        -11   -1    0    0    0    0  0.00000000000E+00  0.00000000000E+00  0.45593999997E+02  0.45594000000E+02  0.51100000000E-03 0. -1.
         11   -1    0    0    0    0 -0.00000000000E+00 -0.00000000000E+00 -0.45593999997E+02  0.45594000000E+02  0.51100000000E-03 0.  1.
    9900012    2    1    2    0    0 -0.12531233726E+02 -0.12426618408E+02  0.36629406895E+02  0.50528854495E+02  0.29999983722E+02 0.  0.
        -12    1    1    2    0    0  0.12531233726E+02  0.12426618408E+02 -0.36629406895E+02  0.40659145505E+02  0.00000000000E+00 0.  1.
         11    1    3    3    0    0 -0.10220276404E+02 -0.11198011254E+02  0.30880987894E+02  0.34401815640E+02  0.51100000000E-03 0. -1.
        -11    1    3    3    0    0  0.27375310071E+01 -0.46089058245E+01  0.80149480617E+01  0.96423794577E+01  0.51100000000E-03 0.  1.
        -12    1    3    3    0    0 -0.50484883293E+01  0.33802986703E+01 -0.22665290603E+01  0.64846593968E+01  0.00000000000E+00 0.  1.
</event>
<event>
 7    1  0.6857839E-013  0.5052886E+02  0.7816164E-02  0.1300439E+00
        -11   -1    0    0    0    0  0.00000000000E+00  0.00000000000E+00  0.45593999997E+02  0.45594000000E+02  0.51100000000E-03 0.  1.
         11   -1    0    0    0    0 -0.00000000000E+00 -0.00000000000E+00 -0.45593999997E+02  0.45594000000E+02  0.51100000000E-03 0. -1.
    9900012    2    1    2    0    0 -0.69537003989E+01 -0.79618503014E+01 -0.39260929544E+02  0.50528860829E+02  0.30000002976E+02 0.  0.
        -12    1    1    2    0    0  0.69537003989E+01  0.79618503014E+01  0.39260929544E+02  0.40659139171E+02  0.00000000000E+00 0.  1.
         11    1    3    3    0    0  0.22419930927E+01 -0.77055661536E+01 -0.22158467404E+02  0.23566925143E+02  0.51100000000E-03 0. -1.
        -11    1    3    3    0    0 -0.85001443840E+00  0.39173297801E+01 -0.17168869094E+02  0.17630600199E+02  0.51100000000E-03 0.  1.
        -12    1    3    3    0    0 -0.83456790532E+01 -0.41736139280E+01  0.66406953340E-01  0.93313354865E+01  0.00000000000E+00 0.  1.
</event>
<event>
 7    1  0.6857839E-013  0.5052886E+02  0.7816164E-02  0.1300439E+00
        -11   -1    0    0    0    0  0.00000000000E+00  0.00000000000E+00  0.45593999997E+02  0.45594000000E+02  0.51100000000E-03 0.  1.
         11   -1    0    0    0    0 -0.00000000000E+00 -0.00000000000E+00 -0.45593999997E+02  0.45594000000E+02  0.51100000000E-03 0. -1.
    9900012    2    1    2    0    0 -0.38829090940E+02 -0.80683601353E+01 -0.89648684071E+01  0.50528860756E+02  0.30000002753E+02 0.  0.
        -12    1    1    2    0    0  0.38829090940E+02  0.80683601353E+01  0.89648684071E+01  0.40659139244E+02  0.00000000000E+00 0.  1.
         11    1    3    3    0    0 -0.51629030103E+01  0.75247659690E+01 -0.24251028195E+01  0.94423934640E+01  0.51100000000E-03 0.  1.
        -11    1    3    3    0    0 -0.21837218526E+02 -0.32270788776E+01  0.16084843500E+01  0.22132902502E+02  0.51100000000E-03 0. -1.
         12    1    3    3    0    0 -0.11828969404E+02 -0.12366047227E+02 -0.81482499375E+01  0.18953564789E+02  0.00000000000E+00 0. -1.
</event>
<event>
 7    1  0.6857839E-013  0.5052886E+02  0.7816164E-02  0.1300439E+00
        -11   -1    0    0    0    0  0.00000000000E+00  0.00000000000E+00  0.45593999997E+02  0.45594000000E+02  0.51100000000E-03 0.  1.
         11   -1    0    0    0    0 -0.00000000000E+00 -0.00000000000E+00 -0.45593999997E+02  0.45594000000E+02  0.51100000000E-03 0. -1.
    9900012    2    1    2    0    0 -0.37666701760E+02 -0.18957112719E+01 -0.15191820267E+02  0.50528861474E+02  0.30000004935E+02 0.  0.
        -12    1    1    2    0    0  0.37666701760E+02  0.18957112719E+01  0.15191820267E+02  0.40659138526E+02  0.00000000000E+00 0.  1.
         11    1    3    3    0    0 -0.15704041688E+02 -0.94386575993E+01 -0.79725339428E+01  0.19981653594E+02  0.51100000000E-03 0. -1.
        -11    1    3    3    0    0 -0.21615681485E+02  0.11424440280E+01 -0.10819433722E+01  0.21672873970E+02  0.51100000000E-03 0.  1.
        -12    1    3    3    0    0 -0.34697858681E+00  0.64005022994E+01 -0.61373429519E+01  0.88743339093E+01  0.00000000000E+00 0.  1.
</event>
<event>
 7    1  0.6857839E-013  0.5052886E+02  0.7816164E-02  0.1300439E+00
        -11   -1    0    0    0    0  0.00000000000E+00  0.00000000000E+00  0.45593999997E+02  0.45594000000E+02  0.51100000000E-03 0. -1.
         11   -1    0    0    0    0 -0.00000000000E+00 -0.00000000000E+00 -0.45593999997E+02  0.45594000000E+02  0.51100000000E-03 0.  1.
    9900012    2    1    2    0    0  0.37240942639E+02 -0.15599653508E+02 -0.47884136220E+01  0.50528857077E+02  0.29999991572E+02 0.  0.
        -12    1    1    2    0    0 -0.37240942639E+02  0.15599653508E+02  0.47884136220E+01  0.40659142923E+02  0.00000000000E+00 0.  1.
         11    1    3    3    0    0 -0.31447750549E+00  0.79714397324E-01 -0.27667158003E+01  0.27856717444E+01  0.51100000000E-03 0. -1.
        -11    1    3    3    0    0  0.13329462253E+02  0.47340974384E+01  0.55099497536E+01  0.15180441003E+02  0.51100000000E-03 0.  1.
         12    1    3    3    0    0  0.24225957892E+02 -0.20413465344E+02 -0.75316475752E+01  0.32562744330E+02  0.00000000000E+00 0. -1.
</event>
<event>
 7    1  0.6857839E-013  0.5052885E+02  0.7816164E-02  0.1300439E+00
        -11   -1    0    0    0    0  0.00000000000E+00  0.00000000000E+00  0.45593999997E+02  0.45594000000E+02  0.51100000000E-03 0.  1.
         11   -1    0    0    0    0 -0.00000000000E+00 -0.00000000000E+00 -0.45593999997E+02  0.45594000000E+02  0.51100000000E-03 0. -1.
    9900012    2    1    2    0    0 -0.28203977754E+02 -0.14178489043E+02 -0.25625618809E+02  0.50528852788E+02  0.29999978535E+02 0.  0.
        -12    1    1    2    0    0  0.28203977754E+02  0.14178489043E+02  0.25625618809E+02  0.40659147212E+02  0.00000000000E+00 0.  1.
         11    1    3    3    0    0 -0.14588065648E+02 -0.30668201000E+01 -0.14225190896E+02  0.20605171709E+02  0.51100000000E-03 0. -1.
        -11    1    3    3    0    0 -0.80687029256E+01  0.41254131486E+00 -0.14647689092E+02  0.16728088750E+02  0.51100000000E-03 0.  1.
        -12    1    3    3    0    0 -0.55472091798E+01 -0.11524210258E+02  0.32472611793E+01  0.13195592329E+02  0.00000000000E+00 0.  1.
</event>
<event>
 7    1  0.6857839E-013  0.5052886E+02  0.7816164E-02  0.1300439E+00
        -11   -1    0    0    0    0  0.00000000000E+00  0.00000000000E+00  0.45593999997E+02  0.45594000000E+02  0.51100000000E-03 0. -1.
         11   -1    0    0    0    0 -0.00000000000E+00 -0.00000000000E+00 -0.45593999997E+02  0.45594000000E+02  0.51100000000E-03 0.  1.
    9900012    2    1    2    0    0 -0.38909072848E+02 -0.56577915223E+01 -0.10355634362E+02  0.50528859357E+02  0.29999998502E+02 0.  0.
        -12    1    1    2    0    0  0.38909072848E+02  0.56577915223E+01  0.10355634362E+02  0.40659140643E+02  0.00000000000E+00 0.  1.
         11    1    3    3    0    0 -0.29734892188E+02 -0.73498496980E+01 -0.60683812278E+01  0.31225139792E+02  0.51100000000E-03 0. -1.
        -11    1    3    3    0    0 -0.15554668202E+01 -0.66372711041E+01 -0.42157731186E+01  0.80153345523E+01  0.51100000000E-03 0.  1.
        -12    1    3    3    0    0 -0.76187138395E+01  0.83293292798E+01 -0.71480015142E-01  0.11288385013E+02  0.00000000000E+00 0.  1.
</event>
<event>
 7    1  0.6857839E-013  0.5052886E+02  0.7816164E-02  0.1300439E+00
        -11   -1    0    0    0    0  0.00000000000E+00  0.00000000000E+00  0.45593999997E+02  0.45594000000E+02  0.51100000000E-03 0.  1.
         11   -1    0    0    0    0 -0.00000000000E+00 -0.00000000000E+00 -0.45593999997E+02  0.45594000000E+02  0.51100000000E-03 0. -1.
    9900012    2    1    2    0    0 -0.38203197720E+02 -0.12220372814E+02 -0.66590983881E+01  0.50528863031E+02  0.30000009669E+02 0.  0.
        -12    1    1    2    0    0  0.38203197720E+02  0.12220372814E+02  0.66590983881E+01  0.40659136969E+02  0.00000000000E+00 0.  1.
         11    1    3    3    0    0 -0.15489946177E+02 -0.41509752519E+01  0.45281785384E+01  0.16663535916E+02  0.51100000000E-03 0. -1.
        -11    1    3    3    0    0 -0.53155133346E+01  0.61460459123E+01  0.11934769822E+01  0.82129744876E+01  0.51100000000E-03 0.  1.
        -12    1    3    3    0    0 -0.17397738209E+02 -0.14215443474E+02 -0.12380753909E+02  0.25652352627E+02  0.00000000000E+00 0.  1.
</event>
<event>
 7    1  0.7743207E-013  0.5052886E+02  0.7816164E-02  0.1300439E+00
        -11   -1    0    0    0    0  0.00000000000E+00  0.00000000000E+00  0.45593999997E+02  0.45594000000E+02  0.51100000000E-03 0.  1.
         11   -1    0    0    0    0 -0.00000000000E+00 -0.00000000000E+00 -0.45593999997E+02  0.45594000000E+02  0.51100000000E-03 0. -1.
    9900012    2    1    2    0    0 -0.15301287510E+02  0.16097423255E+02 -0.34057443018E+02  0.50528857610E+02  0.29999993193E+02 0.  0.
        -12    1    1    2    0    0  0.15301287510E+02 -0.16097423255E+02  0.34057443018E+02  0.40659142390E+02  0.00000000000E+00 0.  1.
         11    1    3    3    0    0 -0.40206802824E+01  0.95850868145E+01 -0.17008501344E+02  0.19933110078E+02  0.51100000000E-03 0. -1.
        -11    1    3    3    0    0  0.52507846660E+01  0.55431904872E+01 -0.13044753176E+01  0.77459251546E+01  0.51100000000E-03 0.  1.
        -12    1    3    3    0    0 -0.16531391894E+02  0.96914595370E+00 -0.15744466357E+02  0.22849822378E+02  0.00000000000E+00 0.  1.
</event>
<event>
 7    1  0.6857839E-013  0.5052886E+02  0.7816164E-02  0.1300439E+00
        -11   -1    0    0    0    0  0.00000000000E+00  0.00000000000E+00  0.45593999997E+02  0.45594000000E+02  0.51100000000E-03 0.  1.
         11   -1    0    0    0    0 -0.00000000000E+00 -0.00000000000E+00 -0.45593999997E+02  0.45594000000E+02  0.51100000000E-03 0. -1.
    9900012    2    1    2    0    0  0.31794346067E+02 -0.24544617737E+02 -0.63124453539E+01  0.50528859970E+02  0.30000000364E+02 0.  0.
        -12    1    1    2    0    0 -0.31794346067E+02  0.24544617737E+02  0.63124453539E+01  0.40659140030E+02  0.00000000000E+00 0.  1.
         11    1    3    3    0    0  0.45099040614E+01 -0.56572882881E+01 -0.13889553098E+02  0.15660901345E+02  0.51100000000E-03 0. -1.
        -11    1    3    3    0    0  0.80010140858E+01 -0.47256299975E+01  0.56278188173E+01  0.10863707939E+02  0.51100000000E-03 0.  1.
        -12    1    3    3    0    0  0.19283427920E+02 -0.14161699451E+02  0.19492889267E+01  0.24004250686E+02  0.00000000000E+00 0.  1.
</event>
<event>
 7    1  0.6857839E-013  0.5052886E+02  0.7816164E-02  0.1300439E+00
        -11   -1    0    0    0    0  0.00000000000E+00  0.00000000000E+00  0.45593999997E+02  0.45594000000E+02  0.51100000000E-03 0.  1.
         11   -1    0    0    0    0 -0.00000000000E+00 -0.00000000000E+00 -0.45593999997E+02  0.45594000000E+02  0.51100000000E-03 0. -1.
    9900012    2    1    2    0    0 -0.30708299764E+01 -0.12440554550E+02 -0.38587149836E+02  0.50528861707E+02  0.30000005645E+02 0.  0.
        -12    1    1    2    0    0  0.30708299764E+01  0.12440554550E+02  0.38587149836E+02  0.40659138293E+02  0.00000000000E+00 0.  1.
         11    1    3    3    0    0  0.50386496971E+00  0.20883505751E+01 -0.35630391536E-02  0.21482786106E+01  0.51100000000E-03 0. -1.
        -11    1    3    3    0    0  0.53583025035E+01 -0.18175779688E+02 -0.20723751679E+02  0.28081030197E+02  0.51100000000E-03 0.  1.
         12    1    3    3    0    0 -0.89329974496E+01  0.36468745627E+01 -0.17859835118E+02  0.20299552900E+02  0.00000000000E+00 0. -1.
</event>
<event>
 7    1  0.6857839E-013  0.5052887E+02  0.7816164E-02  0.1300439E+00
        -11   -1    0    0    0    0  0.00000000000E+00  0.00000000000E+00  0.45593999997E+02  0.45594000000E+02  0.51100000000E-03 0. -1.
         11   -1    0    0    0    0 -0.00000000000E+00 -0.00000000000E+00 -0.45593999997E+02  0.45594000000E+02  0.51100000000E-03 0.  1.
    9900012    2    1    2    0    0  0.90407304104E+01 -0.19907127904E+02  0.34280263438E+02  0.50528868072E+02  0.30000024991E+02 0.  0.
        -12    1    1    2    0    0 -0.90407304104E+01  0.19907127904E+02 -0.34280263438E+02  0.40659131928E+02  0.00000000000E+00 0.  1.
         11    1    3    3    0    0  0.59048061517E+00 -0.53201335341E+01  0.19058428188E+01  0.56819649144E+01  0.51100000000E-03 0. -1.
        -11    1    3    3    0    0  0.56109433889E+01 -0.96862779464E+01 -0.77146453644E+00  0.11220598200E+02  0.51100000000E-03 0.  1.
        -12    1    3    3    0    0  0.28393064063E+01 -0.49007164236E+01  0.33145885156E+02  0.33626304958E+02  0.00000000000E+00 0.  1.
</event>
<event>
 7    1  0.6857839E-013  0.5052885E+02  0.7816164E-02  0.1300439E+00
        -11   -1    0    0    0    0  0.00000000000E+00  0.00000000000E+00  0.45593999997E+02  0.45594000000E+02  0.51100000000E-03 0. -1.
         11   -1    0    0    0    0 -0.00000000000E+00 -0.00000000000E+00 -0.45593999997E+02  0.45594000000E+02  0.51100000000E-03 0.  1.
    9900012    2    1    2    0    0  0.38734369692E+01  0.95065859295E+01  0.39341929564E+02  0.50528854512E+02  0.29999983775E+02 0.  0.
        -12    1    1    2    0    0 -0.38734369692E+01 -0.95065859295E+01 -0.39341929564E+02  0.40659145488E+02  0.00000000000E+00 0.  1.
         11    1    3    3    0    0 -0.27833067994E+01  0.12140679241E+02  0.15545289035E+02  0.19919811762E+02  0.51100000000E-03 0. -1.
        -11    1    3    3    0    0 -0.38469535890E+01 -0.62240119576E+01  0.14032151562E+02  0.15825253694E+02  0.51100000000E-03 0.  1.
         12    1    3    3    0    0  0.10503697358E+02  0.35899186459E+01  0.97644889666E+01  0.14783789056E+02  0.00000000000E+00 0. -1.
</event>
<event>
 7    1  0.6924562E-013  0.5052885E+02  0.7816164E-02  0.1300439E+00
        -11   -1    0    0    0    0  0.00000000000E+00  0.00000000000E+00  0.45593999997E+02  0.45594000000E+02  0.51100000000E-03 0. -1.
         11   -1    0    0    0    0 -0.00000000000E+00 -0.00000000000E+00 -0.45593999997E+02  0.45594000000E+02  0.51100000000E-03 0.  1.
    9900012    2    1    2    0    0  0.82964688728E+01 -0.32283219597E+02  0.23283666270E+02  0.50528846316E+02  0.29999958862E+02 0.  0.
        -12    1    1    2    0    0 -0.82964688728E+01  0.32283219597E+02 -0.23283666270E+02  0.40659153684E+02  0.00000000000E+00 0.  1.
         11    1    3    3    0    0  0.14572493933E+02 -0.22996915894E+02  0.19816006385E+02  0.33673280644E+02  0.51100000000E-03 0. -1.
        -11    1    3    3    0    0  0.16551213977E+01 -0.53044648350E+01 -0.25696717345E+01  0.61220900934E+01  0.51100000000E-03 0.  1.
        -12    1    3    3    0    0 -0.79311464574E+01 -0.39818388682E+01  0.60373316196E+01  0.10733475578E+02  0.00000000000E+00 0.  1.
</event>
<event>
 7    1  0.6857839E-013  0.5052886E+02  0.7816164E-02  0.1300439E+00
        -11   -1    0    0    0    0  0.00000000000E+00  0.00000000000E+00  0.45593999997E+02  0.45594000000E+02  0.51100000000E-03 0.  1.
         11   -1    0    0    0    0 -0.00000000000E+00 -0.00000000000E+00 -0.45593999997E+02  0.45594000000E+02  0.51100000000E-03 0. -1.
    9900012    2    1    2    0    0 -0.11073754457E+02  0.17761570395E+02 -0.34857768574E+02  0.50528862643E+02  0.30000008490E+02 0.  0.
        -12    1    1    2    0    0  0.11073754457E+02 -0.17761570395E+02  0.34857768574E+02  0.40659137357E+02  0.00000000000E+00 0.  1.
         11    1    3    3    0    0  0.13494156733E+01  0.30561279517E+01 -0.27034712458E+02  0.27240347256E+02  0.51100000000E-03 0. -1.
        -11    1    3    3    0    0 -0.23668307458E+00  0.62717670953E+01  0.49125005015E+00  0.62954275668E+01  0.51100000000E-03 0.  1.
        -12    1    3    3    0    0 -0.12186487055E+02  0.84336753482E+01 -0.83143061663E+01  0.16993087820E+02  0.00000000000E+00 0.  1.
</event>
<event>
 7    1 -0.6857839E-013  0.5052889E+02  0.7816164E-02  0.1300439E+00
        -11   -1    0    0    0    0  0.00000000000E+00  0.00000000000E+00  0.45593999997E+02  0.45594000000E+02  0.51100000000E-03 0.  1.
         11   -1    0    0    0    0 -0.00000000000E+00 -0.00000000000E+00 -0.45593999997E+02  0.45594000000E+02  0.51100000000E-03 0. -1.
    9900012    2    1    2    0    0 -0.28524854322E+02  0.38100550374E+01 -0.28722453087E+02  0.50528890998E+02  0.30000094677E+02 0.  0.
        -12    1    1    2    0    0  0.28524854322E+02 -0.38100550374E+01  0.28722453087E+02  0.40659109002E+02  0.00000000000E+00 0.  1.
         11    1    3    3    0    0 -0.25330922125E+02  0.35239940506E+01 -0.21751538811E+02  0.33573852783E+02  0.51100000000E-03 0. -1.
        -11    1    3    3    0    0 -0.87229572556E+01 -0.25257524107E+01 -0.28898785995E+01  0.95299951262E+01  0.51100000000E-03 0.  1.
        -12    1    3    3    0    0  0.55290250581E+01  0.28118133975E+01 -0.40810356764E+01  0.74250430887E+01  0.00000000000E+00 0.  1.
</event>
<event>
 7    1  0.6857839E-013  0.5052886E+02  0.7816164E-02  0.1300439E+00
        -11   -1    0    0    0    0  0.00000000000E+00  0.00000000000E+00  0.45593999997E+02  0.45594000000E+02  0.51100000000E-03 0. -1.
         11   -1    0    0    0    0 -0.00000000000E+00 -0.00000000000E+00 -0.45593999997E+02  0.45594000000E+02  0.51100000000E-03 0.  1.
    9900012    2    1    2    0    0  0.17082834097E+02 -0.29920620993E+02  0.21589327767E+02  0.50528857672E+02  0.29999993379E+02 0.  0.
        -12    1    1    2    0    0 -0.17082834097E+02  0.29920620993E+02 -0.21589327767E+02  0.40659142328E+02  0.00000000000E+00 0.  1.
         11    1    3    3    0    0 -0.57907066051E+01 -0.76188745985E+01  0.73089994659E+01  0.12041636375E+02  0.51100000000E-03 0. -1.
        -11    1    3    3    0    0  0.48628457943E+01  0.27434687484E+00 -0.20786975958E+01  0.52956132207E+01  0.51100000000E-03 0.  1.
         12    1    3    3    0    0  0.18010694908E+02 -0.22576093270E+02  0.16359025897E+02  0.33191608076E+02  0.00000000000E+00 0. -1.
</event>
<event>
 7    1  0.6857839E-013  0.5052886E+02  0.7816164E-02  0.1300439E+00
        -11   -1    0    0    0    0  0.00000000000E+00  0.00000000000E+00  0.45593999997E+02  0.45594000000E+02  0.51100000000E-03 0.  1.
         11   -1    0    0    0    0 -0.00000000000E+00 -0.00000000000E+00 -0.45593999997E+02  0.45594000000E+02  0.51100000000E-03 0. -1.
    9900012    2    1    2    0    0  0.27435344586E+02  0.24740623735E+02 -0.16981432350E+02  0.50528860314E+02  0.30000001410E+02 0.  0.
        -12    1    1    2    0    0 -0.27435344586E+02 -0.24740623735E+02  0.16981432350E+02  0.40659139686E+02  0.00000000000E+00 0.  1.
         11    1    3    3    0    0  0.22224754709E+02  0.23634959068E+01 -0.68640483255E+01  0.23380354883E+02  0.51100000000E-03 0. -1.
        -11    1    3    3    0    0  0.20456168788E+01  0.31623749617E+01  0.19477807291E+01  0.42401667235E+01  0.51100000000E-03 0.  1.
        -12    1    3    3    0    0  0.31649729979E+01  0.19214752866E+02 -0.12065164754E+02  0.22908338707E+02  0.00000000000E+00 0.  1.
</event>
<event>
 7    1  0.6857839E-013  0.5052886E+02  0.7816164E-02  0.1300439E+00
        -11   -1    0    0    0    0  0.00000000000E+00  0.00000000000E+00  0.45593999997E+02  0.45594000000E+02  0.51100000000E-03 0.  1.
         11   -1    0    0    0    0 -0.00000000000E+00 -0.00000000000E+00 -0.45593999997E+02  0.45594000000E+02  0.51100000000E-03 0. -1.
    9900012    2    1    2    0    0  0.56011065667E+01 -0.25367387310E+02 -0.31277617159E+02  0.50528855041E+02  0.29999985381E+02 0.  0.
        -12    1    1    2    0    0 -0.56011065667E+01  0.25367387310E+02  0.31277617159E+02  0.40659144959E+02  0.00000000000E+00 0.  1.
         11    1    3    3    0    0 -0.33045316899E+01 -0.26942785155E+02 -0.17741342433E+02  0.32428210454E+02  0.51100000000E-03 0. -1.
        -11    1    3    3    0    0 -0.59298139214E+00  0.43651967881E+00 -0.56632503994E+01  0.57109177642E+01  0.51100000000E-03 0.  1.
        -12    1    3    3    0    0  0.94986196487E+01  0.11388781666E+01 -0.78730243259E+01  0.12389726823E+02  0.00000000000E+00 0.  1.
</event>
<event>
 7    1  0.6857839E-013  0.5052886E+02  0.7816164E-02  0.1300439E+00
        -11   -1    0    0    0    0  0.00000000000E+00  0.00000000000E+00  0.45593999997E+02  0.45594000000E+02  0.51100000000E-03 0.  1.
         11   -1    0    0    0    0 -0.00000000000E+00 -0.00000000000E+00 -0.45593999997E+02  0.45594000000E+02  0.51100000000E-03 0. -1.
    9900012    2    1    2    0    0  0.10362430153E+02 -0.37782278323E+02  0.10875886370E+02  0.50528863040E+02  0.30000009698E+02 0.  0.
        -12    1    1    2    0    0 -0.10362430153E+02  0.37782278323E+02 -0.10875886370E+02  0.40659136960E+02  0.00000000000E+00 0.  1.
         11    1    3    3    0    0  0.24551882616E+00 -0.16886226833E+02  0.44240928506E+01  0.17457878850E+02  0.51100000000E-03 0. -1.
        -11    1    3    3    0    0  0.22896891849E+01 -0.22542839244E+02 -0.21266408403E+00  0.22659821359E+02  0.51100000000E-03 0.  1.
        -12    1    3    3    0    0  0.78272221415E+01  0.16467877533E+01  0.66644576030E+01  0.10411162831E+02  0.00000000000E+00 0.  1.
</event>
<event>
 7    1  0.6857839E-013  0.5052886E+02  0.7816164E-02  0.1300439E+00
        -11   -1    0    0    0    0  0.00000000000E+00  0.00000000000E+00  0.45593999997E+02  0.45594000000E+02  0.51100000000E-03 0.  1.
         11   -1    0    0    0    0 -0.00000000000E+00 -0.00000000000E+00 -0.45593999997E+02  0.45594000000E+02  0.51100000000E-03 0. -1.
    9900012    2    1    2    0    0  0.24953125418E+02 -0.48565113049E+01 -0.31732023883E+02  0.50528861914E+02  0.30000006273E+02 0.  0.
        -12    1    1    2    0    0 -0.24953125418E+02  0.48565113049E+01  0.31732023883E+02  0.40659138086E+02  0.00000000000E+00 0.  1.
         11    1    3    3    0    0  0.84860487684E+01 -0.11235133838E+01 -0.41069162216E+01  0.94943176235E+01  0.51100000000E-03 0. -1.
        -11    1    3    3    0    0  0.93892385262E+00 -0.48595568195E+01  0.36155541425E+01  0.61293639557E+01  0.51100000000E-03 0.  1.
         12    1    3    3    0    0  0.15528152797E+02  0.11265588984E+01 -0.31240661804E+02  0.34905180335E+02  0.00000000000E+00 0. -1.
</event>
<event>
 7    1  0.6857839E-013  0.5052886E+02  0.7816164E-02  0.1300439E+00
        -11   -1    0    0    0    0  0.00000000000E+00  0.00000000000E+00  0.45593999997E+02  0.45594000000E+02  0.51100000000E-03 0.  1.
         11   -1    0    0    0    0 -0.00000000000E+00 -0.00000000000E+00 -0.45593999997E+02  0.45594000000E+02  0.51100000000E-03 0. -1.
    9900012    2    1    2    0    0  0.15161648515E+02  0.18665529818E+02 -0.32785480468E+02  0.50528864267E+02  0.30000013425E+02 0.  0.
        -12    1    1    2    0    0 -0.15161648515E+02 -0.18665529818E+02  0.32785480468E+02  0.40659135733E+02  0.00000000000E+00 0.  1.
         11    1    3    3    0    0  0.23141900166E+01  0.12093091310E+02 -0.12038306466E+02  0.17219731580E+02  0.51100000000E-03 0. -1.
        -11    1    3    3    0    0  0.16108744632E+02  0.11747559178E+02 -0.15617524352E+02  0.25325952448E+02  0.51100000000E-03 0.  1.
         12    1    3    3    0    0 -0.32612861334E+01 -0.51751206699E+01 -0.51296496491E+01  0.79831802381E+01  0.00000000000E+00 0. -1.
</event>
<event>
 7    1  0.6857839E-013  0.5052886E+02  0.7816164E-02  0.1300439E+00
        -11   -1    0    0    0    0  0.00000000000E+00  0.00000000000E+00  0.45593999997E+02  0.45594000000E+02  0.51100000000E-03 0.  1.
         11   -1    0    0    0    0 -0.00000000000E+00 -0.00000000000E+00 -0.45593999997E+02  0.45594000000E+02  0.51100000000E-03 0. -1.
    9900012    2    1    2    0    0 -0.26446072885E+02 -0.28217400963E+01 -0.30754001895E+02  0.50528860551E+02  0.30000002129E+02 0.  0.
        -12    1    1    2    0    0  0.26446072885E+02  0.28217400963E+01  0.30754001895E+02  0.40659139449E+02  0.00000000000E+00 0.  1.
         11    1    3    3    0    0 -0.21096437225E+01  0.48227400485E+01  0.15836930967E+01  0.54970448694E+01  0.51100000000E-03 0. -1.
        -11    1    3    3    0    0 -0.87602047143E+00 -0.76464861983E+01 -0.59878441823E+01  0.97514327798E+01  0.51100000000E-03 0.  1.
         12    1    3    3    0    0 -0.23460408692E+02  0.20060535420E-02 -0.26349850809E+02  0.35280382901E+02  0.00000000000E+00 0. -1.
</event>
<event>
 7    1  0.6857839E-013  0.5052886E+02  0.7816164E-02  0.1300439E+00
        -11   -1    0    0    0    0  0.00000000000E+00  0.00000000000E+00  0.45593999997E+02  0.45594000000E+02  0.51100000000E-03 0.  1.
         11   -1    0    0    0    0 -0.00000000000E+00 -0.00000000000E+00 -0.45593999997E+02  0.45594000000E+02  0.51100000000E-03 0. -1.
    9900012    2    1    2    0    0 -0.25465487854E+02  0.25595018086E+02 -0.18696774736E+02  0.50528863167E+02  0.30000010084E+02 0.  0.
        -12    1    1    2    0    0  0.25465487854E+02 -0.25595018086E+02  0.18696774736E+02  0.40659136833E+02  0.00000000000E+00 0.  1.
         11    1    3    3    0    0 -0.12566045927E+02  0.20652436537E+02 -0.41870393684E+01  0.24534872001E+02  0.51100000000E-03 0. -1.
        -11    1    3    3    0    0 -0.55881905331E+01  0.63092397624E+01  0.12944726956E+01  0.85270182147E+01  0.51100000000E-03 0.  1.
         12    1    3    3    0    0 -0.73112513939E+01 -0.13666582133E+01 -0.15804208063E+02  0.17466972952E+02  0.00000000000E+00 0. -1.
</event>
<event>
 7    1  0.6857839E-013  0.5052884E+02  0.7816164E-02  0.1300439E+00
        -11   -1    0    0    0    0  0.00000000000E+00  0.00000000000E+00  0.45593999997E+02  0.45594000000E+02  0.51100000000E-03 0.  1.
         11   -1    0    0    0    0 -0.00000000000E+00 -0.00000000000E+00 -0.45593999997E+02  0.45594000000E+02  0.51100000000E-03 0. -1.
    9900012    2    1    2    0    0 -0.56574130400E+01  0.16342982334E+02 -0.36797659526E+02  0.50528841862E+02  0.29999945324E+02 0.  0.
        -12    1    1    2    0    0  0.56574130400E+01 -0.16342982334E+02  0.36797659526E+02  0.40659158138E+02  0.00000000000E+00 0.  1.
         11    1    3    3    0    0 -0.85502092053E+01  0.50232501791E+01 -0.21818838895E+02  0.23966661236E+02  0.51100000000E-03 0. -1.
        -11    1    3    3    0    0 -0.25553347615E+01  0.13745338616E+02 -0.15124807673E+02  0.20596695774E+02  0.51100000000E-03 0.  1.
        -12    1    3    3    0    0  0.54481309268E+01 -0.24256064612E+01  0.14598704198E+00  0.59654848517E+01  0.00000000000E+00 0.  1.
</event>
<event>
 7    1  0.6857839E-013  0.5052886E+02  0.7816164E-02  0.1300439E+00
        -11   -1    0    0    0    0  0.00000000000E+00  0.00000000000E+00  0.45593999997E+02  0.45594000000E+02  0.51100000000E-03 0.  1.
         11   -1    0    0    0    0 -0.00000000000E+00 -0.00000000000E+00 -0.45593999997E+02  0.45594000000E+02  0.51100000000E-03 0. -1.
    9900012    2    1    2    0    0 -0.39710293548E+02 -0.36730665513E+01 -0.79225360872E+01  0.50528863147E+02  0.30000010022E+02 0.  0.
        -12    1    1    2    0    0  0.39710293548E+02  0.36730665513E+01  0.79225360872E+01  0.40659136853E+02  0.00000000000E+00 0.  1.
         11    1    3    3    0    0  0.27314458163E+00  0.39211581100E+00 -0.18181156034E+01  0.18798689795E+01  0.51100000000E-03 0. -1.
        -11    1    3    3    0    0 -0.35300637367E+02 -0.25413280725E+00 -0.14620847601E+02  0.38209537643E+02  0.51100000000E-03 0.  1.
        -12    1    3    3    0    0 -0.46828007625E+01 -0.38110495550E+01  0.85164271176E+01  0.10439456525E+02  0.00000000000E+00 0.  1.
</event>
<event>
 7    1  0.6857839E-013  0.5052888E+02  0.7816164E-02  0.1300439E+00
        -11   -1    0    0    0    0  0.00000000000E+00  0.00000000000E+00  0.45593999997E+02  0.45594000000E+02  0.51100000000E-03 0. -1.
         11   -1    0    0    0    0 -0.00000000000E+00 -0.00000000000E+00 -0.45593999997E+02  0.45594000000E+02  0.51100000000E-03 0.  1.
    9900012    2    1    2    0    0  0.21448599602E+02  0.15323646398E+02  0.30956544748E+02  0.50528877696E+02  0.30000054245E+02 0.  0.
        -12    1    1    2    0    0 -0.21448599602E+02 -0.15323646398E+02 -0.30956544748E+02  0.40659122304E+02  0.00000000000E+00 0.  1.
         11    1    3    3    0    0 -0.87183740464E+00  0.36935759390E+01  0.89228559463E+01  0.96963891308E+01  0.51100000000E-03 0. -1.
        -11    1    3    3    0    0  0.47800093671E+01  0.10042526097E+02 -0.17278608263E+01  0.11255501910E+02  0.51100000000E-03 0.  1.
         12    1    3    3    0    0  0.17540427639E+02  0.15875443620E+01  0.23761549628E+02  0.29576986655E+02  0.00000000000E+00 0. -1.
</event>
<event>
 7    1  0.6857839E-013  0.5052886E+02  0.7816164E-02  0.1300439E+00
        -11   -1    0    0    0    0  0.00000000000E+00  0.00000000000E+00  0.45593999997E+02  0.45594000000E+02  0.51100000000E-03 0. -1.
         11   -1    0    0    0    0 -0.00000000000E+00 -0.00000000000E+00 -0.45593999997E+02  0.45594000000E+02  0.51100000000E-03 0.  1.
    9900012    2    1    2    0    0  0.28696645524E+02  0.25105757009E+02 -0.14119813614E+02  0.50528860365E+02  0.30000001566E+02 0.  0.
        -12    1    1    2    0    0 -0.28696645524E+02 -0.25105757009E+02  0.14119813614E+02  0.40659139635E+02  0.00000000000E+00 0.  1.
         11    1    3    3    0    0 -0.40013231454E+01 -0.20481882427E+01 -0.60364037336E-01  0.44954761783E+01  0.51100000000E-03 0. -1.
        -11    1    3    3    0    0  0.22792120954E+01  0.68662133357E+01 -0.30198851938E+01  0.78396045941E+01  0.51100000000E-03 0.  1.
        -12    1    3    3    0    0  0.30418756574E+02  0.20287731916E+02 -0.11039564383E+02  0.38193779593E+02  0.00000000000E+00 0.  1.
</event>
<event>
 7    1  0.6857839E-013  0.5052886E+02  0.7816164E-02  0.1300439E+00
        -11   -1    0    0    0    0  0.00000000000E+00  0.00000000000E+00  0.45593999997E+02  0.45594000000E+02  0.51100000000E-03 0. -1.
         11   -1    0    0    0    0 -0.00000000000E+00 -0.00000000000E+00 -0.45593999997E+02  0.45594000000E+02  0.51100000000E-03 0.  1.
    9900012    2    1    2    0    0 -0.27079508018E+02 -0.30133609574E+02  0.34397386862E+01  0.50528856100E+02  0.29999988601E+02 0.  0.
        -12    1    1    2    0    0  0.27079508018E+02  0.30133609574E+02 -0.34397386862E+01  0.40659143900E+02  0.00000000000E+00 0.  1.
         11    1    3    3    0    0 -0.76559987011E+01 -0.47817423890E+01 -0.45347883551E+01  0.10101667292E+02  0.51100000000E-03 0. -1.
        -11    1    3    3    0    0 -0.21970873956E+02 -0.11418818325E+02  0.86990747875E+01  0.26244668349E+02  0.51100000000E-03 0.  1.
        -12    1    3    3    0    0  0.25473646390E+01 -0.13933048860E+02 -0.72454774620E+00  0.14182520460E+02  0.00000000000E+00 0.  1.
</event>
<event>
 7    1  0.6857839E-013  0.5052888E+02  0.7816164E-02  0.1300439E+00
        -11   -1    0    0    0    0  0.00000000000E+00  0.00000000000E+00  0.45593999997E+02  0.45594000000E+02  0.51100000000E-03 0.  1.
         11   -1    0    0    0    0 -0.00000000000E+00 -0.00000000000E+00 -0.45593999997E+02  0.45594000000E+02  0.51100000000E-03 0. -1.
    9900012    2    1    2    0    0 -0.24904426772E+02  0.19136344875E+02  0.25821186256E+02  0.50528882600E+02  0.30000069152E+02 0.  0.
        -12    1    1    2    0    0  0.24904426772E+02 -0.19136344875E+02 -0.25821186256E+02  0.40659117400E+02  0.00000000000E+00 0.  1.
         11    1    3    3    0    0 -0.21244936512E+02  0.64267483574E+01  0.26944481735E+01  0.22358677802E+02  0.51100000000E-03 0. -1.
        -11    1    3    3    0    0 -0.63597640950E+01  0.77046825209E+01  0.11544132632E+02  0.15266817959E+02  0.51100000000E-03 0.  1.
        -12    1    3    3    0    0  0.27002738347E+01  0.50049139970E+01  0.11582605451E+02  0.12903386839E+02  0.00000000000E+00 0.  1.
</event>
<event>
 7    1  0.6857839E-013  0.5052886E+02  0.7816164E-02  0.1300439E+00
        -11   -1    0    0    0    0  0.00000000000E+00  0.00000000000E+00  0.45593999997E+02  0.45594000000E+02  0.51100000000E-03 0. -1.
         11   -1    0    0    0    0 -0.00000000000E+00 -0.00000000000E+00 -0.45593999997E+02  0.45594000000E+02  0.51100000000E-03 0.  1.
    9900012    2    1    2    0    0 -0.28901081416E+02  0.17048493678E+02  0.22961757226E+02  0.50528856642E+02  0.29999990248E+02 0.  0.
        -12    1    1    2    0    0  0.28901081416E+02 -0.17048493678E+02 -0.22961757226E+02  0.40659143358E+02  0.00000000000E+00 0.  1.
         11    1    3    3    0    0 -0.13654612798E+02  0.10002526320E+02  0.35089408381E+01  0.17286169312E+02  0.51100000000E-03 0. -1.
        -11    1    3    3    0    0  0.40674098988E+01 -0.24347603438E+01  0.88345063289E+00  0.48220707687E+01  0.51100000000E-03 0.  1.
         12    1    3    3    0    0 -0.19313878517E+02  0.94807277023E+01  0.18569365755E+02  0.28420616561E+02  0.00000000000E+00 0. -1.
</event>
<event>
 7    1  0.6857839E-013  0.5052886E+02  0.7816164E-02  0.1300439E+00
        -11   -1    0    0    0    0  0.00000000000E+00  0.00000000000E+00  0.45593999997E+02  0.45594000000E+02  0.51100000000E-03 0.  1.
         11   -1    0    0    0    0 -0.00000000000E+00 -0.00000000000E+00 -0.45593999997E+02  0.45594000000E+02  0.51100000000E-03 0. -1.
    9900012    2    1    2    0    0  0.13190012187E+02 -0.57388967716E+01 -0.38029649018E+02  0.50528861273E+02  0.30000004324E+02 0.  0.
        -12    1    1    2    0    0 -0.13190012187E+02  0.57388967716E+01  0.38029649018E+02  0.40659138727E+02  0.00000000000E+00 0.  1.
         11    1    3    3    0    0 -0.65875883202E-01 -0.85133629793E+01 -0.15453072007E+02  0.17643104136E+02  0.51100000000E-03 0. -1.
        -11    1    3    3    0    0  0.17277979601E+02 -0.34392123133E+00 -0.11677305053E+02  0.20856804992E+02  0.51100000000E-03 0.  1.
         12    1    3    3    0    0 -0.40220915304E+01  0.31183874390E+01 -0.10899271958E+02  0.12028952145E+02  0.00000000000E+00 0. -1.
</event>
<event>
 7    1  0.6857839E-013  0.5052886E+02  0.7816164E-02  0.1300439E+00
        -11   -1    0    0    0    0  0.00000000000E+00  0.00000000000E+00  0.45593999997E+02  0.45594000000E+02  0.51100000000E-03 0. -1.
         11   -1    0    0    0    0 -0.00000000000E+00 -0.00000000000E+00 -0.45593999997E+02  0.45594000000E+02  0.51100000000E-03 0.  1.
    9900012    2    1    2    0    0 -0.87930238650E+01  0.39674009027E+02 -0.13496706441E+01  0.50528857464E+02  0.29999992747E+02 0.  0.
        -12    1    1    2    0    0  0.87930238650E+01 -0.39674009027E+02  0.13496706441E+01  0.40659142536E+02  0.00000000000E+00 0.  1.
         11    1    3    3    0    0 -0.38459487614E+01  0.30337603810E+02 -0.56921060682E+01  0.31105652196E+02  0.51100000000E-03 0. -1.
        -11    1    3    3    0    0 -0.85361025887E+01  0.38058028081E+01 -0.27474206481E+01  0.97415349354E+01  0.51100000000E-03 0.  1.
        -12    1    3    3    0    0  0.35890274851E+01  0.55306024086E+01  0.70898560722E+01  0.96816703319E+01  0.00000000000E+00 0.  1.
</event>
<event>
 7    1  0.6857839E-013  0.5052884E+02  0.7816164E-02  0.1300439E+00
        -11   -1    0    0    0    0  0.00000000000E+00  0.00000000000E+00  0.45593999997E+02  0.45594000000E+02  0.51100000000E-03 0.  1.
         11   -1    0    0    0    0 -0.00000000000E+00 -0.00000000000E+00 -0.45593999997E+02  0.45594000000E+02  0.51100000000E-03 0. -1.
    9900012    2    1    2    0    0 -0.24221652011E+02  0.23335518595E+02 -0.22845838373E+02  0.50528841312E+02  0.29999943652E+02 0.  0.
        -12    1    1    2    0    0  0.24221652011E+02 -0.23335518595E+02  0.22845838373E+02  0.40659158688E+02  0.00000000000E+00 0.  1.
         11    1    3    3    0    0  0.99161593829E+00 -0.73057839794E+00  0.12481896013E+01  0.17535747793E+01  0.51100000000E-03 0. -1.
        -11    1    3    3    0    0 -0.12971526279E+02 -0.91197027729E+00 -0.14192642306E+02  0.19248981263E+02  0.51100000000E-03 0.  1.
        -12    1    3    3    0    0 -0.12241741671E+02  0.24978067270E+02 -0.99013856685E+01  0.29526285270E+02  0.00000000000E+00 0.  1.
</event>
<event>
 7    1  0.6857839E-013  0.5052886E+02  0.7816164E-02  0.1300439E+00
        -11   -1    0    0    0    0  0.00000000000E+00  0.00000000000E+00  0.45593999997E+02  0.45594000000E+02  0.51100000000E-03 0.  1.
         11   -1    0    0    0    0 -0.00000000000E+00 -0.00000000000E+00 -0.45593999997E+02  0.45594000000E+02  0.51100000000E-03 0. -1.
    9900012    2    1    2    0    0 -0.91271231552E+01 -0.14064030841E+02 -0.37041382167E+02  0.50528864084E+02  0.30000012871E+02 0.  0.
        -12    1    1    2    0    0  0.91271231552E+01  0.14064030841E+02  0.37041382167E+02  0.40659135916E+02  0.00000000000E+00 0.  1.
         11    1    3    3    0    0 -0.48223739098E+00  0.37876251567E+01 -0.17713380955E+02  0.18120224125E+02  0.51100000000E-03 0. -1.
        -11    1    3    3    0    0 -0.51721578600E+01  0.34823834645E+00  0.57571373556E+00  0.52157390120E+01  0.51100000000E-03 0.  1.
        -12    1    3    3    0    0 -0.34727279043E+01 -0.18199894344E+02 -0.19903714947E+02  0.27192900948E+02  0.00000000000E+00 0.  1.
</event>
<event>
 7    1  0.6857839E-013  0.5052886E+02  0.7816164E-02  0.1300439E+00
        -11   -1    0    0    0    0  0.00000000000E+00  0.00000000000E+00  0.45593999997E+02  0.45594000000E+02  0.51100000000E-03 0. -1.
         11   -1    0    0    0    0 -0.00000000000E+00 -0.00000000000E+00 -0.45593999997E+02  0.45594000000E+02  0.51100000000E-03 0.  1.
    9900012    2    1    2    0    0 -0.59417432278E+00 -0.31516352373E+01  0.40532450900E+02  0.50528862973E+02  0.30000009493E+02 0.  0.
        -12    1    1    2    0    0  0.59417432278E+00  0.31516352373E+01 -0.40532450900E+02  0.40659137027E+02  0.00000000000E+00 0.  1.
         11    1    3    3    0    0 -0.29655029678E+01 -0.11111835920E+02  0.91916957594E+01  0.14722580499E+02  0.51100000000E-03 0. -1.
        -11    1    3    3    0    0  0.40695684440E+01  0.11186210617E+01  0.59436114805E+00  0.42621550694E+01  0.51100000000E-03 0.  1.
         12    1    3    3    0    0 -0.16982397990E+01  0.68415796212E+01  0.30746393993E+02  0.31544127404E+02  0.00000000000E+00 0. -1.
</event>
<event>
 7    1  0.6857839E-013  0.5052887E+02  0.7816164E-02  0.1300439E+00
        -11   -1    0    0    0    0  0.00000000000E+00  0.00000000000E+00  0.45593999997E+02  0.45594000000E+02  0.51100000000E-03 0.  1.
         11   -1    0    0    0    0 -0.00000000000E+00 -0.00000000000E+00 -0.45593999997E+02  0.45594000000E+02  0.51100000000E-03 0. -1.
    9900012    2    1    2    0    0  0.29579120251E+02  0.97117022178E+01 -0.26151933452E+02  0.50528866486E+02  0.30000020171E+02 0.  0.
        -12    1    1    2    0    0 -0.29579120251E+02 -0.97117022178E+01  0.26151933452E+02  0.40659133514E+02  0.00000000000E+00 0.  1.
         11    1    3    3    0    0  0.12643840954E+02  0.83766909005E+01 -0.21431775011E+02  0.26255602163E+02  0.51100000000E-03 0. -1.
        -11    1    3    3    0    0  0.16694512750E+02  0.69874821837E+01 -0.42899370544E+01  0.18599333951E+02  0.51100000000E-03 0.  1.
        -12    1    3    3    0    0  0.24076654679E+00 -0.56524708665E+01 -0.43022138657E+00  0.56739303721E+01  0.00000000000E+00 0.  1.
</event>
<event>
 7    1  0.6857839E-013  0.5052885E+02  0.7816164E-02  0.1300439E+00
        -11   -1    0    0    0    0  0.00000000000E+00  0.00000000000E+00  0.45593999997E+02  0.45594000000E+02  0.51100000000E-03 0.  1.
         11   -1    0    0    0    0 -0.00000000000E+00 -0.00000000000E+00 -0.45593999997E+02  0.45594000000E+02  0.51100000000E-03 0. -1.
    9900012    2    1    2    0    0 -0.29255684166E+02  0.69637708345E+01 -0.27363796344E+02  0.50528849608E+02  0.29999968869E+02 0.  0.
        -12    1    1    2    0    0  0.29255684166E+02 -0.69637708345E+01  0.27363796344E+02  0.40659150392E+02  0.00000000000E+00 0.  1.
         11    1    3    3    0    0 -0.17424404436E+02  0.46380937082E+01 -0.95465840698E+01  0.20402427573E+02  0.51100000000E-03 0. -1.
        -11    1    3    3    0    0 -0.98146299408E+01 -0.26895185185E+01  0.13004858825E+01  0.10259226800E+02  0.51100000000E-03 0.  1.
        -12    1    3    3    0    0 -0.20166497888E+01  0.50151956448E+01 -0.19117698156E+02  0.19867195236E+02  0.00000000000E+00 0.  1.
</event>
<event>
 7    1  0.6857839E-013  0.5052886E+02  0.7816164E-02  0.1300439E+00
        -11   -1    0    0    0    0  0.00000000000E+00  0.00000000000E+00  0.45593999997E+02  0.45594000000E+02  0.51100000000E-03 0.  1.
         11   -1    0    0    0    0 -0.00000000000E+00 -0.00000000000E+00 -0.45593999997E+02  0.45594000000E+02  0.51100000000E-03 0. -1.
    9900012    2    1    2    0    0 -0.17454077736E+02  0.36678307724E+02  0.17950574039E+01  0.50528864272E+02  0.30000013440E+02 0.  0.
        -12    1    1    2    0    0  0.17454077736E+02 -0.36678307724E+02 -0.17950574039E+01  0.40659135728E+02  0.00000000000E+00 0.  1.
         11    1    3    3    0    0 -0.80204938501E+01  0.85657838058E+01 -0.11362875412E+02  0.16334500657E+02  0.51100000000E-03 0. -1.
        -11    1    3    3    0    0 -0.43966740802E+01  0.18931272660E+01  0.28739715134E+01  0.55834027558E+01  0.51100000000E-03 0.  1.
         12    1    3    3    0    0 -0.50369098058E+01  0.26219396652E+02  0.10283961303E+02  0.28610960859E+02  0.00000000000E+00 0. -1.
</event>
<event>
 7    1  0.6857839E-013  0.5052886E+02  0.7816164E-02  0.1300439E+00
        -11   -1    0    0    0    0  0.00000000000E+00  0.00000000000E+00  0.45593999997E+02  0.45594000000E+02  0.51100000000E-03 0.  1.
         11   -1    0    0    0    0 -0.00000000000E+00 -0.00000000000E+00 -0.45593999997E+02  0.45594000000E+02  0.51100000000E-03 0. -1.
    9900012    2    1    2    0    0 -0.21620244254E+02 -0.17114501151E+02 -0.29880167106E+02  0.50528862066E+02  0.30000006736E+02 0.  0.
        -12    1    1    2    0    0  0.21620244254E+02  0.17114501151E+02  0.29880167106E+02  0.40659137934E+02  0.00000000000E+00 0.  1.
         11    1    3    3    0    0 -0.41929661855E+01  0.41029631489E+01 -0.12597748436E+02  0.13896709609E+02  0.51100000000E-03 0. -1.
        -11    1    3    3    0    0 -0.15287372687E+02 -0.52823823145E+01 -0.96515720215E+01  0.18835078161E+02  0.51100000000E-03 0.  1.
        -12    1    3    3    0    0 -0.21399053814E+01 -0.15935081985E+02 -0.76308466479E+01  0.17797074296E+02  0.00000000000E+00 0.  1.
</event>
<event>
 7    1  0.6857839E-013  0.5052890E+02  0.7816164E-02  0.1300439E+00
        -11   -1    0    0    0    0  0.00000000000E+00  0.00000000000E+00  0.45593999997E+02  0.45594000000E+02  0.51100000000E-03 0.  1.
         11   -1    0    0    0    0 -0.00000000000E+00 -0.00000000000E+00 -0.45593999997E+02  0.45594000000E+02  0.51100000000E-03 0. -1.
    9900012    2    1    2    0    0  0.15646086159E+02 -0.43830637042E+01 -0.37271316502E+02  0.50528901469E+02  0.30000126505E+02 0.  0.
        -12    1    1    2    0    0 -0.15646086159E+02  0.43830637042E+01  0.37271316502E+02  0.40659098531E+02  0.00000000000E+00 0.  1.
         11    1    3    3    0    0  0.20350005067E+02  0.33817074825E+01 -0.25521696569E+02  0.32816392973E+02  0.51100000000E-03 0. -1.
        -11    1    3    3    0    0 -0.50266006852E+00  0.22895793552E+01 -0.23929782918E+01  0.33498038949E+01  0.51100000000E-03 0.  1.
        -12    1    3    3    0    0 -0.42012588397E+01 -0.10054350542E+02 -0.93566416411E+01  0.14362704601E+02  0.00000000000E+00 0.  1.
</event>
<event>
 7    1  0.6857839E-013  0.5052887E+02  0.7816164E-02  0.1300439E+00
        -11   -1    0    0    0    0  0.00000000000E+00  0.00000000000E+00  0.45593999997E+02  0.45594000000E+02  0.51100000000E-03 0.  1.
         11   -1    0    0    0    0 -0.00000000000E+00 -0.00000000000E+00 -0.45593999997E+02  0.45594000000E+02  0.51100000000E-03 0. -1.
    9900012    2    1    2    0    0  0.29447039211E+02  0.10883308330E+02 -0.25837776160E+02  0.50528865781E+02  0.30000018028E+02 0.  0.
        -12    1    1    2    0    0 -0.29447039211E+02 -0.10883308330E+02  0.25837776160E+02  0.40659134219E+02  0.00000000000E+00 0.  1.
         11    1    3    3    0    0  0.61985905490E+01 -0.25534121435E+01  0.31783286668E+01  0.74191786435E+01  0.51100000000E-03 0. -1.
        -11    1    3    3    0    0  0.12417851895E+01  0.86401820134E+01 -0.45096313183E+01  0.98250471027E+01  0.51100000000E-03 0.  1.
         12    1    3    3    0    0  0.22006663473E+02  0.47965384605E+01 -0.24506473509E+02  0.33284640035E+02  0.00000000000E+00 0. -1.
</event>
<event>
 7    1  0.6857839E-013  0.5052886E+02  0.7816164E-02  0.1300439E+00
        -11   -1    0    0    0    0  0.00000000000E+00  0.00000000000E+00  0.45593999997E+02  0.45594000000E+02  0.51100000000E-03 0. -1.
         11   -1    0    0    0    0 -0.00000000000E+00 -0.00000000000E+00 -0.45593999997E+02  0.45594000000E+02  0.51100000000E-03 0.  1.
    9900012    2    1    2    0    0 -0.13647898543E+02  0.22273371012E+02  0.31157618292E+02  0.50528863652E+02  0.30000011558E+02 0.  0.
        -12    1    1    2    0    0  0.13647898543E+02 -0.22273371012E+02 -0.31157618292E+02  0.40659136348E+02  0.00000000000E+00 0.  1.
         11    1    3    3    0    0 -0.12302570777E+02  0.10580143827E+02 -0.69234230040E-01  0.16226443996E+02  0.51100000000E-03 0. -1.
        -11    1    3    3    0    0 -0.10044159284E+01 -0.88507429205E+00  0.55365019375E+01  0.56960566908E+01  0.51100000000E-03 0.  1.
        -12    1    3    3    0    0 -0.34091183757E+00  0.12578301477E+02  0.25690350585E+02  0.28606362965E+02  0.00000000000E+00 0.  1.
</event>
<event>
 7    1  0.6857839E-013  0.5052886E+02  0.7816164E-02  0.1300439E+00
        -11   -1    0    0    0    0  0.00000000000E+00  0.00000000000E+00  0.45593999997E+02  0.45594000000E+02  0.51100000000E-03 0. -1.
         11   -1    0    0    0    0 -0.00000000000E+00 -0.00000000000E+00 -0.45593999997E+02  0.45594000000E+02  0.51100000000E-03 0.  1.
    9900012    2    1    2    0    0 -0.30390386876E+02  0.24479757632E+02  0.11416281891E+02  0.50528860309E+02  0.30000001395E+02 0.  0.
        -12    1    1    2    0    0  0.30390386876E+02 -0.24479757632E+02 -0.11416281891E+02  0.40659139691E+02  0.00000000000E+00 0.  1.
         11    1    3    3    0    0 -0.10038513558E+02 -0.28313182764E+01  0.23000906497E+01  0.10680755353E+02  0.51100000000E-03 0. -1.
        -11    1    3    3    0    0  0.41081403725E+00  0.33297155495E+01 -0.42600716543E+01  0.54225441053E+01  0.51100000000E-03 0.  1.
         12    1    3    3    0    0 -0.20762687355E+02  0.23981360359E+02  0.13376262895E+02  0.34425560851E+02  0.00000000000E+00 0. -1.
</event>
<event>
 7    1  0.6857839E-013  0.5052884E+02  0.7816164E-02  0.1300439E+00
        -11   -1    0    0    0    0  0.00000000000E+00  0.00000000000E+00  0.45593999997E+02  0.45594000000E+02  0.51100000000E-03 0.  1.
         11   -1    0    0    0    0 -0.00000000000E+00 -0.00000000000E+00 -0.45593999997E+02  0.45594000000E+02  0.51100000000E-03 0. -1.
    9900012    2    1    2    0    0  0.18001360007E+02 -0.28749575842E+02 -0.22418301523E+02  0.50528839700E+02  0.29999938751E+02 0.  0.
        -12    1    1    2    0    0 -0.18001360007E+02  0.28749575842E+02  0.22418301523E+02  0.40659160300E+02  0.00000000000E+00 0.  1.
         11    1    3    3    0    0 -0.66823191105E+00 -0.86192415784E+01 -0.38285397435E+01  0.94549233789E+01  0.51100000000E-03 0. -1.
        -11    1    3    3    0    0  0.47298945787E+01 -0.10626864299E+02 -0.21024887824E+02  0.24028068083E+02  0.51100000000E-03 0.  1.
         12    1    3    3    0    0  0.13939697340E+02 -0.95034699641E+01  0.24351260445E+01  0.17045848237E+02  0.00000000000E+00 0. -1.
</event>
<event>
 7    1  0.6857839E-013  0.5052886E+02  0.7816164E-02  0.1300439E+00
        -11   -1    0    0    0    0  0.00000000000E+00  0.00000000000E+00  0.45593999997E+02  0.45594000000E+02  0.51100000000E-03 0. -1.
         11   -1    0    0    0    0 -0.00000000000E+00 -0.00000000000E+00 -0.45593999997E+02  0.45594000000E+02  0.51100000000E-03 0.  1.
    9900012    2    1    2    0    0  0.39768339498E+02  0.82183484577E+01  0.20258165151E+01  0.50528855759E+02  0.29999987566E+02 0.  0.
        -12    1    1    2    0    0 -0.39768339498E+02 -0.82183484577E+01 -0.20258165151E+01  0.40659144241E+02  0.00000000000E+00 0.  1.
         11    1    3    3    0    0  0.17055284780E+02 -0.35464538189E+01  0.11739306730E+02  0.21006460825E+02  0.51100000000E-03 0. -1.
        -11    1    3    3    0    0  0.11666208003E+02  0.70347389400E+01  0.67188575367E+00  0.13639625796E+02  0.51100000000E-03 0.  1.
        -12    1    3    3    0    0  0.11046846716E+02  0.47300633367E+01 -0.10385375968E+02  0.15882769139E+02  0.00000000000E+00 0.  1.
</event>
<event>
 7    1  0.6857839E-013  0.5052886E+02  0.7816164E-02  0.1300439E+00
        -11   -1    0    0    0    0  0.00000000000E+00  0.00000000000E+00  0.45593999997E+02  0.45594000000E+02  0.51100000000E-03 0.  1.
         11   -1    0    0    0    0 -0.00000000000E+00 -0.00000000000E+00 -0.45593999997E+02  0.45594000000E+02  0.51100000000E-03 0. -1.
    9900012    2    1    2    0    0  0.75313675199E+01 -0.24878558938E+02 -0.31265024718E+02  0.50528856352E+02  0.29999989368E+02 0.  0.
        -12    1    1    2    0    0 -0.75313675199E+01  0.24878558938E+02  0.31265024718E+02  0.40659143648E+02  0.00000000000E+00 0.  1.
         11    1    3    3    0    0  0.31686022305E+00 -0.74742602521E+01 -0.31424121131E+01  0.81141679097E+01  0.51100000000E-03 0. -1.
        -11    1    3    3    0    0 -0.29959287413E+01 -0.20725642257E+02 -0.17210142536E+02  0.27105660707E+02  0.51100000000E-03 0.  1.
        -12    1    3    3    0    0  0.10210436038E+02  0.33213435712E+01 -0.10912470069E+02  0.15309027736E+02  0.00000000000E+00 0.  1.
</event>
<event>
 7    1  0.6857839E-013  0.5052886E+02  0.7816164E-02  0.1300439E+00
        -11   -1    0    0    0    0  0.00000000000E+00  0.00000000000E+00  0.45593999997E+02  0.45594000000E+02  0.51100000000E-03 0.  1.
         11   -1    0    0    0    0 -0.00000000000E+00 -0.00000000000E+00 -0.45593999997E+02  0.45594000000E+02  0.51100000000E-03 0. -1.
    9900012    2    1    2    0    0  0.35023759486E+02  0.75951958906E+01 -0.19204557469E+02  0.50528858879E+02  0.29999997048E+02 0.  0.
        -12    1    1    2    0    0 -0.35023759486E+02 -0.75951958906E+01  0.19204557469E+02  0.40659141121E+02  0.00000000000E+00 0.  1.
         11    1    3    3    0    0  0.10494049744E+02  0.28842662210E+01 -0.20829230905E+01  0.11080732852E+02  0.51100000000E-03 0. -1.
        -11    1    3    3    0    0  0.85383176808E+01 -0.74235723142E+01  0.22674423733E+01  0.11539219640E+02  0.51100000000E-03 0.  1.
        -12    1    3    3    0    0  0.15991392061E+02  0.12134501984E+02 -0.19389076752E+02  0.27908906387E+02  0.00000000000E+00 0.  1.
</event>
<event>
 7    1  0.6857839E-013  0.5052888E+02  0.7816164E-02  0.1300439E+00
        -11   -1    0    0    0    0  0.00000000000E+00  0.00000000000E+00  0.45593999997E+02  0.45594000000E+02  0.51100000000E-03 0.  1.
         11   -1    0    0    0    0 -0.00000000000E+00 -0.00000000000E+00 -0.45593999997E+02  0.45594000000E+02  0.51100000000E-03 0. -1.
    9900012    2    1    2    0    0 -0.34760557070E+02  0.14702198499E+02 -0.15123260032E+02  0.50528880942E+02  0.30000064113E+02 0.  0.
        -12    1    1    2    0    0  0.34760557070E+02 -0.14702198499E+02  0.15123260032E+02  0.40659119058E+02  0.00000000000E+00 0.  1.
         11    1    3    3    0    0 -0.99834577668E+00  0.98534494008E+01  0.55985542290E+00  0.99197075431E+01  0.51100000000E-03 0. -1.
        -11    1    3    3    0    0 -0.30535410140E+02  0.78864441457E+01 -0.93776028675E+01  0.32902077586E+02  0.51100000000E-03 0.  1.
        -12    1    3    3    0    0 -0.32268011541E+01 -0.30376950477E+01 -0.63055125875E+01  0.77070958137E+01  0.00000000000E+00 0.  1.
</event>
<event>
 7    1  0.6857839E-013  0.5052894E+02  0.7816164E-02  0.1300439E+00
        -11   -1    0    0    0    0  0.00000000000E+00  0.00000000000E+00  0.45593999997E+02  0.45594000000E+02  0.51100000000E-03 0. -1.
         11   -1    0    0    0    0 -0.00000000000E+00 -0.00000000000E+00 -0.45593999997E+02  0.45594000000E+02  0.51100000000E-03 0.  1.
    9900012    2    1    2    0    0  0.25146467994E+02 -0.31793506140E+02  0.31602748361E+01  0.50528939236E+02  0.30000241299E+02 0.  0.
        -12    1    1    2    0    0 -0.25146467994E+02  0.31793506140E+02 -0.31602748361E+01  0.40659060764E+02  0.00000000000E+00 0.  1.
         11    1    3    3    0    0 -0.95287898895E+00 -0.31068843940E+00 -0.25584651361E+01  0.27477717860E+01  0.51100000000E-03 0. -1.
        -11    1    3    3    0    0  0.13377802853E+01 -0.17636488184E+02  0.78089274579E+01  0.19334288709E+02  0.51100000000E-03 0.  1.
         12    1    3    3    0    0  0.24761566697E+02 -0.13846329516E+02 -0.20901874856E+01  0.28446878741E+02  0.00000000000E+00 0. -1.
</event>
<event>
 7    1  0.6857839E-013  0.5052888E+02  0.7816164E-02  0.1300439E+00
        -11   -1    0    0    0    0  0.00000000000E+00  0.00000000000E+00  0.45593999997E+02  0.45594000000E+02  0.51100000000E-03 0. -1.
         11   -1    0    0    0    0 -0.00000000000E+00 -0.00000000000E+00 -0.45593999997E+02  0.45594000000E+02  0.51100000000E-03 0.  1.
    9900012    2    1    2    0    0 -0.35177492574E+02  0.81947895247E+01  0.18669595495E+02  0.50528876115E+02  0.30000049440E+02 0.  0.
        -12    1    1    2    0    0  0.35177492574E+02 -0.81947895247E+01 -0.18669595495E+02  0.40659123885E+02  0.00000000000E+00 0.  1.
         11    1    3    3    0    0 -0.41788255300E+01  0.10541443363E+02  0.71446841525E+01  0.13402653576E+02  0.51100000000E-03 0.  1.
        -11    1    3    3    0    0 -0.63025724195E+01 -0.42243844719E+00 -0.43818343922E+01  0.76877399960E+01  0.51100000000E-03 0. -1.
        -12    1    3    3    0    0 -0.24696094624E+02 -0.19242153914E+01  0.15906745734E+02  0.29438482543E+02  0.00000000000E+00 0.  1.
</event>
<event>
 7    1  0.6857839E-013  0.5052886E+02  0.7816164E-02  0.1300439E+00
        -11   -1    0    0    0    0  0.00000000000E+00  0.00000000000E+00  0.45593999997E+02  0.45594000000E+02  0.51100000000E-03 0. -1.
         11   -1    0    0    0    0 -0.00000000000E+00 -0.00000000000E+00 -0.45593999997E+02  0.45594000000E+02  0.51100000000E-03 0.  1.
    9900012    2    1    2    0    0  0.98306081690E+01 -0.25781250097E+02  0.29863893275E+02  0.50528857915E+02  0.29999994119E+02 0.  0.
        -12    1    1    2    0    0 -0.98306081690E+01  0.25781250097E+02 -0.29863893275E+02  0.40659142085E+02  0.00000000000E+00 0.  1.
         11    1    3    3    0    0  0.15888850093E+01 -0.17034661754E+02  0.28885281647E+01  0.17350730586E+02  0.51100000000E-03 0. -1.
        -11    1    3    3    0    0 -0.28908236395E+01 -0.33813678095E+01  0.12223691444E+01  0.46135340211E+01  0.51100000000E-03 0.  1.
         12    1    3    3    0    0  0.11132546799E+02 -0.53652205330E+01  0.25752995966E+02  0.28564593308E+02  0.00000000000E+00 0. -1.
</event>
<event>
 7    1  0.6857839E-013  0.5052885E+02  0.7816164E-02  0.1300439E+00
        -11   -1    0    0    0    0  0.00000000000E+00  0.00000000000E+00  0.45593999997E+02  0.45594000000E+02  0.51100000000E-03 0. -1.
         11   -1    0    0    0    0 -0.00000000000E+00 -0.00000000000E+00 -0.45593999997E+02  0.45594000000E+02  0.51100000000E-03 0.  1.
    9900012    2    1    2    0    0 -0.12214608913E+02 -0.38714481770E+02  0.22712684460E+01  0.50528850599E+02  0.29999971881E+02 0.  0.
        -12    1    1    2    0    0  0.12214608913E+02  0.38714481770E+02 -0.22712684460E+01  0.40659149401E+02  0.00000000000E+00 0.  1.
         11    1    3    3    0    0 -0.43680989841E+01 -0.17748657820E+02 -0.27546239780E+00  0.18280345263E+02  0.51100000000E-03 0.  1.
        -11    1    3    3    0    0 -0.15392778598E+02 -0.15196065066E+02  0.54674822979E+01  0.22310342656E+02  0.51100000000E-03 0. -1.
        -12    1    3    3    0    0  0.75462686692E+01 -0.57697588845E+01 -0.29207514541E+01  0.99381626808E+01  0.00000000000E+00 0.  1.
</event>
<event>
 7    1  0.6857839E-013  0.5052886E+02  0.7816164E-02  0.1300439E+00
        -11   -1    0    0    0    0  0.00000000000E+00  0.00000000000E+00  0.45593999997E+02  0.45594000000E+02  0.51100000000E-03 0. -1.
         11   -1    0    0    0    0 -0.00000000000E+00 -0.00000000000E+00 -0.45593999997E+02  0.45594000000E+02  0.51100000000E-03 0.  1.
    9900012    2    1    2    0    0 -0.26747572050E+02 -0.30116997814E+02  0.55406838062E+01  0.50528863942E+02  0.30000012439E+02 0.  0.
        -12    1    1    2    0    0  0.26747572050E+02  0.30116997814E+02 -0.55406838062E+01  0.40659136058E+02  0.00000000000E+00 0.  1.
         11    1    3    3    0    0 -0.10085283512E+02  0.23279243685E+01 -0.25000034843E+00  0.10353486167E+02  0.51100000000E-03 0.  1.
        -11    1    3    3    0    0 -0.12027950588E+02 -0.15793324977E+02 -0.40859214179E+01  0.20268089779E+02  0.51100000000E-03 0. -1.
         12    1    3    3    0    0 -0.46343379507E+01 -0.16651597206E+02  0.98766055725E+01  0.19907287997E+02  0.00000000000E+00 0. -1.
</event>
<event>
 7    1  0.6857839E-013  0.5052885E+02  0.7816164E-02  0.1300439E+00
        -11   -1    0    0    0    0  0.00000000000E+00  0.00000000000E+00  0.45593999997E+02  0.45594000000E+02  0.51100000000E-03 0.  1.
         11   -1    0    0    0    0 -0.00000000000E+00 -0.00000000000E+00 -0.45593999997E+02  0.45594000000E+02  0.51100000000E-03 0. -1.
    9900012    2    1    2    0    0  0.11610906448E+01  0.26066619646E+02 -0.31182518777E+02  0.50528852585E+02  0.29999977917E+02 0.  0.
        -12    1    1    2    0    0 -0.11610906448E+01 -0.26066619646E+02  0.31182518777E+02  0.40659147415E+02  0.00000000000E+00 0.  1.
         11    1    3    3    0    0  0.67105670081E+00  0.41310083763E+00  0.28831249887E+01  0.29888759357E+01  0.51100000000E-03 0. -1.
        -11    1    3    3    0    0 -0.10004232919E+02  0.10428927047E+02 -0.17668488723E+02  0.22825921442E+02  0.51100000000E-03 0.  1.
         12    1    3    3    0    0  0.10494266863E+02  0.15224591761E+02 -0.16397155043E+02  0.24714055208E+02  0.00000000000E+00 0. -1.
</event>
<event>
 7    1  0.6857839E-013  0.5052886E+02  0.7816164E-02  0.1300439E+00
        -11   -1    0    0    0    0  0.00000000000E+00  0.00000000000E+00  0.45593999997E+02  0.45594000000E+02  0.51100000000E-03 0.  1.
         11   -1    0    0    0    0 -0.00000000000E+00 -0.00000000000E+00 -0.45593999997E+02  0.45594000000E+02  0.51100000000E-03 0. -1.
    9900012    2    1    2    0    0 -0.11437500884E+02 -0.53474069816E+01 -0.38649124606E+02  0.50528855632E+02  0.29999987180E+02 0.  0.
        -12    1    1    2    0    0  0.11437500884E+02  0.53474069816E+01  0.38649124606E+02  0.40659144368E+02  0.00000000000E+00 0.  1.
         11    1    3    3    0    0 -0.58960737453E+01 -0.13024343500E+02 -0.16660400098E+02  0.21953727266E+02  0.51100000000E-03 0. -1.
        -11    1    3    3    0    0  0.52423511902E+01  0.33692615357E+01 -0.49638059684E+01  0.79670282571E+01  0.51100000000E-03 0.  1.
         12    1    3    3    0    0 -0.10783778329E+02  0.43076749824E+01 -0.17024918540E+02  0.20608100109E+02  0.00000000000E+00 0. -1.
</event>
<event>
 7    1  0.6857839E-013  0.5052885E+02  0.7816164E-02  0.1300439E+00
        -11   -1    0    0    0    0  0.00000000000E+00  0.00000000000E+00  0.45593999997E+02  0.45594000000E+02  0.51100000000E-03 0.  1.
         11   -1    0    0    0    0 -0.00000000000E+00 -0.00000000000E+00 -0.45593999997E+02  0.45594000000E+02  0.51100000000E-03 0. -1.
    9900012    2    1    2    0    0 -0.14000320578E+02 -0.10279438254E+02 -0.36762627310E+02  0.50528848584E+02  0.29999965756E+02 0.  0.
        -12    1    1    2    0    0  0.14000320578E+02  0.10279438254E+02  0.36762627310E+02  0.40659151416E+02  0.00000000000E+00 0.  1.
         11    1    3    3    0    0  0.22120810523E+01 -0.79299974319E+01 -0.69974144748E+01  0.10804719869E+02  0.51100000000E-03 0. -1.
        -11    1    3    3    0    0  0.20999006084E+00  0.39765406607E+01  0.11551992089E+01  0.41462581836E+01  0.51100000000E-03 0.  1.
         12    1    3    3    0    0 -0.16422391691E+02 -0.63259814829E+01 -0.30920412044E+02  0.35577870532E+02  0.00000000000E+00 0. -1.
</event>
<event>
 7    1  0.6857839E-013  0.5052886E+02  0.7816164E-02  0.1300439E+00
        -11   -1    0    0    0    0  0.00000000000E+00  0.00000000000E+00  0.45593999997E+02  0.45594000000E+02  0.51100000000E-03 0. -1.
         11   -1    0    0    0    0 -0.00000000000E+00 -0.00000000000E+00 -0.45593999997E+02  0.45594000000E+02  0.51100000000E-03 0.  1.
    9900012    2    1    2    0    0  0.27535002327E+02 -0.27628078421E+02  0.11475122910E+02  0.50528861837E+02  0.30000006039E+02 0.  0.
        -12    1    1    2    0    0 -0.27535002327E+02  0.27628078421E+02 -0.11475122910E+02  0.40659138163E+02  0.00000000000E+00 0.  1.
         11    1    3    3    0    0  0.11480600603E+02 -0.55785471976E+00  0.87915552129E+01  0.14470896151E+02  0.51100000000E-03 0. -1.
        -11    1    3    3    0    0 -0.74089650981E+00 -0.70833668487E+01  0.65385062329E+01  0.96682510089E+01  0.51100000000E-03 0.  1.
        -12    1    3    3    0    0  0.16795298233E+02 -0.19986856853E+02 -0.38549385356E+01  0.26389714677E+02  0.00000000000E+00 0.  1.
</event>
<event>
 7    1  0.6857839E-013  0.5052887E+02  0.7816164E-02  0.1300439E+00
        -11   -1    0    0    0    0  0.00000000000E+00  0.00000000000E+00  0.45593999997E+02  0.45594000000E+02  0.51100000000E-03 0. -1.
         11   -1    0    0    0    0 -0.00000000000E+00 -0.00000000000E+00 -0.45593999997E+02  0.45594000000E+02  0.51100000000E-03 0.  1.
    9900012    2    1    2    0    0 -0.44054215355E+01 -0.11365281228E+02  0.38789013439E+02  0.50528869170E+02  0.30000028328E+02 0.  0.
        -12    1    1    2    0    0  0.44054215355E+01  0.11365281228E+02 -0.38789013439E+02  0.40659130830E+02  0.00000000000E+00 0.  1.
         11    1    3    3    0    0 -0.73063691052E+01 -0.15787531889E+02  0.26288630012E+02  0.31523344696E+02  0.51100000000E-03 0. -1.
        -11    1    3    3    0    0 -0.50337583252E+00  0.33720473685E+01  0.14516829663E+02  0.14911821968E+02  0.51100000000E-03 0.  1.
        -12    1    3    3    0    0  0.34043234023E+01  0.10502032927E+01 -0.20164462356E+01  0.40937025056E+01  0.00000000000E+00 0.  1.
</event>
<event>
 7    1  0.6857839E-013  0.5052886E+02  0.7816164E-02  0.1300439E+00
        -11   -1    0    0    0    0  0.00000000000E+00  0.00000000000E+00  0.45593999997E+02  0.45594000000E+02  0.51100000000E-03 0.  1.
         11   -1    0    0    0    0 -0.00000000000E+00 -0.00000000000E+00 -0.45593999997E+02  0.45594000000E+02  0.51100000000E-03 0. -1.
    9900012    2    1    2    0    0  0.18824050448E+01  0.37965027844E+02 -0.14431866213E+02  0.50528861417E+02  0.30000004763E+02 0.  0.
        -12    1    1    2    0    0 -0.18824050448E+01 -0.37965027844E+02  0.14431866213E+02  0.40659138583E+02  0.00000000000E+00 0.  1.
         11    1    3    3    0    0  0.34041999570E+01  0.18324100509E+02 -0.21310408148E+02  0.28310682304E+02  0.51100000000E-03 0. -1.
        -11    1    3    3    0    0  0.27381827049E+01  0.43588698181E+01  0.26987057915E+01  0.58120911750E+01  0.51100000000E-03 0.  1.
        -12    1    3    3    0    0 -0.42599776171E+01  0.15282057516E+02  0.41798361440E+01  0.16406087938E+02  0.00000000000E+00 0.  1.
</event>
<event>
 7    1  0.6857839E-013  0.5052885E+02  0.7816164E-02  0.1300439E+00
        -11   -1    0    0    0    0  0.00000000000E+00  0.00000000000E+00  0.45593999997E+02  0.45594000000E+02  0.51100000000E-03 0.  1.
         11   -1    0    0    0    0 -0.00000000000E+00 -0.00000000000E+00 -0.45593999997E+02  0.45594000000E+02  0.51100000000E-03 0. -1.
    9900012    2    1    2    0    0 -0.49077980690E+01  0.18918143418E+02 -0.35653664553E+02  0.50528850620E+02  0.29999971944E+02 0.  0.
        -12    1    1    2    0    0  0.49077980690E+01 -0.18918143418E+02  0.35653664553E+02  0.40659149380E+02  0.00000000000E+00 0.  1.
         11    1    3    3    0    0 -0.39636095425E-01  0.19902251863E+01  0.31149456441E+01  0.36966814765E+01  0.51100000000E-03 0. -1.
        -11    1    3    3    0    0 -0.53871633794E+01  0.31633634092E+01 -0.62593487080E+00  0.62785501558E+01  0.51100000000E-03 0.  1.
         12    1    3    3    0    0  0.51900140580E+00  0.13764554822E+02 -0.38142675327E+02  0.40553618987E+02  0.00000000000E+00 0. -1.
</event>
<event>
 7    1  0.6857839E-013  0.5052885E+02  0.7816164E-02  0.1300439E+00
        -11   -1    0    0    0    0  0.00000000000E+00  0.00000000000E+00  0.45593999997E+02  0.45594000000E+02  0.51100000000E-03 0.  1.
         11   -1    0    0    0    0 -0.00000000000E+00 -0.00000000000E+00 -0.45593999997E+02  0.45594000000E+02  0.51100000000E-03 0. -1.
    9900012    2    1    2    0    0 -0.27526176868E+02 -0.94975150785E+01 -0.28377331269E+02  0.50528854220E+02  0.29999982886E+02 0.  0.
        -12    1    1    2    0    0  0.27526176868E+02  0.94975150785E+01  0.28377331269E+02  0.40659145780E+02  0.00000000000E+00 0.  1.
         11    1    3    3    0    0 -0.95349823167E+01 -0.28699480249E+01 -0.79241865130E+01  0.12725769981E+02  0.51100000000E-03 0. -1.
        -11    1    3    3    0    0  0.56195806786E+01 -0.47968925026E+01 -0.16651404658E+01  0.75738073462E+01  0.51100000000E-03 0.  1.
         12    1    3    3    0    0 -0.23610775230E+02 -0.18306745510E+01 -0.18788004290E+02  0.30229276893E+02  0.00000000000E+00 0. -1.
</event>
<event>
 7    1  0.6857839E-013  0.5052886E+02  0.7816164E-02  0.1300439E+00
        -11   -1    0    0    0    0  0.00000000000E+00  0.00000000000E+00  0.45593999997E+02  0.45594000000E+02  0.51100000000E-03 0.  1.
         11   -1    0    0    0    0 -0.00000000000E+00 -0.00000000000E+00 -0.45593999997E+02  0.45594000000E+02  0.51100000000E-03 0. -1.
    9900012    2    1    2    0    0 -0.60389168842E+01 -0.39170259140E+02 -0.90767939487E+01  0.50528857035E+02  0.29999991445E+02 0.  0.
        -12    1    1    2    0    0  0.60389168842E+01  0.39170259140E+02  0.90767939487E+01  0.40659142965E+02  0.00000000000E+00 0.  1.
         11    1    3    3    0    0  0.89505969414E+01 -0.13907044613E+02 -0.10346592276E+01  0.16570745169E+02  0.51100000000E-03 0. -1.
        -11    1    3    3    0    0 -0.19825151620E+01 -0.14776337204E+02  0.10331622228E+01  0.14944495039E+02  0.51100000000E-03 0.  1.
         12    1    3    3    0    0 -0.13006998664E+02 -0.10486877322E+02 -0.90752969439E+01  0.19013616827E+02  0.00000000000E+00 0. -1.
</event>
<event>
 7    1  0.6857839E-013  0.5052886E+02  0.7816164E-02  0.1300439E+00
        -11   -1    0    0    0    0  0.00000000000E+00  0.00000000000E+00  0.45593999997E+02  0.45594000000E+02  0.51100000000E-03 0.  1.
         11   -1    0    0    0    0 -0.00000000000E+00 -0.00000000000E+00 -0.45593999997E+02  0.45594000000E+02  0.51100000000E-03 0. -1.
    9900012    2    1    2    0    0 -0.17567572143E+02  0.11885523592E+02 -0.34688332913E+02  0.50528859547E+02  0.29999999080E+02 0.  0.
        -12    1    1    2    0    0  0.17567572143E+02 -0.11885523592E+02  0.34688332913E+02  0.40659140453E+02  0.00000000000E+00 0.  1.
         11    1    3    3    0    0 -0.66352355068E+01 -0.17397231836E+01 -0.21849535726E+01  0.71990978158E+01  0.51100000000E-03 0.  1.
        -11    1    3    3    0    0 -0.71374489629E+01  0.11665072449E+02 -0.36393153952E+01  0.14151385435E+02  0.51100000000E-03 0. -1.
         12    1    3    3    0    0 -0.37948876731E+01  0.19601743272E+01 -0.28864063945E+02  0.29178376296E+02  0.00000000000E+00 0. -1.
</event>
<event>
 7    1  0.6857839E-013  0.5052887E+02  0.7816164E-02  0.1300439E+00
        -11   -1    0    0    0    0  0.00000000000E+00  0.00000000000E+00  0.45593999997E+02  0.45594000000E+02  0.51100000000E-03 0. -1.
         11   -1    0    0    0    0 -0.00000000000E+00 -0.00000000000E+00 -0.45593999997E+02  0.45594000000E+02  0.51100000000E-03 0.  1.
    9900012    2    1    2    0    0 -0.31205474845E+02  0.25235546081E+02 -0.65230903011E+01  0.50528866298E+02  0.30000019600E+02 0.  0.
        -12    1    1    2    0    0  0.31205474845E+02 -0.25235546081E+02  0.65230903011E+01  0.40659133702E+02  0.00000000000E+00 0.  1.
         11    1    3    3    0    0 -0.11509837039E+02  0.34105550110E+01  0.31001546357E+01  0.12398354454E+02  0.51100000000E-03 0. -1.
        -11    1    3    3    0    0  0.40525964606E+01 -0.76002736507E+00 -0.10530015303E+01  0.42555836441E+01  0.51100000000E-03 0.  1.
         12    1    3    3    0    0 -0.23748234266E+02  0.22585018435E+02 -0.85702434065E+01  0.33874928200E+02  0.00000000000E+00 0. -1.
</event>
<event>
 7    1  0.6857839E-013  0.5052884E+02  0.7816164E-02  0.1300439E+00
        -11   -1    0    0    0    0  0.00000000000E+00  0.00000000000E+00  0.45593999997E+02  0.45594000000E+02  0.51100000000E-03 0. -1.
         11   -1    0    0    0    0 -0.00000000000E+00 -0.00000000000E+00 -0.45593999997E+02  0.45594000000E+02  0.51100000000E-03 0.  1.
    9900012    2    1    2    0    0 -0.21371098036E+02  0.25805601813E+02  0.23032891163E+02  0.50528843694E+02  0.29999950892E+02 0.  0.
        -12    1    1    2    0    0  0.21371098036E+02 -0.25805601813E+02 -0.23032891163E+02  0.40659156306E+02  0.00000000000E+00 0.  1.
         11    1    3    3    0    0 -0.38787225654E+01 -0.33719603818E+01  0.80868359142E+00  0.52027468676E+01  0.51100000000E-03 0. -1.
        -11    1    3    3    0    0  0.20661363584E+01  0.20548495162E+01  0.88399245329E+01  0.93078242352E+01  0.51100000000E-03 0.  1.
         12    1    3    3    0    0 -0.19558511829E+02  0.27122712678E+02  0.13384283039E+02  0.36018272591E+02  0.00000000000E+00 0. -1.
</event>
<event>
 7    1  0.6857839E-013  0.5052883E+02  0.7816164E-02  0.1300439E+00
        -11   -1    0    0    0    0  0.00000000000E+00  0.00000000000E+00  0.45593999997E+02  0.45594000000E+02  0.51100000000E-03 0. -1.
         11   -1    0    0    0    0 -0.00000000000E+00 -0.00000000000E+00 -0.45593999997E+02  0.45594000000E+02  0.51100000000E-03 0.  1.
    9900012    2    1    2    0    0 -0.38264540913E+02 -0.12201124825E+02  0.63344680249E+01  0.50528831005E+02  0.29999912321E+02 0.  0.
        -12    1    1    2    0    0  0.38264540913E+02  0.12201124825E+02 -0.63344680249E+01  0.40659168995E+02  0.00000000000E+00 0.  1.
         11    1    3    3    0    0 -0.23016252191E+02 -0.19010582063E+02  0.80757095642E+01  0.30925186830E+02  0.51100000000E-03 0. -1.
        -11    1    3    3    0    0 -0.21203608185E+01 -0.18367340352E+01 -0.26486469490E+01  0.38580892729E+01  0.51100000000E-03 0.  1.
         12    1    3    3    0    0 -0.13127927903E+02  0.86461912729E+01  0.90740540959E+00  0.15745554901E+02  0.00000000000E+00 0. -1.
</event>
<event>
 7    1  0.6857839E-013  0.5052888E+02  0.7816164E-02  0.1300439E+00
        -11   -1    0    0    0    0  0.00000000000E+00  0.00000000000E+00  0.45593999997E+02  0.45594000000E+02  0.51100000000E-03 0. -1.
         11   -1    0    0    0    0 -0.00000000000E+00 -0.00000000000E+00 -0.45593999997E+02  0.45594000000E+02  0.51100000000E-03 0.  1.
    9900012    2    1    2    0    0 -0.22630501991E+02  0.30645294237E+02 -0.14208818743E+02  0.50528877908E+02  0.30000054890E+02 0.  0.
        -12    1    1    2    0    0  0.22630501991E+02 -0.30645294237E+02  0.14208818743E+02  0.40659122092E+02  0.00000000000E+00 0.  1.
         11    1    3    3    0    0 -0.45178203850E+01  0.32364285133E+01  0.57506996592E+01  0.79972318576E+01  0.51100000000E-03 0. -1.
        -11    1    3    3    0    0  0.34466441519E+01  0.36245839136E+01 -0.51492487225E+01  0.71785602403E+01  0.51100000000E-03 0.  1.
        -12    1    3    3    0    0 -0.21559325758E+02  0.23784281810E+02 -0.14810269680E+02  0.35353085810E+02  0.00000000000E+00 0.  1.
</event>
<event>
 7    1  0.6857839E-013  0.5052884E+02  0.7816164E-02  0.1300439E+00
        -11   -1    0    0    0    0  0.00000000000E+00  0.00000000000E+00  0.45593999997E+02  0.45594000000E+02  0.51100000000E-03 0.  1.
         11   -1    0    0    0    0 -0.00000000000E+00 -0.00000000000E+00 -0.45593999997E+02  0.45594000000E+02  0.51100000000E-03 0. -1.
    9900012    2    1    2    0    0 -0.24784609754E+02  0.70557574869E+01 -0.31450064935E+02  0.50528841391E+02  0.29999943892E+02 0.  0.
        -12    1    1    2    0    0  0.24784609754E+02 -0.70557574869E+01  0.31450064935E+02  0.40659158609E+02  0.00000000000E+00 0.  1.
         11    1    3    3    0    0 -0.11670658828E+01  0.57045778680E+01  0.29327741804E+00  0.58301169227E+01  0.51100000000E-03 0.  1.
        -11    1    3    3    0    0 -0.19116389174E+02 -0.19069851162E+01 -0.88699605819E+01  0.21160083371E+02  0.51100000000E-03 0. -1.
         12    1    3    3    0    0 -0.45011546969E+01  0.32581647350E+01 -0.22873381771E+02  0.23538641097E+02  0.00000000000E+00 0. -1.
</event>
<event>
 7    1  0.6857839E-013  0.5052886E+02  0.7816164E-02  0.1300439E+00
        -11   -1    0    0    0    0  0.00000000000E+00  0.00000000000E+00  0.45593999997E+02  0.45594000000E+02  0.51100000000E-03 0.  1.
         11   -1    0    0    0    0 -0.00000000000E+00 -0.00000000000E+00 -0.45593999997E+02  0.45594000000E+02  0.51100000000E-03 0. -1.
    9900012    2    1    2    0    0  0.74529690088E+01  0.33288386069E+02 -0.22124694173E+02  0.50528862203E+02  0.30000007152E+02 0.  0.
        -12    1    1    2    0    0 -0.74529690088E+01 -0.33288386069E+02  0.22124694173E+02  0.40659137797E+02  0.00000000000E+00 0.  1.
         11    1    3    3    0    0 -0.15373614552E+01  0.15901621417E+02 -0.30055598720E+01  0.16256027631E+02  0.51100000000E-03 0. -1.
        -11    1    3    3    0    0  0.58230105897E+01  0.51798854524E+01  0.33685729847E+01  0.84903445067E+01  0.51100000000E-03 0.  1.
         12    1    3    3    0    0  0.31673198743E+01  0.12206879200E+02 -0.22487707286E+02  0.25782490065E+02  0.00000000000E+00 0. -1.
</event>
<event>
 7    1  0.7160517E-013  0.5052887E+02  0.7816164E-02  0.1300439E+00
        -11   -1    0    0    0    0  0.00000000000E+00  0.00000000000E+00  0.45593999997E+02  0.45594000000E+02  0.51100000000E-03 0.  1.
         11   -1    0    0    0    0 -0.00000000000E+00 -0.00000000000E+00 -0.45593999997E+02  0.45594000000E+02  0.51100000000E-03 0. -1.
    9900012    2    1    2    0    0  0.14720392955E+02  0.29221746597E+02 -0.24136375252E+02  0.50528867530E+02  0.30000023344E+02 0.  0.
        -12    1    1    2    0    0 -0.14720392955E+02 -0.29221746597E+02  0.24136375252E+02  0.40659132470E+02  0.00000000000E+00 0.  1.
         11    1    3    3    0    0  0.69584149738E+01  0.11345665256E+02 -0.19049574989E+02  0.23238544846E+02  0.51100000000E-03 0. -1.
        -11    1    3    3    0    0 -0.60997338019E+01  0.57329182607E+01 -0.11997484101E+01  0.84565064150E+01  0.51100000000E-03 0.  1.
        -12    1    3    3    0    0  0.13861711783E+02  0.12143163080E+02 -0.38870518529E+01  0.18833816269E+02  0.00000000000E+00 0.  1.
</event>
<event>
 7    1  0.6857839E-013  0.5052888E+02  0.7816164E-02  0.1300439E+00
        -11   -1    0    0    0    0  0.00000000000E+00  0.00000000000E+00  0.45593999997E+02  0.45594000000E+02  0.51100000000E-03 0.  1.
         11   -1    0    0    0    0 -0.00000000000E+00 -0.00000000000E+00 -0.45593999997E+02  0.45594000000E+02  0.51100000000E-03 0. -1.
    9900012    2    1    2    0    0 -0.72712286608E+01 -0.28826437558E+02 -0.27736800934E+02  0.50528875629E+02  0.30000047963E+02 0.  0.
        -12    1    1    2    0    0  0.72712286608E+01  0.28826437558E+02  0.27736800934E+02  0.40659124371E+02  0.00000000000E+00 0.  1.
         11    1    3    3    0    0  0.65963527308E+01 -0.62376610940E+01 -0.49917883864E+01  0.10360416827E+02  0.51100000000E-03 0. -1.
        -11    1    3    3    0    0 -0.10949837861E+02 -0.39285711378E+01 -0.14800526805E+01  0.11727027610E+02  0.51100000000E-03 0.  1.
         12    1    3    3    0    0 -0.29177435307E+01 -0.18660205326E+02 -0.21264959867E+02  0.28441431193E+02  0.00000000000E+00 0. -1.
</event>
<event>
 7    1  0.6857839E-013  0.5052886E+02  0.7816164E-02  0.1300439E+00
        -11   -1    0    0    0    0  0.00000000000E+00  0.00000000000E+00  0.45593999997E+02  0.45594000000E+02  0.51100000000E-03 0.  1.
         11   -1    0    0    0    0 -0.00000000000E+00 -0.00000000000E+00 -0.45593999997E+02  0.45594000000E+02  0.51100000000E-03 0. -1.
    9900012    2    1    2    0    0  0.80267560222E+01 -0.32857785560E+02 -0.22563310707E+02  0.50528857434E+02  0.29999992656E+02 0.  0.
        -12    1    1    2    0    0 -0.80267560222E+01  0.32857785560E+02  0.22563310707E+02  0.40659142566E+02  0.00000000000E+00 0.  1.
         11    1    3    3    0    0  0.13379904945E+01 -0.22497818167E+01 -0.14761134007E+02  0.14991424689E+02  0.51100000000E-03 0. -1.
        -11    1    3    3    0    0 -0.41963432512E+01 -0.13591932885E+02 -0.11539462310E+01  0.14271703766E+02  0.51100000000E-03 0.  1.
        -12    1    3    3    0    0  0.10885108779E+02 -0.17016070859E+02 -0.66482304689E+01  0.21265728978E+02  0.00000000000E+00 0.  1.
</event>
<event>
 7    1  0.6857839E-013  0.5052887E+02  0.7816164E-02  0.1300439E+00
        -11   -1    0    0    0    0  0.00000000000E+00  0.00000000000E+00  0.45593999997E+02  0.45594000000E+02  0.51100000000E-03 0.  1.
         11   -1    0    0    0    0 -0.00000000000E+00 -0.00000000000E+00 -0.45593999997E+02  0.45594000000E+02  0.51100000000E-03 0. -1.
    9900012    2    1    2    0    0  0.20032595930E+02 -0.35324189540E+02 -0.20152669839E+01  0.50528873504E+02  0.30000041504E+02 0.  0.
        -12    1    1    2    0    0 -0.20032595930E+02  0.35324189540E+02  0.20152669839E+01  0.40659126496E+02  0.00000000000E+00 0.  1.
         11    1    3    3    0    0  0.45542927245E+01 -0.11092316810E+02  0.97750945452E+01  0.15470408788E+02  0.51100000000E-03 0. -1.
        -11    1    3    3    0    0  0.50971662865E+01 -0.34640866746E+01  0.36618438461E+01  0.71686889496E+01  0.51100000000E-03 0.  1.
         12    1    3    3    0    0  0.10381136919E+02 -0.20767786055E+02 -0.15452205375E+02  0.27889775767E+02  0.00000000000E+00 0. -1.
</event>
<event>
 7    1  0.6857839E-013  0.5052886E+02  0.7816164E-02  0.1300439E+00
        -11   -1    0    0    0    0  0.00000000000E+00  0.00000000000E+00  0.45593999997E+02  0.45594000000E+02  0.51100000000E-03 0.  1.
         11   -1    0    0    0    0 -0.00000000000E+00 -0.00000000000E+00 -0.45593999997E+02  0.45594000000E+02  0.51100000000E-03 0. -1.
    9900012    2    1    2    0    0  0.20520045632E+02  0.32611407875E+02 -0.12984208944E+02  0.50528857385E+02  0.29999992507E+02 0.  0.
        -12    1    1    2    0    0 -0.20520045632E+02 -0.32611407875E+02  0.12984208944E+02  0.40659142615E+02  0.00000000000E+00 0.  1.
         11    1    3    3    0    0 -0.17147909827E+01  0.86895524335E+01 -0.32686481505E+01  0.94410216926E+01  0.51100000000E-03 0.  1.
        -11    1    3    3    0    0  0.15962963764E+02  0.10989569926E+01 -0.61964314181E+01  0.17158661987E+02  0.51100000000E-03 0. -1.
         12    1    3    3    0    0  0.62718728507E+01  0.22822898449E+02 -0.35191293753E+01  0.23929173706E+02  0.00000000000E+00 0. -1.
</event>
<event>
 7    1  0.6857839E-013  0.5052886E+02  0.7816164E-02  0.1300439E+00
        -11   -1    0    0    0    0  0.00000000000E+00  0.00000000000E+00  0.45593999997E+02  0.45594000000E+02  0.51100000000E-03 0. -1.
         11   -1    0    0    0    0 -0.00000000000E+00 -0.00000000000E+00 -0.45593999997E+02  0.45594000000E+02  0.51100000000E-03 0.  1.
    9900012    2    1    2    0    0 -0.39331893983E+02 -0.53755485492E+01 -0.87903927589E+01  0.50528863125E+02  0.30000009956E+02 0.  0.
        -12    1    1    2    0    0  0.39331893983E+02  0.53755485492E+01  0.87903927589E+01  0.40659136875E+02  0.00000000000E+00 0.  1.
         11    1    3    3    0    0 -0.56895916964E+01 -0.24746663331E+01  0.71495342371E+01  0.94663227919E+01  0.51100000000E-03 0.  1.
        -11    1    3    3    0    0 -0.12003252748E+02  0.57004395201E+01 -0.85091466512E+00  0.13315297341E+02  0.51100000000E-03 0. -1.
        -12    1    3    3    0    0 -0.21639049539E+02 -0.86013217362E+01 -0.15089012331E+02  0.27747242993E+02  0.00000000000E+00 0.  1.
</event>
<event>
 7    1  0.6857839E-013  0.5052886E+02  0.7816164E-02  0.1300439E+00
        -11   -1    0    0    0    0  0.00000000000E+00  0.00000000000E+00  0.45593999997E+02  0.45594000000E+02  0.51100000000E-03 0. -1.
         11   -1    0    0    0    0 -0.00000000000E+00 -0.00000000000E+00 -0.45593999997E+02  0.45594000000E+02  0.51100000000E-03 0.  1.
    9900012    2    1    2    0    0  0.20796460226E+02  0.25019648483E+02  0.24386262963E+02  0.50528863395E+02  0.30000010777E+02 0.  0.
        -12    1    1    2    0    0 -0.20796460226E+02 -0.25019648483E+02 -0.24386262963E+02  0.40659136605E+02  0.00000000000E+00 0.  1.
         11    1    3    3    0    0 -0.23974737379E+01  0.16559460726E+02  0.83074552569E+01  0.18680937689E+02  0.51100000000E-03 0. -1.
        -11    1    3    3    0    0  0.11239941193E+02  0.89186492563E+01  0.13304783347E+02  0.19567724516E+02  0.51100000000E-03 0.  1.
        -12    1    3    3    0    0  0.11953992771E+02 -0.45846149895E+00  0.27740243589E+01  0.12280201190E+02  0.00000000000E+00 0.  1.
</event>
<event>
 7    1  0.6857839E-013  0.5052884E+02  0.7816164E-02  0.1300439E+00
        -11   -1    0    0    0    0  0.00000000000E+00  0.00000000000E+00  0.45593999997E+02  0.45594000000E+02  0.51100000000E-03 0.  1.
         11   -1    0    0    0    0 -0.00000000000E+00 -0.00000000000E+00 -0.45593999997E+02  0.45594000000E+02  0.51100000000E-03 0. -1.
    9900012    2    1    2    0    0 -0.34206600094E+02 -0.15541832441E+02 -0.15541134291E+02  0.50528844811E+02  0.29999954289E+02 0.  0.
        -12    1    1    2    0    0  0.34206600094E+02  0.15541832441E+02  0.15541134291E+02  0.40659155189E+02  0.00000000000E+00 0.  1.
         11    1    3    3    0    0 -0.33881909577E+01 -0.41242115334E+01 -0.21879590043E+01  0.57685460563E+01  0.51100000000E-03 0. -1.
        -11    1    3    3    0    0 -0.10969427776E+02 -0.18385316802E+02 -0.92769499267E+01  0.23332595652E+02  0.51100000000E-03 0.  1.
         12    1    3    3    0    0 -0.19848981359E+02  0.69676958944E+01 -0.40762253604E+01  0.21427703103E+02  0.00000000000E+00 0. -1.
</event>
<event>
 7    1  0.6857839E-013  0.5052887E+02  0.7816164E-02  0.1300439E+00
        -11   -1    0    0    0    0  0.00000000000E+00  0.00000000000E+00  0.45593999997E+02  0.45594000000E+02  0.51100000000E-03 0.  1.
         11   -1    0    0    0    0 -0.00000000000E+00 -0.00000000000E+00 -0.45593999997E+02  0.45594000000E+02  0.51100000000E-03 0. -1.
    9900012    2    1    2    0    0 -0.37785331953E+02  0.14984148478E+02 -0.95349329952E+00  0.50528866144E+02  0.30000019131E+02 0.  0.
        -12    1    1    2    0    0  0.37785331953E+02 -0.14984148478E+02  0.95349329952E+00  0.40659133856E+02  0.00000000000E+00 0.  1.
         11    1    3    3    0    0 -0.89417461811E+01 -0.12515884581E+01 -0.10982153763E+02  0.14217207882E+02  0.51100000000E-03 0. -1.
        -11    1    3    3    0    0 -0.17762727521E+02  0.37303112717E+01  0.43453342122E+01  0.18663109088E+02  0.51100000000E-03 0.  1.
        -12    1    3    3    0    0 -0.11080858252E+02  0.12505425665E+02  0.56833262512E+01  0.17648549173E+02  0.00000000000E+00 0.  1.
</event>
<event>
 7    1  0.6857839E-013  0.5052887E+02  0.7816164E-02  0.1300439E+00
        -11   -1    0    0    0    0  0.00000000000E+00  0.00000000000E+00  0.45593999997E+02  0.45594000000E+02  0.51100000000E-03 0.  1.
         11   -1    0    0    0    0 -0.00000000000E+00 -0.00000000000E+00 -0.45593999997E+02  0.45594000000E+02  0.51100000000E-03 0. -1.
    9900012    2    1    2    0    0  0.34377623879E+02  0.87721919277E+00 -0.21692716875E+02  0.50528874302E+02  0.30000043929E+02 0.  0.
        -12    1    1    2    0    0 -0.34377623879E+02 -0.87721919277E+00  0.21692716875E+02  0.40659125698E+02  0.00000000000E+00 0.  1.
         11    1    3    3    0    0  0.26375869739E+01 -0.41522087406E+01 -0.80713287574E+01  0.94521981910E+01  0.51100000000E-03 0. -1.
        -11    1    3    3    0    0  0.12598732879E+02  0.64968322933E+01 -0.16402287489E+02  0.21678836111E+02  0.51100000000E-03 0.  1.
        -12    1    3    3    0    0  0.19141304026E+02 -0.14674043599E+01  0.27808993707E+01  0.19397840000E+02  0.00000000000E+00 0.  1.
</event>
<event>
 7    1  0.6857839E-013  0.5052871E+02  0.7816164E-02  0.1300439E+00
        -11   -1    0    0    0    0  0.00000000000E+00  0.00000000000E+00  0.45593999997E+02  0.45594000000E+02  0.51100000000E-03 0.  1.
         11   -1    0    0    0    0 -0.00000000000E+00 -0.00000000000E+00 -0.45593999997E+02  0.45594000000E+02  0.51100000000E-03 0. -1.
    9900012    2    1    2    0    0 -0.81904118938E+01 -0.39499015352E+02  0.50914044052E+01  0.50528714965E+02  0.29999559603E+02 0.  0.
        -12    1    1    2    0    0  0.81904118938E+01  0.39499015352E+02 -0.50914044052E+01  0.40659285035E+02  0.00000000000E+00 0.  1.
         11    1    3    3    0    0 -0.96934643708E+01 -0.18069513753E+02 -0.87568513403E+00  0.20524068882E+02  0.51100000000E-03 0. -1.
        -11    1    3    3    0    0 -0.37792868045E+01 -0.22604348905E+02  0.79254250732E+01  0.24249782700E+02  0.51100000000E-03 0.  1.
        -12    1    3    3    0    0  0.52823392815E+01  0.11748473059E+01 -0.19583355340E+01  0.57548633816E+01  0.00000000000E+00 0.  1.
</event>
<event>
 7    1  0.6857839E-013  0.5052887E+02  0.7816164E-02  0.1300439E+00
        -11   -1    0    0    0    0  0.00000000000E+00  0.00000000000E+00  0.45593999997E+02  0.45594000000E+02  0.51100000000E-03 0.  1.
         11   -1    0    0    0    0 -0.00000000000E+00 -0.00000000000E+00 -0.45593999997E+02  0.45594000000E+02  0.51100000000E-03 0. -1.
    9900012    2    1    2    0    0  0.32753535991E+02 -0.16579140052E+02 -0.17478636958E+02  0.50528871201E+02  0.30000034503E+02 0.  0.
        -12    1    1    2    0    0 -0.32753535991E+02  0.16579140052E+02  0.17478636958E+02  0.40659128799E+02  0.00000000000E+00 0.  1.
         11    1    3    3    0    0  0.43975771922E+01 -0.46246530895E+01 -0.11909770390E+02  0.13511799745E+02  0.51100000000E-03 0. -1.
        -11    1    3    3    0    0  0.17364731747E+02 -0.16354280706E+02 -0.75357194372E+01  0.25015664567E+02  0.51100000000E-03 0.  1.
         12    1    3    3    0    0  0.10991227052E+02  0.43997937435E+01  0.19668528687E+01  0.12001406888E+02  0.00000000000E+00 0. -1.
</event>
<event>
 7    1  0.6857839E-013  0.5052885E+02  0.7816164E-02  0.1300439E+00
        -11   -1    0    0    0    0  0.00000000000E+00  0.00000000000E+00  0.45593999997E+02  0.45594000000E+02  0.51100000000E-03 0.  1.
         11   -1    0    0    0    0 -0.00000000000E+00 -0.00000000000E+00 -0.45593999997E+02  0.45594000000E+02  0.51100000000E-03 0. -1.
    9900012    2    1    2    0    0 -0.27776763307E+01 -0.16120593671E+02 -0.37223344289E+02  0.50528851138E+02  0.29999973520E+02 0.  0.
        -12    1    1    2    0    0  0.27776763307E+01  0.16120593671E+02  0.37223344289E+02  0.40659148862E+02  0.00000000000E+00 0.  1.
         11    1    3    3    0    0  0.42686108258E+01 -0.83424122541E+01 -0.15352469444E+02  0.17986528261E+02  0.51100000000E-03 0. -1.
        -11    1    3    3    0    0 -0.47965056568E+01 -0.14879145319E+02 -0.10098097622E+02  0.18610937853E+02  0.51100000000E-03 0.  1.
        -12    1    3    3    0    0 -0.22497814996E+01  0.71009639021E+01 -0.11772777223E+02  0.13931385024E+02  0.00000000000E+00 0.  1.
</event>
<event>
 7    1  0.6857839E-013  0.5052885E+02  0.7816164E-02  0.1300439E+00
        -11   -1    0    0    0    0  0.00000000000E+00  0.00000000000E+00  0.45593999997E+02  0.45594000000E+02  0.51100000000E-03 0. -1.
         11   -1    0    0    0    0 -0.00000000000E+00 -0.00000000000E+00 -0.45593999997E+02  0.45594000000E+02  0.51100000000E-03 0.  1.
    9900012    2    1    2    0    0  0.21431681389E+02 -0.30343255653E+02 -0.16526849457E+02  0.50528845019E+02  0.29999954919E+02 0.  0.
        -12    1    1    2    0    0 -0.21431681389E+02  0.30343255653E+02  0.16526849457E+02  0.40659154981E+02  0.00000000000E+00 0.  1.
         11    1    3    3    0    0  0.61075853102E+01  0.23959840059E+00 -0.42068522451E+01  0.74200816564E+01  0.51100000000E-03 0.  1.
        -11    1    3    3    0    0  0.12630581719E+02 -0.24331203374E+02 -0.19169789869E+02  0.33451754753E+02  0.51100000000E-03 0. -1.
         12    1    3    3    0    0  0.26935143605E+01 -0.62516506802E+01  0.68497926571E+01  0.96570086094E+01  0.00000000000E+00 0. -1.
</event>
<event>
 7    1  0.6857839E-013  0.5052887E+02  0.7816164E-02  0.1300439E+00
        -11   -1    0    0    0    0  0.00000000000E+00  0.00000000000E+00  0.45593999997E+02  0.45594000000E+02  0.51100000000E-03 0.  1.
         11   -1    0    0    0    0 -0.00000000000E+00 -0.00000000000E+00 -0.45593999997E+02  0.45594000000E+02  0.51100000000E-03 0. -1.
    9900012    2    1    2    0    0  0.11264616399E+02  0.38353113100E+02 -0.74372024665E+01  0.50528870059E+02  0.30000031031E+02 0.  0.
        -12    1    1    2    0    0 -0.11264616399E+02 -0.38353113100E+02  0.74372024665E+01  0.40659129941E+02  0.00000000000E+00 0.  1.
         11    1    3    3    0    0  0.11662689260E+02  0.12466081296E+02  0.11005922782E+01  0.17106513592E+02  0.51100000000E-03 0. -1.
        -11    1    3    3    0    0 -0.14066544021E+01 -0.23437294340E+00  0.41332876132E+01  0.43723762462E+01  0.51100000000E-03 0.  1.
         12    1    3    3    0    0  0.10085815406E+01  0.26121404747E+02 -0.12671082358E+02  0.29049980220E+02  0.00000000000E+00 0. -1.
</event>
<event>
 7    1  0.6857839E-013  0.5052886E+02  0.7816164E-02  0.1300439E+00
        -11   -1    0    0    0    0  0.00000000000E+00  0.00000000000E+00  0.45593999997E+02  0.45594000000E+02  0.51100000000E-03 0.  1.
         11   -1    0    0    0    0 -0.00000000000E+00 -0.00000000000E+00 -0.45593999997E+02  0.45594000000E+02  0.51100000000E-03 0. -1.
    9900012    2    1    2    0    0 -0.63127181182E+00  0.17038734651E+02 -0.36911362130E+02  0.50528860352E+02  0.30000001527E+02 0.  0.
        -12    1    1    2    0    0  0.63127181182E+00 -0.17038734651E+02  0.36911362130E+02  0.40659139648E+02  0.00000000000E+00 0.  1.
         11    1    3    3    0    0 -0.44649328904E+01  0.26764249381E+01 -0.23904236552E+02  0.24464492669E+02  0.51100000000E-03 0. -1.
        -11    1    3    3    0    0 -0.67906887893E+01  0.57051972704E+01 -0.46831473409E+01  0.10029685908E+02  0.51100000000E-03 0.  1.
         12    1    3    3    0    0  0.10624349868E+02  0.86571124423E+01 -0.83239782372E+01  0.16034681776E+02  0.00000000000E+00 0. -1.
</event>
<event>
 7    1  0.6857839E-013  0.5052874E+02  0.7816164E-02  0.1300439E+00
        -11   -1    0    0    0    0  0.00000000000E+00  0.00000000000E+00  0.45593999997E+02  0.45594000000E+02  0.51100000000E-03 0.  1.
         11   -1    0    0    0    0 -0.00000000000E+00 -0.00000000000E+00 -0.45593999997E+02  0.45594000000E+02  0.51100000000E-03 0. -1.
    9900012    2    1    2    0    0  0.10189703665E+02  0.55574099188E+01 -0.38967429021E+02  0.50528740411E+02  0.29999636951E+02 0.  0.
        -12    1    1    2    0    0 -0.10189703665E+02 -0.55574099188E+01  0.38967429021E+02  0.40659259589E+02  0.00000000000E+00 0.  1.
         11    1    3    3    0    0  0.46184250143E+01 -0.47210642222E+00  0.20219852885E+01  0.50637099892E+01  0.51100000000E-03 0. -1.
        -11    1    3    3    0    0 -0.80228141966E+00 -0.59877817493E+01 -0.13717306381E+02  0.14988718436E+02  0.51100000000E-03 0.  1.
         12    1    3    3    0    0  0.63735600707E+01  0.12017298090E+02 -0.27272107929E+02  0.30476311985E+02  0.00000000000E+00 0. -1.
</event>
<event>
 7    1  0.6857839E-013  0.5052886E+02  0.7816164E-02  0.1300439E+00
        -11   -1    0    0    0    0  0.00000000000E+00  0.00000000000E+00  0.45593999997E+02  0.45594000000E+02  0.51100000000E-03 0.  1.
         11   -1    0    0    0    0 -0.00000000000E+00 -0.00000000000E+00 -0.45593999997E+02  0.45594000000E+02  0.51100000000E-03 0. -1.
    9900012    2    1    2    0    0 -0.24770850642E+02 -0.49202429062E+00 -0.32238622016E+02  0.50528857376E+02  0.29999992480E+02 0.  0.
        -12    1    1    2    0    0  0.24770850642E+02  0.49202429062E+00  0.32238622016E+02  0.40659142624E+02  0.00000000000E+00 0.  1.
         11    1    3    3    0    0 -0.46779686457E+01  0.56702557174E+01 -0.15485568185E+02  0.17141703907E+02  0.51100000000E-03 0. -1.
        -11    1    3    3    0    0 -0.18284943226E+02  0.38643090780E+01 -0.10627917945E+02  0.21499411004E+02  0.51100000000E-03 0.  1.
         12    1    3    3    0    0 -0.18079387706E+01 -0.10026589086E+02 -0.61251358851E+01  0.11887742465E+02  0.00000000000E+00 0. -1.
</event>
<event>
 7    1  0.6857839E-013  0.5052886E+02  0.7816164E-02  0.1300439E+00
        -11   -1    0    0    0    0  0.00000000000E+00  0.00000000000E+00  0.45593999997E+02  0.45594000000E+02  0.51100000000E-03 0. -1.
         11   -1    0    0    0    0 -0.00000000000E+00 -0.00000000000E+00 -0.45593999997E+02  0.45594000000E+02  0.51100000000E-03 0.  1.
    9900012    2    1    2    0    0 -0.31327798730E+02 -0.21170122301E+02  0.14951952296E+02  0.50528856761E+02  0.29999990609E+02 0.  0.
        -12    1    1    2    0    0  0.31327798730E+02  0.21170122301E+02 -0.14951952296E+02  0.40659143239E+02  0.00000000000E+00 0.  1.
         11    1    3    3    0    0 -0.16286991359E+02 -0.14019286647E+02  0.12180964535E+02  0.24701870028E+02  0.51100000000E-03 0. -1.
        -11    1    3    3    0    0 -0.25032672410E+01 -0.11859551280E+02 -0.13998678910E+00  0.12121670677E+02  0.51100000000E-03 0.  1.
         12    1    3    3    0    0 -0.12537540130E+02  0.47087156255E+01  0.29109745502E+01  0.13705316056E+02  0.00000000000E+00 0. -1.
</event>
<event>
 7    1  0.6857839E-013  0.5052888E+02  0.7816164E-02  0.1300439E+00
        -11   -1    0    0    0    0  0.00000000000E+00  0.00000000000E+00  0.45593999997E+02  0.45594000000E+02  0.51100000000E-03 0.  1.
         11   -1    0    0    0    0 -0.00000000000E+00 -0.00000000000E+00 -0.45593999997E+02  0.45594000000E+02  0.51100000000E-03 0. -1.
    9900012    2    1    2    0    0  0.24143783466E+01 -0.40038397262E+02  0.66529530158E+01  0.50528877261E+02  0.30000052921E+02 0.  0.
        -12    1    1    2    0    0 -0.24143783466E+01  0.40038397262E+02 -0.66529530158E+01  0.40659122739E+02  0.00000000000E+00 0.  1.
         11    1    3    3    0    0  0.21945544352E+01 -0.21326786328E+02  0.89811055239E+01  0.23244529269E+02  0.51100000000E-03 0. -1.
        -11    1    3    3    0    0 -0.97494307888E+01 -0.92889570675E+01 -0.10289065034E+01  0.13505360897E+02  0.51100000000E-03 0.  1.
        -12    1    3    3    0    0  0.99692547002E+01 -0.94226538664E+01 -0.12992460047E+01  0.13778987094E+02  0.00000000000E+00 0.  1.
</event>
<event>
 7    1  0.6857839E-013  0.5052886E+02  0.7816164E-02  0.1300439E+00
        -11   -1    0    0    0    0  0.00000000000E+00  0.00000000000E+00  0.45593999997E+02  0.45594000000E+02  0.51100000000E-03 0. -1.
         11   -1    0    0    0    0 -0.00000000000E+00 -0.00000000000E+00 -0.45593999997E+02  0.45594000000E+02  0.51100000000E-03 0.  1.
    9900012    2    1    2    0    0  0.20027052066E+01 -0.15394740666E+02  0.37578677942E+02  0.50528857066E+02  0.29999991537E+02 0.  0.
        -12    1    1    2    0    0 -0.20027052066E+01  0.15394740666E+02 -0.37578677942E+02  0.40659142934E+02  0.00000000000E+00 0.  1.
         11    1    3    3    0    0 -0.10864927429E+01  0.19780656525E+01  0.53227336934E+01  0.57814102465E+01  0.51100000000E-03 0. -1.
        -11    1    3    3    0    0 -0.58976264807E+01 -0.95438320851E+00 -0.14909199000E+01  0.61575715849E+01  0.51100000000E-03 0.  1.
        -12    1    3    3    0    0  0.89868244303E+01 -0.16418423110E+02  0.33746864148E+02  0.38589875234E+02  0.00000000000E+00 0.  1.
</event>
<event>
 7    1  0.6857839E-013  0.5052886E+02  0.7816164E-02  0.1300439E+00
        -11   -1    0    0    0    0  0.00000000000E+00  0.00000000000E+00  0.45593999997E+02  0.45594000000E+02  0.51100000000E-03 0. -1.
         11   -1    0    0    0    0 -0.00000000000E+00 -0.00000000000E+00 -0.45593999997E+02  0.45594000000E+02  0.51100000000E-03 0.  1.
    9900012    2    1    2    0    0  0.32455492531E+02  0.16633607246E+02 -0.17975808727E+02  0.50528860993E+02  0.30000003474E+02 0.  0.
        -12    1    1    2    0    0 -0.32455492531E+02 -0.16633607246E+02  0.17975808727E+02  0.40659139007E+02  0.00000000000E+00 0.  1.
         11    1    3    3    0    0 -0.22178916757E+01  0.15930659990E+01  0.14674876668E+01  0.31000682372E+01  0.51100000000E-03 0. -1.
        -11    1    3    3    0    0  0.63246998711E+01  0.57483452291E+01 -0.15004128200E+02  0.17267575528E+02  0.51100000000E-03 0.  1.
         12    1    3    3    0    0  0.28348684335E+02  0.92921960177E+01 -0.44391681938E+01  0.30161217227E+02  0.00000000000E+00 0. -1.
</event>
<event>
 7    1  0.6857839E-013  0.5052886E+02  0.7816164E-02  0.1300439E+00
        -11   -1    0    0    0    0  0.00000000000E+00  0.00000000000E+00  0.45593999997E+02  0.45594000000E+02  0.51100000000E-03 0.  1.
         11   -1    0    0    0    0 -0.00000000000E+00 -0.00000000000E+00 -0.45593999997E+02  0.45594000000E+02  0.51100000000E-03 0. -1.
    9900012    2    1    2    0    0  0.11320860707E+02 -0.42494398670E+01 -0.38819408047E+02  0.50528855058E+02  0.29999985433E+02 0.  0.
        -12    1    1    2    0    0 -0.11320860707E+02  0.42494398670E+01  0.38819408047E+02  0.40659144942E+02  0.00000000000E+00 0.  1.
         11    1    3    3    0    0 -0.27713122334E+01  0.49685257421E+01  0.27161908928E+00  0.56956296171E+01  0.51100000000E-03 0. -1.
        -11    1    3    3    0    0  0.17436287331E+01 -0.76560048253E+01 -0.74166059674E+01  0.10800958077E+02  0.51100000000E-03 0.  1.
         12    1    3    3    0    0  0.12348544207E+02 -0.15619607838E+01 -0.31674421169E+02  0.34032267364E+02  0.00000000000E+00 0. -1.
</event>
<event>
 7    1  0.6857839E-013  0.5052885E+02  0.7816164E-02  0.1300439E+00
        -11   -1    0    0    0    0  0.00000000000E+00  0.00000000000E+00  0.45593999997E+02  0.45594000000E+02  0.51100000000E-03 0. -1.
         11   -1    0    0    0    0 -0.00000000000E+00 -0.00000000000E+00 -0.45593999997E+02  0.45594000000E+02  0.51100000000E-03 0.  1.
    9900012    2    1    2    0    0  0.21153470508E+02 -0.24712872633E+02 -0.24392030795E+02  0.50528849066E+02  0.29999967222E+02 0.  0.
        -12    1    1    2    0    0 -0.21153470508E+02  0.24712872633E+02  0.24392030795E+02  0.40659150934E+02  0.00000000000E+00 0.  1.
         11    1    3    3    0    0  0.14374045744E+02 -0.28747131141E+01 -0.30531821976E+01  0.14973279144E+02  0.51100000000E-03 0. -1.
        -11    1    3    3    0    0 -0.31044255828E+01  0.55360654260E+00 -0.10924005897E+00  0.31552927051E+01  0.51100000000E-03 0.  1.
        -12    1    3    3    0    0  0.98838503474E+01 -0.22391766062E+02 -0.21229608538E+02  0.32400277217E+02  0.00000000000E+00 0.  1.
</event>
<event>
 7    1  0.6857839E-013  0.5052888E+02  0.7816164E-02  0.1300439E+00
        -11   -1    0    0    0    0  0.00000000000E+00  0.00000000000E+00  0.45593999997E+02  0.45594000000E+02  0.51100000000E-03 0. -1.
         11   -1    0    0    0    0 -0.00000000000E+00 -0.00000000000E+00 -0.45593999997E+02  0.45594000000E+02  0.51100000000E-03 0.  1.
    9900012    2    1    2    0    0  0.12938528982E+02  0.37564543779E+02  0.86407903503E+01  0.50528883686E+02  0.30000072452E+02 0.  0.
        -12    1    1    2    0    0 -0.12938528982E+02 -0.37564543779E+02 -0.86407903503E+01  0.40659116314E+02  0.00000000000E+00 0.  1.
         11    1    3    3    0    0  0.13509992207E+01  0.63523657308E+01  0.96250465963E+01  0.11611170118E+02  0.51100000000E-03 0. -1.
        -11    1    3    3    0    0  0.62900330259E+01  0.18502027727E+02  0.93863833591E+01  0.21679338973E+02  0.51100000000E-03 0.  1.
        -12    1    3    3    0    0  0.52974967352E+01  0.12710150322E+02 -0.10370639605E+02  0.17238374595E+02  0.00000000000E+00 0.  1.
</event>
<event>
 7    1  0.6857839E-013  0.5052886E+02  0.7816164E-02  0.1300439E+00
        -11   -1    0    0    0    0  0.00000000000E+00  0.00000000000E+00  0.45593999997E+02  0.45594000000E+02  0.51100000000E-03 0.  1.
         11   -1    0    0    0    0 -0.00000000000E+00 -0.00000000000E+00 -0.45593999997E+02  0.45594000000E+02  0.51100000000E-03 0. -1.
    9900012    2    1    2    0    0 -0.28204869381E+02 -0.10735514274E+02 -0.27247014333E+02  0.50528859409E+02  0.29999998660E+02 0.  0.
        -12    1    1    2    0    0  0.28204869381E+02  0.10735514274E+02  0.27247014333E+02  0.40659140591E+02  0.00000000000E+00 0.  1.
         11    1    3    3    0    0 -0.81686337186E+01 -0.80297286218E+01 -0.15681502053E+01  0.11561237559E+02  0.51100000000E-03 0.  1.
        -11    1    3    3    0    0 -0.21922572077E+02 -0.39576742659E+01 -0.12396776652E+02  0.25493968379E+02  0.51100000000E-03 0. -1.
         12    1    3    3    0    0  0.18863364143E+01  0.12518886134E+01 -0.13282087475E+02  0.13473653472E+02  0.00000000000E+00 0. -1.
</event>
<event>
 7    1  0.6857839E-013  0.5052900E+02  0.7816164E-02  0.1300438E+00
        -11   -1    0    0    0    0  0.00000000000E+00  0.00000000000E+00  0.45593999997E+02  0.45594000000E+02  0.51100000000E-03 0.  1.
         11   -1    0    0    0    0 -0.00000000000E+00 -0.00000000000E+00 -0.45593999997E+02  0.45594000000E+02  0.51100000000E-03 0. -1.
    9900012    2    1    2    0    0  0.21984679300E+01  0.18212353249E+02 -0.36285418515E+02  0.50528995229E+02  0.30000411496E+02 0.  0.
        -12    1    1    2    0    0 -0.21984679300E+01 -0.18212353249E+02  0.36285418515E+02  0.40659004771E+02  0.00000000000E+00 0.  1.
         11    1    3    3    0    0 -0.22639955686E+00  0.12055288578E+02 -0.30736515566E+02  0.33016883997E+02  0.51100000000E-03 0. -1.
        -11    1    3    3    0    0  0.72166943808E+01  0.86003097264E+01 -0.39302044046E+01  0.11895062509E+02  0.51100000000E-03 0.  1.
        -12    1    3    3    0    0 -0.47918268940E+01 -0.24432450552E+01 -0.16186985451E+01  0.56170487234E+01  0.00000000000E+00 0.  1.
</event>
<event>
 7    1  0.6857839E-013  0.5052886E+02  0.7816164E-02  0.1300439E+00
        -11   -1    0    0    0    0  0.00000000000E+00  0.00000000000E+00  0.45593999997E+02  0.45594000000E+02  0.51100000000E-03 0. -1.
         11   -1    0    0    0    0 -0.00000000000E+00 -0.00000000000E+00 -0.45593999997E+02  0.45594000000E+02  0.51100000000E-03 0.  1.
    9900012    2    1    2    0    0 -0.26489940466E+01  0.20468622739E+02  0.35031184807E+02  0.50528860864E+02  0.30000003083E+02 0.  0.
        -12    1    1    2    0    0  0.26489940466E+01 -0.20468622739E+02 -0.35031184807E+02  0.40659139136E+02  0.00000000000E+00 0.  1.
         11    1    3    3    0    0  0.96660473407E+01  0.98658213062E+01  0.30056162333E+02  0.33077784020E+02  0.51100000000E-03 0. -1.
        -11    1    3    3    0    0 -0.24755374440E+01  0.40377232495E+01  0.34551332969E+00  0.47487760948E+01  0.51100000000E-03 0.  1.
        -12    1    3    3    0    0 -0.98395039433E+01  0.65650781836E+01  0.46295091438E+01  0.12702300749E+02  0.00000000000E+00 0.  1.
</event>
<event>
 7    1  0.6857839E-013  0.5052886E+02  0.7816164E-02  0.1300439E+00
        -11   -1    0    0    0    0  0.00000000000E+00  0.00000000000E+00  0.45593999997E+02  0.45594000000E+02  0.51100000000E-03 0.  1.
         11   -1    0    0    0    0 -0.00000000000E+00 -0.00000000000E+00 -0.45593999997E+02  0.45594000000E+02  0.51100000000E-03 0. -1.
    9900012    2    1    2    0    0  0.28730506294E+02  0.88363750854E+01 -0.27379596011E+02  0.50528858416E+02  0.29999995642E+02 0.  0.
        -12    1    1    2    0    0 -0.28730506294E+02 -0.88363750854E+01  0.27379596011E+02  0.40659141584E+02  0.00000000000E+00 0.  1.
         11    1    3    3    0    0  0.19251983951E+02  0.83096986223E+01 -0.33943423798E+01  0.21241740458E+02  0.51100000000E-03 0. -1.
        -11    1    3    3    0    0  0.37123595207E+01  0.44403873833E+01 -0.18431092141E+01  0.60741834975E+01  0.51100000000E-03 0.  1.
        -12    1    3    3    0    0  0.57661628222E+01 -0.39137109202E+01 -0.22142144417E+02  0.23212934460E+02  0.00000000000E+00 0.  1.
</event>
<event>
 7    1  0.6857839E-013  0.5052886E+02  0.7816164E-02  0.1300439E+00
        -11   -1    0    0    0    0  0.00000000000E+00  0.00000000000E+00  0.45593999997E+02  0.45594000000E+02  0.51100000000E-03 0.  1.
         11   -1    0    0    0    0 -0.00000000000E+00 -0.00000000000E+00 -0.45593999997E+02  0.45594000000E+02  0.51100000000E-03 0. -1.
    9900012    2    1    2    0    0 -0.41549425191E+01 -0.22118778140E+02 -0.33862395801E+02  0.50528859046E+02  0.29999997555E+02 0.  0.
        -12    1    1    2    0    0  0.41549425191E+01  0.22118778140E+02  0.33862395801E+02  0.40659140954E+02  0.00000000000E+00 0.  1.
         11    1    3    3    0    0 -0.18284702993E+01 -0.15145792692E+00 -0.69937797450E+01  0.72304355693E+01  0.51100000000E-03 0. -1.
        -11    1    3    3    0    0 -0.79278045637E+01 -0.57837365751E+01  0.17296387622E+01  0.99646045822E+01  0.51100000000E-03 0.  1.
         12    1    3    3    0    0  0.56013323439E+01 -0.16183583638E+02 -0.28598254818E+02  0.33333818894E+02  0.00000000000E+00 0. -1.
</event>
<event>
 7    1  0.6857839E-013  0.5052887E+02  0.7816164E-02  0.1300439E+00
        -11   -1    0    0    0    0  0.00000000000E+00  0.00000000000E+00  0.45593999997E+02  0.45594000000E+02  0.51100000000E-03 0. -1.
         11   -1    0    0    0    0 -0.00000000000E+00 -0.00000000000E+00 -0.45593999997E+02  0.45594000000E+02  0.51100000000E-03 0.  1.
    9900012    2    1    2    0    0 -0.30367199389E+02  0.27029183598E+02 -0.64935341311E+00  0.50528865423E+02  0.30000016939E+02 0.  0.
        -12    1    1    2    0    0  0.30367199389E+02 -0.27029183598E+02  0.64935341311E+00  0.40659134577E+02  0.00000000000E+00 0.  1.
         11    1    3    3    0    0 -0.54034195625E+01  0.13603844092E+02  0.26515484434E+01  0.14875894140E+02  0.51100000000E-03 0. -1.
        -11    1    3    3    0    0 -0.78129201411E+01 -0.57318415313E+01 -0.20828609499E+01  0.99113086153E+01  0.51100000000E-03 0.  1.
         12    1    3    3    0    0 -0.17150859685E+02  0.19157181037E+02 -0.12180409066E+01  0.25741662667E+02  0.00000000000E+00 0. -1.
</event>
<event>
 7    1  0.6857839E-013  0.5052887E+02  0.7816164E-02  0.1300439E+00
        -11   -1    0    0    0    0  0.00000000000E+00  0.00000000000E+00  0.45593999997E+02  0.45594000000E+02  0.51100000000E-03 0. -1.
         11   -1    0    0    0    0 -0.00000000000E+00 -0.00000000000E+00 -0.45593999997E+02  0.45594000000E+02  0.51100000000E-03 0.  1.
    9900012    2    1    2    0    0 -0.36199580627E+02 -0.14440226054E+02 -0.11586003619E+02  0.50528865161E+02  0.30000016142E+02 0.  0.
        -12    1    1    2    0    0  0.36199580627E+02  0.14440226054E+02  0.11586003619E+02  0.40659134839E+02  0.00000000000E+00 0.  1.
         11    1    3    3    0    0 -0.19920134809E+02 -0.35823289143E+01  0.28039717380E+01  0.20432990702E+02  0.51100000000E-03 0. -1.
        -11    1    3    3    0    0 -0.19450603329E+02 -0.61565884492E+01 -0.13205724481E+02  0.24302689368E+02  0.51100000000E-03 0.  1.
        -12    1    3    3    0    0  0.31711575111E+01 -0.47013086901E+01 -0.11842508760E+01  0.57931850909E+01  0.00000000000E+00 0.  1.
</event>
<event>
 7    1  0.6857839E-013  0.5052887E+02  0.7816164E-02  0.1300439E+00
        -11   -1    0    0    0    0  0.00000000000E+00  0.00000000000E+00  0.45593999997E+02  0.45594000000E+02  0.51100000000E-03 0. -1.
         11   -1    0    0    0    0 -0.00000000000E+00 -0.00000000000E+00 -0.45593999997E+02  0.45594000000E+02  0.51100000000E-03 0.  1.
    9900012    2    1    2    0    0  0.39266990233E+01 -0.12567248057E+02  0.38468304187E+02  0.50528866759E+02  0.30000021000E+02 0.  0.
        -12    1    1    2    0    0 -0.39266990233E+01  0.12567248057E+02 -0.38468304187E+02  0.40659133241E+02  0.00000000000E+00 0.  1.
         11    1    3    3    0    0 -0.81925556821E+00 -0.18797136692E+01  0.35998611845E+02  0.36056962687E+02  0.51100000000E-03 0. -1.
        -11    1    3    3    0    0 -0.16440997067E+01 -0.48357918152E+01 -0.87895059873E+00  0.51827117170E+01  0.51100000000E-03 0.  1.
        -12    1    3    3    0    0  0.63900542981E+01 -0.58517425723E+01  0.33486429405E+01  0.92891923550E+01  0.00000000000E+00 0.  1.
</event>
<event>
 7    1  0.1248478E-012  0.5052895E+02  0.7816164E-02  0.1300438E+00
        -11   -1    0    0    0    0  0.00000000000E+00  0.00000000000E+00  0.45593999997E+02  0.45594000000E+02  0.51100000000E-03 0. -1.
         11   -1    0    0    0    0 -0.00000000000E+00 -0.00000000000E+00 -0.45593999997E+02  0.45594000000E+02  0.51100000000E-03 0.  1.
    9900012    2    1    2    0    0  0.23157331601E+02 -0.27449069614E+02  0.19064220773E+02  0.50528954964E+02  0.30000289107E+02 0.  0.
        -12    1    1    2    0    0 -0.23157331601E+02  0.27449069614E+02 -0.19064220773E+02  0.40659045036E+02  0.00000000000E+00 0.  1.
         11    1    3    3    0    0  0.10735966741E+02 -0.15158438427E+02  0.13819847515E+02  0.23152266045E+02  0.51100000000E-03 0. -1.
        -11    1    3    3    0    0  0.14948566570E+02 -0.16187791179E+02  0.30661948785E+01  0.22246477858E+02  0.51100000000E-03 0.  1.
        -12    1    3    3    0    0 -0.25272017103E+01  0.38971599919E+01  0.21781783789E+01  0.51302110617E+01  0.00000000000E+00 0.  1.
</event>
<event>
 7    1  0.6857839E-013  0.5052886E+02  0.7816164E-02  0.1300439E+00
        -11   -1    0    0    0    0  0.00000000000E+00  0.00000000000E+00  0.45593999997E+02  0.45594000000E+02  0.51100000000E-03 0. -1.
         11   -1    0    0    0    0 -0.00000000000E+00 -0.00000000000E+00 -0.45593999997E+02  0.45594000000E+02  0.51100000000E-03 0.  1.
    9900012    2    1    2    0    0  0.29267762058E+02  0.25233569859E+02 -0.12642410315E+02  0.50528862253E+02  0.30000007305E+02 0.  0.
        -12    1    1    2    0    0 -0.29267762058E+02 -0.25233569859E+02  0.12642410315E+02  0.40659137747E+02  0.00000000000E+00 0.  1.
         11    1    3    3    0    0  0.51103937786E+01  0.76057816695E+01  0.27372318994E+01  0.95632880385E+01  0.51100000000E-03 0. -1.
        -11    1    3    3    0    0  0.21269205016E+00  0.12607073697E+02 -0.95445109529E+01  0.15813956959E+02  0.51100000000E-03 0.  1.
        -12    1    3    3    0    0  0.23944676229E+02  0.50207144925E+01 -0.58351312619E+01  0.25151617256E+02  0.00000000000E+00 0.  1.
</event>
<event>
 7    1  0.6857839E-013  0.5052890E+02  0.7816164E-02  0.1300439E+00
        -11   -1    0    0    0    0  0.00000000000E+00  0.00000000000E+00  0.45593999997E+02  0.45594000000E+02  0.51100000000E-03 0.  1.
         11   -1    0    0    0    0 -0.00000000000E+00 -0.00000000000E+00 -0.45593999997E+02  0.45594000000E+02  0.51100000000E-03 0. -1.
    9900012    2    1    2    0    0  0.34176253498E+02  0.97193276123E+01 -0.19765645677E+02  0.50528900386E+02  0.30000123212E+02 0.  0.
        -12    1    1    2    0    0 -0.34176253498E+02 -0.97193276123E+01  0.19765645677E+02  0.40659099614E+02  0.00000000000E+00 0.  1.
         11    1    3    3    0    0  0.73682849043E+01 -0.51534328378E+01 -0.12704734092E+02  0.15564695983E+02  0.51100000000E-03 0. -1.
        -11    1    3    3    0    0  0.48080725641E+00 -0.15381836279E+00  0.29864756918E+01  0.30288402113E+01  0.51100000000E-03 0.  1.
         12    1    3    3    0    0  0.26327161338E+02  0.15026578813E+02 -0.10047387277E+02  0.31935364191E+02  0.00000000000E+00 0. -1.
</event>
<event>
 7    1  0.6857839E-013  0.5052886E+02  0.7816164E-02  0.1300439E+00
        -11   -1    0    0    0    0  0.00000000000E+00  0.00000000000E+00  0.45593999997E+02  0.45594000000E+02  0.51100000000E-03 0. -1.
         11   -1    0    0    0    0 -0.00000000000E+00 -0.00000000000E+00 -0.45593999997E+02  0.45594000000E+02  0.51100000000E-03 0.  1.
    9900012    2    1    2    0    0 -0.19364484236E+01  0.40606071117E+02  0.75018130665E+00  0.50528860609E+02  0.30000002307E+02 0.  0.
        -12    1    1    2    0    0  0.19364484236E+01 -0.40606071117E+02 -0.75018130665E+00  0.40659139391E+02  0.00000000000E+00 0.  1.
         11    1    3    3    0    0 -0.45732266520E+01  0.24489983959E+01  0.37107582261E+01  0.63782224818E+01  0.51100000000E-03 0.  1.
        -11    1    3    3    0    0 -0.22226419772E+01  0.17322741874E+01  0.57335736176E+01  0.63886444500E+01  0.51100000000E-03 0. -1.
         12    1    3    3    0    0  0.48594202056E+01  0.36424798533E+02 -0.86941505370E+01  0.37761993677E+02  0.00000000000E+00 0. -1.
</event>
<event>
 7    1  0.6857839E-013  0.5052887E+02  0.7816164E-02  0.1300439E+00
        -11   -1    0    0    0    0  0.00000000000E+00  0.00000000000E+00  0.45593999997E+02  0.45594000000E+02  0.51100000000E-03 0. -1.
         11   -1    0    0    0    0 -0.00000000000E+00 -0.00000000000E+00 -0.45593999997E+02  0.45594000000E+02  0.51100000000E-03 0.  1.
    9900012    2    1    2    0    0 -0.33662066892E+02 -0.81990451773E+01  0.21279230571E+02  0.50528871345E+02  0.30000034941E+02 0.  0.
        -12    1    1    2    0    0  0.33662066892E+02  0.81990451773E+01 -0.21279230571E+02  0.40659128655E+02  0.00000000000E+00 0.  1.
         11    1    3    3    0    0 -0.11254498824E+02  0.15011504841E+01  0.11973199160E+02  0.16500748314E+02  0.51100000000E-03 0. -1.
        -11    1    3    3    0    0 -0.10623413804E+02 -0.37341566377E+01 -0.68342388135E+01  0.13172230907E+02  0.51100000000E-03 0.  1.
         12    1    3    3    0    0 -0.11784154264E+02 -0.59660390236E+01  0.16140270225E+02  0.20855892124E+02  0.00000000000E+00 0. -1.
</event>
<event>
 7    1  0.1171666E-012  0.5052886E+02  0.7816164E-02  0.1300439E+00
        -11   -1    0    0    0    0  0.00000000000E+00  0.00000000000E+00  0.45593999997E+02  0.45594000000E+02  0.51100000000E-03 0. -1.
         11   -1    0    0    0    0 -0.00000000000E+00 -0.00000000000E+00 -0.45593999997E+02  0.45594000000E+02  0.51100000000E-03 0.  1.
    9900012    2    1    2    0    0 -0.17583757540E+02 -0.61804457506E+01  0.36135572739E+02  0.50528855198E+02  0.29999985858E+02 0.  0.
        -12    1    1    2    0    0  0.17583757540E+02  0.61804457506E+01 -0.36135572739E+02  0.40659144802E+02  0.00000000000E+00 0.  1.
         11    1    3    3    0    0 -0.18045807852E+02  0.11440358667E+01  0.28865432324E+02  0.34061315045E+02  0.51100000000E-03 0. -1.
        -11    1    3    3    0    0  0.87332635802E+00 -0.65374547113E+01  0.10894801769E+02  0.12735686824E+02  0.51100000000E-03 0.  1.
        -12    1    3    3    0    0 -0.41127604609E+00 -0.78702690596E+00 -0.36246613538E+01  0.37318533287E+01  0.00000000000E+00 0.  1.
</event>
<event>
 7    1  0.6857839E-013  0.5052886E+02  0.7816164E-02  0.1300439E+00
        -11   -1    0    0    0    0  0.00000000000E+00  0.00000000000E+00  0.45593999997E+02  0.45594000000E+02  0.51100000000E-03 0.  1.
         11   -1    0    0    0    0 -0.00000000000E+00 -0.00000000000E+00 -0.45593999997E+02  0.45594000000E+02  0.51100000000E-03 0. -1.
    9900012    2    1    2    0    0  0.33037949237E+02 -0.77602294647E+01 -0.22392827537E+02  0.50528856179E+02  0.29999988842E+02 0.  0.
        -12    1    1    2    0    0 -0.33037949237E+02  0.77602294647E+01  0.22392827537E+02  0.40659143821E+02  0.00000000000E+00 0.  1.
         11    1    3    3    0    0  0.25258375475E+02 -0.16598384353E+01 -0.14450484711E+02  0.29147162879E+02  0.51100000000E-03 0. -1.
        -11    1    3    3    0    0  0.81493128232E+01 -0.94790939009E+01 -0.11118498096E+02  0.16729779462E+02  0.51100000000E-03 0.  1.
        -12    1    3    3    0    0 -0.36973906116E+00  0.33787028715E+01  0.31761552691E+01  0.46519138385E+01  0.00000000000E+00 0.  1.
</event>
<event>
 7    1  0.6857839E-013  0.5052887E+02  0.7816164E-02  0.1300439E+00
        -11   -1    0    0    0    0  0.00000000000E+00  0.00000000000E+00  0.45593999997E+02  0.45594000000E+02  0.51100000000E-03 0.  1.
         11   -1    0    0    0    0 -0.00000000000E+00 -0.00000000000E+00 -0.45593999997E+02  0.45594000000E+02  0.51100000000E-03 0. -1.
    9900012    2    1    2    0    0 -0.29259909066E+02 -0.24102626310E+02 -0.14699868619E+02  0.50528868049E+02  0.30000024922E+02 0.  0.
        -12    1    1    2    0    0  0.29259909066E+02  0.24102626310E+02  0.14699868619E+02  0.40659131951E+02  0.00000000000E+00 0.  1.
         11    1    3    3    0    0 -0.11694194256E+01 -0.45069233552E+01 -0.95312891870E+01  0.10607797780E+02  0.51100000000E-03 0. -1.
        -11    1    3    3    0    0 -0.53676822711E+01 -0.44467221148E+01  0.71289592297E+01  0.99703264986E+01  0.51100000000E-03 0.  1.
         12    1    3    3    0    0 -0.22722807369E+02 -0.15148980840E+02 -0.12297538662E+02  0.29950743770E+02  0.00000000000E+00 0. -1.
</event>
<event>
 7    1  0.6857839E-013  0.5052887E+02  0.7816164E-02  0.1300439E+00
        -11   -1    0    0    0    0  0.00000000000E+00  0.00000000000E+00  0.45593999997E+02  0.45594000000E+02  0.51100000000E-03 0. -1.
         11   -1    0    0    0    0 -0.00000000000E+00 -0.00000000000E+00 -0.45593999997E+02  0.45594000000E+02  0.51100000000E-03 0.  1.
    9900012    2    1    2    0    0  0.13170128245E+02  0.28738350853E+02  0.25569906532E+02  0.50528865629E+02  0.30000017565E+02 0.  0.
        -12    1    1    2    0    0 -0.13170128245E+02 -0.28738350853E+02 -0.25569906532E+02  0.40659134371E+02  0.00000000000E+00 0.  1.
         11    1    3    3    0    0  0.13810723732E+02  0.13628567518E+02  0.19653583419E+02  0.27617698747E+02  0.51100000000E-03 0. -1.
        -11    1    3    3    0    0  0.57798357929E+01  0.45661403528E+01 -0.27128077518E+01  0.78495519409E+01  0.51100000000E-03 0.  1.
         12    1    3    3    0    0 -0.64204312795E+01  0.10543642982E+02  0.86291308644E+01  0.15061614941E+02  0.00000000000E+00 0. -1.
</event>
<event>
 7    1  0.7847521E-013  0.5052887E+02  0.7816164E-02  0.1300439E+00
        -11   -1    0    0    0    0  0.00000000000E+00  0.00000000000E+00  0.45593999997E+02  0.45594000000E+02  0.51100000000E-03 0. -1.
         11   -1    0    0    0    0 -0.00000000000E+00 -0.00000000000E+00 -0.45593999997E+02  0.45594000000E+02  0.51100000000E-03 0.  1.
    9900012    2    1    2    0    0  0.15593301282E+02  0.14701053510E+02  0.34552759497E+02  0.50528865626E+02  0.30000017557E+02 0.  0.
        -12    1    1    2    0    0 -0.15593301282E+02 -0.14701053510E+02 -0.34552759497E+02  0.40659134374E+02  0.00000000000E+00 0.  1.
         11    1    3    3    0    0 -0.28608129027E+01  0.34179615982E+00  0.14848580572E+02  0.15125522151E+02  0.51100000000E-03 0. -1.
        -11    1    3    3    0    0  0.41099376168E+01  0.13307112398E+02  0.14507370139E+02  0.20110559818E+02  0.51100000000E-03 0.  1.
        -12    1    3    3    0    0  0.14344176568E+02  0.10521449518E+01  0.51968087860E+01  0.15292783657E+02  0.00000000000E+00 0.  1.
</event>
<event>
 7    1  0.6857839E-013  0.5052882E+02  0.7816164E-02  0.1300439E+00
        -11   -1    0    0    0    0  0.00000000000E+00  0.00000000000E+00  0.45593999997E+02  0.45594000000E+02  0.51100000000E-03 0. -1.
         11   -1    0    0    0    0 -0.00000000000E+00 -0.00000000000E+00 -0.45593999997E+02  0.45594000000E+02  0.51100000000E-03 0.  1.
    9900012    2    1    2    0    0 -0.33383580308E+02 -0.21941989854E+02  0.75666696297E+01  0.50528820935E+02  0.29999881715E+02 0.  0.
        -12    1    1    2    0    0  0.33383580308E+02  0.21941989854E+02 -0.75666696297E+01  0.40659179065E+02  0.00000000000E+00 0.  1.
         11    1    3    3    0    0 -0.13237169072E+02 -0.64561039372E+01  0.13284668980E+02  0.19833969680E+02  0.51100000000E-03 0. -1.
        -11    1    3    3    0    0 -0.17077947552E+02 -0.12841045040E+02  0.25196089705E+01  0.21515044967E+02  0.51100000000E-03 0.  1.
        -12    1    3    3    0    0 -0.30684636843E+01 -0.26448408765E+01 -0.82376083211E+01  0.91798062886E+01  0.00000000000E+00 0.  1.
</event>
<event>
 7    1  0.6857839E-013  0.5052886E+02  0.7816164E-02  0.1300439E+00
        -11   -1    0    0    0    0  0.00000000000E+00  0.00000000000E+00  0.45593999997E+02  0.45594000000E+02  0.51100000000E-03 0.  1.
         11   -1    0    0    0    0 -0.00000000000E+00 -0.00000000000E+00 -0.45593999997E+02  0.45594000000E+02  0.51100000000E-03 0. -1.
    9900012    2    1    2    0    0  0.18648007810E+02  0.64114449961E+01 -0.35557146033E+02  0.50528862573E+02  0.30000008278E+02 0.  0.
        -12    1    1    2    0    0 -0.18648007810E+02 -0.64114449961E+01  0.35557146033E+02  0.40659137427E+02  0.00000000000E+00 0.  1.
         11    1    3    3    0    0  0.20014965638E+02  0.54737774036E+01 -0.24207099067E+02  0.31883298669E+02  0.51100000000E-03 0. -1.
        -11    1    3    3    0    0  0.44052930443E+01  0.45841437108E+01 -0.97389573563E+01  0.11630488855E+02  0.51100000000E-03 0.  1.
        -12    1    3    3    0    0 -0.57722508716E+01 -0.36464761183E+01 -0.16110896104E+01  0.70150750487E+01  0.00000000000E+00 0.  1.
</event>
<event>
 7    1  0.6857839E-013  0.5052886E+02  0.7816164E-02  0.1300439E+00
        -11   -1    0    0    0    0  0.00000000000E+00  0.00000000000E+00  0.45593999997E+02  0.45594000000E+02  0.51100000000E-03 0.  1.
         11   -1    0    0    0    0 -0.00000000000E+00 -0.00000000000E+00 -0.45593999997E+02  0.45594000000E+02  0.51100000000E-03 0. -1.
    9900012    2    1    2    0    0  0.22018143746E+02  0.61164722220E+01 -0.33629683369E+02  0.50528862159E+02  0.30000007020E+02 0.  0.
        -12    1    1    2    0    0 -0.22018143746E+02 -0.61164722220E+01  0.33629683369E+02  0.40659137841E+02  0.00000000000E+00 0.  1.
         11    1    3    3    0    0  0.11858028455E+02 -0.34386532426E+01 -0.10571350038E+02  0.16253941579E+02  0.51100000000E-03 0. -1.
        -11    1    3    3    0    0 -0.63914227092E+01  0.36568619402E+01 -0.41081101402E+01  0.84320515109E+01  0.51100000000E-03 0.  1.
         12    1    3    3    0    0  0.16551538000E+02  0.58982635245E+01 -0.18950223191E+02  0.25842869070E+02  0.00000000000E+00 0. -1.
</event>
<event>
 7    1  0.6857839E-013  0.5052885E+02  0.7816164E-02  0.1300439E+00
        -11   -1    0    0    0    0  0.00000000000E+00  0.00000000000E+00  0.45593999997E+02  0.45594000000E+02  0.51100000000E-03 0.  1.
         11   -1    0    0    0    0 -0.00000000000E+00 -0.00000000000E+00 -0.45593999997E+02  0.45594000000E+02  0.51100000000E-03 0. -1.
    9900012    2    1    2    0    0 -0.19790229694E+01 -0.22584953387E+01 -0.40548112550E+02  0.50528846486E+02  0.29999959378E+02 0.  0.
        -12    1    1    2    0    0  0.19790229694E+01  0.22584953387E+01  0.40548112550E+02  0.40659153514E+02  0.00000000000E+00 0.  1.
         11    1    3    3    0    0 -0.11346960005E+01  0.65294941777E+01 -0.39401677108E+01  0.77101719229E+01  0.51100000000E-03 0. -1.
        -11    1    3    3    0    0 -0.26599846942E+01 -0.33729131996E+01  0.12960133848E+01  0.44868377484E+01  0.51100000000E-03 0.  1.
         12    1    3    3    0    0  0.18156577253E+01 -0.54150763168E+01 -0.37903958224E+02  0.38331836814E+02  0.00000000000E+00 0. -1.
</event>
<event>
 7    1  0.6857839E-013  0.5052886E+02  0.7816164E-02  0.1300439E+00
        -11   -1    0    0    0    0  0.00000000000E+00  0.00000000000E+00  0.45593999997E+02  0.45594000000E+02  0.51100000000E-03 0.  1.
         11   -1    0    0    0    0 -0.00000000000E+00 -0.00000000000E+00 -0.45593999997E+02  0.45594000000E+02  0.51100000000E-03 0. -1.
    9900012    2    1    2    0    0  0.22305291696E+01  0.23289854570E+02 -0.33253168995E+02  0.50528857922E+02  0.29999994141E+02 0.  0.
        -12    1    1    2    0    0 -0.22305291696E+01 -0.23289854570E+02  0.33253168995E+02  0.40659142078E+02  0.00000000000E+00 0.  1.
         11    1    3    3    0    0 -0.46279842113E+01  0.87285315742E+01 -0.14665291260E+01  0.99878030237E+01  0.51100000000E-03 0. -1.
        -11    1    3    3    0    0  0.88415955645E+01 -0.40610589905E+00 -0.18163408058E+02  0.20205150993E+02  0.51100000000E-03 0.  1.
         12    1    3    3    0    0 -0.19830821837E+01  0.14967428895E+02 -0.13623231811E+02  0.20335903905E+02  0.00000000000E+00 0. -1.
</event>
<event>
 7    1  0.6857839E-013  0.5052886E+02  0.7816164E-02  0.1300439E+00
        -11   -1    0    0    0    0  0.00000000000E+00  0.00000000000E+00  0.45593999997E+02  0.45594000000E+02  0.51100000000E-03 0.  1.
         11   -1    0    0    0    0 -0.00000000000E+00 -0.00000000000E+00 -0.45593999997E+02  0.45594000000E+02  0.51100000000E-03 0. -1.
    9900012    2    1    2    0    0  0.27164530970E+01  0.38425856725E+02 -0.13009223516E+02  0.50528862295E+02  0.30000007431E+02 0.  0.
        -12    1    1    2    0    0 -0.27164530970E+01 -0.38425856725E+02  0.13009223516E+02  0.40659137705E+02  0.00000000000E+00 0.  1.
         11    1    3    3    0    0  0.65449702728E+01  0.30051175711E+02 -0.15014285789E+02  0.34224823966E+02  0.51100000000E-03 0. -1.
        -11    1    3    3    0    0 -0.19227510787E+00  0.10966904641E+02  0.36274117204E+01  0.11552838750E+02  0.51100000000E-03 0.  1.
        -12    1    3    3    0    0 -0.36362420680E+01 -0.25922236273E+01 -0.16223494472E+01  0.47511995790E+01  0.00000000000E+00 0.  1.
</event>
<event>
 7    1  0.6857839E-013  0.5052886E+02  0.7816164E-02  0.1300439E+00
        -11   -1    0    0    0    0  0.00000000000E+00  0.00000000000E+00  0.45593999997E+02  0.45594000000E+02  0.51100000000E-03 0.  1.
         11   -1    0    0    0    0 -0.00000000000E+00 -0.00000000000E+00 -0.45593999997E+02  0.45594000000E+02  0.51100000000E-03 0. -1.
    9900012    2    1    2    0    0 -0.29380475038E+02  0.25144805011E+02  0.12557543330E+02  0.50528862933E+02  0.30000009372E+02 0.  0.
        -12    1    1    2    0    0  0.29380475038E+02 -0.25144805011E+02 -0.12557543330E+02  0.40659137067E+02  0.00000000000E+00 0.  1.
         11    1    3    3    0    0 -0.68587335147E+00  0.95373759476E+01  0.49687276842E+01  0.10775909116E+02  0.51100000000E-03 0.  1.
        -11    1    3    3    0    0 -0.27125681989E+02  0.15022679807E+02  0.13345473835E+02  0.33757742876E+02  0.51100000000E-03 0. -1.
         12    1    3    3    0    0 -0.15689196976E+01  0.58474925714E+00 -0.57566581895E+01  0.59952109406E+01  0.00000000000E+00 0. -1.
</event>
<event>
 7    1  0.6857839E-013  0.5052886E+02  0.7816164E-02  0.1300439E+00
        -11   -1    0    0    0    0  0.00000000000E+00  0.00000000000E+00  0.45593999997E+02  0.45594000000E+02  0.51100000000E-03 0.  1.
         11   -1    0    0    0    0 -0.00000000000E+00 -0.00000000000E+00 -0.45593999997E+02  0.45594000000E+02  0.51100000000E-03 0. -1.
    9900012    2    1    2    0    0  0.29695215208E+02  0.26196747638E+02 -0.92244308276E+01  0.50528861825E+02  0.30000006004E+02 0.  0.
        -12    1    1    2    0    0 -0.29695215208E+02 -0.26196747638E+02  0.92244308276E+01  0.40659138175E+02  0.00000000000E+00 0.  1.
         11    1    3    3    0    0  0.63122062249E+01  0.11965190886E+01 -0.37828332782E+01  0.74555639107E+01  0.51100000000E-03 0. -1.
        -11    1    3    3    0    0  0.16773647370E+02  0.56040217005E+01  0.70905275667E+01  0.19053500643E+02  0.51100000000E-03 0.  1.
        -12    1    3    3    0    0  0.66093616128E+01  0.19396206849E+02 -0.12532125116E+02  0.24019797272E+02  0.00000000000E+00 0.  1.
</event>
<event>
 7    1  0.6857839E-013  0.5052886E+02  0.7816164E-02  0.1300439E+00
        -11   -1    0    0    0    0  0.00000000000E+00  0.00000000000E+00  0.45593999997E+02  0.45594000000E+02  0.51100000000E-03 0. -1.
         11   -1    0    0    0    0 -0.00000000000E+00 -0.00000000000E+00 -0.45593999997E+02  0.45594000000E+02  0.51100000000E-03 0.  1.
    9900012    2    1    2    0    0 -0.32088248491E+02  0.13875932532E+02  0.20759772150E+02  0.50528864070E+02  0.30000012827E+02 0.  0.
        -12    1    1    2    0    0  0.32088248491E+02 -0.13875932532E+02 -0.20759772150E+02  0.40659135930E+02  0.00000000000E+00 0.  1.
         11    1    3    3    0    0 -0.16222300696E+02  0.15362201545E+02  0.23794087803E+01  0.22468241199E+02  0.51100000000E-03 0. -1.
        -11    1    3    3    0    0 -0.22359710350E+01  0.29919878403E+01  0.11610946486E+02  0.12196951925E+02  0.51100000000E-03 0.  1.
        -12    1    3    3    0    0 -0.13629976760E+02 -0.44782568534E+01  0.67694168836E+01  0.15863670946E+02  0.00000000000E+00 0.  1.
</event>
<event>
 7    1  0.6857839E-013  0.5052891E+02  0.7816164E-02  0.1300439E+00
        -11   -1    0    0    0    0  0.00000000000E+00  0.00000000000E+00  0.45593999997E+02  0.45594000000E+02  0.51100000000E-03 0. -1.
         11   -1    0    0    0    0 -0.00000000000E+00 -0.00000000000E+00 -0.45593999997E+02  0.45594000000E+02  0.51100000000E-03 0.  1.
    9900012    2    1    2    0    0 -0.57599744872E+01  0.30245579214E+02  0.26555399539E+02  0.50528909839E+02  0.30000151945E+02 0.  0.
        -12    1    1    2    0    0  0.57599744872E+01 -0.30245579214E+02 -0.26555399539E+02  0.40659090161E+02  0.00000000000E+00 0.  1.
         11    1    3    3    0    0 -0.29135501687E+01  0.15548232088E+01 -0.10857543923E+01  0.34763648626E+01  0.51100000000E-03 0. -1.
        -11    1    3    3    0    0 -0.12006764791E+02  0.83833632655E+01  0.54978649499E+01  0.15641921226E+02  0.51100000000E-03 0.  1.
         12    1    3    3    0    0  0.91603404723E+01  0.20307392739E+02  0.22143288982E+02  0.31410623750E+02  0.00000000000E+00 0. -1.
</event>
<event>
 7    1  0.6857839E-013  0.5052886E+02  0.7816164E-02  0.1300439E+00
        -11   -1    0    0    0    0  0.00000000000E+00  0.00000000000E+00  0.45593999997E+02  0.45594000000E+02  0.51100000000E-03 0.  1.
         11   -1    0    0    0    0 -0.00000000000E+00 -0.00000000000E+00 -0.45593999997E+02  0.45594000000E+02  0.51100000000E-03 0. -1.
    9900012    2    1    2    0    0 -0.29882234898E+02 -0.15953903590E+02 -0.22487570635E+02  0.50528857912E+02  0.29999994110E+02 0.  0.
        -12    1    1    2    0    0  0.29882234898E+02  0.15953903590E+02  0.22487570635E+02  0.40659142088E+02  0.00000000000E+00 0.  1.
         11    1    3    3    0    0 -0.29851284157E+02 -0.75586336812E+01 -0.19501253160E+02  0.36449018972E+02  0.51100000000E-03 0. -1.
        -11    1    3    3    0    0 -0.26521508409E+01 -0.84908695340E+01 -0.54905030032E+01  0.10453439291E+02  0.51100000000E-03 0.  1.
        -12    1    3    3    0    0  0.26212001004E+01  0.95599625435E-01  0.25041855281E+01  0.36263996489E+01  0.00000000000E+00 0.  1.
</event>
<event>
 7    1  0.6857839E-013  0.5052886E+02  0.7816164E-02  0.1300439E+00
        -11   -1    0    0    0    0  0.00000000000E+00  0.00000000000E+00  0.45593999997E+02  0.45594000000E+02  0.51100000000E-03 0. -1.
         11   -1    0    0    0    0 -0.00000000000E+00 -0.00000000000E+00 -0.45593999997E+02  0.45594000000E+02  0.51100000000E-03 0.  1.
    9900012    2    1    2    0    0  0.18045011195E+02 -0.30085885765E+02  0.20551960167E+02  0.50528855666E+02  0.29999987281E+02 0.  0.
        -12    1    1    2    0    0 -0.18045011195E+02  0.30085885765E+02 -0.20551960167E+02  0.40659144334E+02  0.00000000000E+00 0.  1.
         11    1    3    3    0    0  0.14856250545E+02 -0.61523490925E+01  0.51334506330E+01  0.16879333378E+02  0.51100000000E-03 0. -1.
        -11    1    3    3    0    0  0.86449127253E+01 -0.12706350606E+02  0.14506499846E+02  0.21133490005E+02  0.51100000000E-03 0.  1.
        -12    1    3    3    0    0 -0.54561520752E+01 -0.11227186066E+02  0.91200968807E+00  0.12516032283E+02  0.00000000000E+00 0.  1.
</event>
<event>
 7    1  0.6857839E-013  0.5052886E+02  0.7816164E-02  0.1300439E+00
        -11   -1    0    0    0    0  0.00000000000E+00  0.00000000000E+00  0.45593999997E+02  0.45594000000E+02  0.51100000000E-03 0.  1.
         11   -1    0    0    0    0 -0.00000000000E+00 -0.00000000000E+00 -0.45593999997E+02  0.45594000000E+02  0.51100000000E-03 0. -1.
    9900012    2    1    2    0    0 -0.39083143819E+02  0.66529704237E+01 -0.90228491018E+01  0.50528856476E+02  0.29999989743E+02 0.  0.
        -12    1    1    2    0    0  0.39083143819E+02 -0.66529704237E+01  0.90228491018E+01  0.40659143524E+02  0.00000000000E+00 0.  1.
         11    1    3    3    0    0 -0.27972591326E+02  0.36666993587E+01 -0.81517350956E+01  0.29365989427E+02  0.51100000000E-03 0. -1.
        -11    1    3    3    0    0 -0.11294976855E+02  0.53915843452E+01  0.60006474002E+01  0.13879965900E+02  0.51100000000E-03 0.  1.
         12    1    3    3    0    0  0.18442436155E+00 -0.24053132802E+01 -0.68717614064E+01  0.72829011491E+01  0.00000000000E+00 0. -1.
</event>
<event>
 7    1  0.9532654E-013  0.5052886E+02  0.7816164E-02  0.1300439E+00
        -11   -1    0    0    0    0  0.00000000000E+00  0.00000000000E+00  0.45593999997E+02  0.45594000000E+02  0.51100000000E-03 0. -1.
         11   -1    0    0    0    0 -0.00000000000E+00 -0.00000000000E+00 -0.45593999997E+02  0.45594000000E+02  0.51100000000E-03 0.  1.
    9900012    2    1    2    0    0  0.16458376697E+02  0.36936497814E+02  0.42405913525E+01  0.50528860200E+02  0.30000001063E+02 0.  0.
        -12    1    1    2    0    0 -0.16458376697E+02 -0.36936497814E+02 -0.42405913525E+01  0.40659139800E+02  0.00000000000E+00 0.  1.
         11    1    3    3    0    0  0.71006433077E+01  0.18790597641E+02  0.73654913028E+01  0.21395236794E+02  0.51100000000E-03 0. -1.
        -11    1    3    3    0    0  0.14071649949E+02  0.19494207966E+02 -0.21855937954E+01  0.24141505691E+02  0.51100000000E-03 0.  1.
        -12    1    3    3    0    0 -0.47139165593E+01 -0.13483077927E+01 -0.93930615502E+00  0.49921177154E+01  0.00000000000E+00 0.  1.
</event>
<event>
 7    1  0.6857839E-013  0.5052886E+02  0.7816164E-02  0.1300439E+00
        -11   -1    0    0    0    0  0.00000000000E+00  0.00000000000E+00  0.45593999997E+02  0.45594000000E+02  0.51100000000E-03 0.  1.
         11   -1    0    0    0    0 -0.00000000000E+00 -0.00000000000E+00 -0.45593999997E+02  0.45594000000E+02  0.51100000000E-03 0. -1.
    9900012    2    1    2    0    0  0.56850969892E+01 -0.29051905669E+02 -0.27871710071E+02  0.50528858677E+02  0.29999996436E+02 0.  0.
        -12    1    1    2    0    0 -0.56850969892E+01  0.29051905669E+02  0.27871710071E+02  0.40659141323E+02  0.00000000000E+00 0.  1.
         11    1    3    3    0    0 -0.69381120366E+01 -0.10727798119E+02 -0.64316332482E+01  0.14303459638E+02  0.51100000000E-03 0. -1.
        -11    1    3    3    0    0  0.79588376286E+01 -0.50976144934E+01  0.12673745302E+01  0.95359849194E+01  0.51100000000E-03 0.  1.
        -12    1    3    3    0    0  0.46643713972E+01 -0.13226493057E+02 -0.22707451353E+02  0.26689414120E+02  0.00000000000E+00 0.  1.
</event>
<event>
 7    1  0.6857839E-013  0.5052886E+02  0.7816164E-02  0.1300439E+00
        -11   -1    0    0    0    0  0.00000000000E+00  0.00000000000E+00  0.45593999997E+02  0.45594000000E+02  0.51100000000E-03 0. -1.
         11   -1    0    0    0    0 -0.00000000000E+00 -0.00000000000E+00 -0.45593999997E+02  0.45594000000E+02  0.51100000000E-03 0.  1.
    9900012    2    1    2    0    0  0.28691066636E+02  0.16885363102E+02  0.23342509936E+02  0.50528861275E+02  0.30000004330E+02 0.  0.
        -12    1    1    2    0    0 -0.28691066636E+02 -0.16885363102E+02 -0.23342509936E+02  0.40659138725E+02  0.00000000000E+00 0.  1.
         11    1    3    3    0    0  0.29211567737E+01  0.44787217864E+01  0.18583930629E+01  0.56608948740E+01  0.51100000000E-03 0. -1.
        -11    1    3    3    0    0  0.63924856018E+01 -0.64674610079E+01 -0.16889769357E+01  0.92490306200E+01  0.51100000000E-03 0.  1.
        -12    1    3    3    0    0  0.19377424260E+02  0.18874102323E+02  0.23173093809E+02  0.35618935781E+02  0.00000000000E+00 0.  1.
</event>
<event>
 7    1  0.6857839E-013  0.5052886E+02  0.7816164E-02  0.1300439E+00
        -11   -1    0    0    0    0  0.00000000000E+00  0.00000000000E+00  0.45593999997E+02  0.45594000000E+02  0.51100000000E-03 0.  1.
         11   -1    0    0    0    0 -0.00000000000E+00 -0.00000000000E+00 -0.45593999997E+02  0.45594000000E+02  0.51100000000E-03 0. -1.
    9900012    2    1    2    0    0  0.30693435450E+02  0.86363613268E+01 -0.25228791979E+02  0.50528860051E+02  0.30000000611E+02 0.  0.
        -12    1    1    2    0    0 -0.30693435450E+02 -0.86363613268E+01  0.25228791979E+02  0.40659139949E+02  0.00000000000E+00 0.  1.
         11    1    3    3    0    0  0.17068316430E+02  0.63208835325E+01 -0.30103902054E+02  0.35178486516E+02  0.51100000000E-03 0. -1.
        -11    1    3    3    0    0  0.59730795789E+01  0.20169001720E+01  0.60404213387E-01  0.63046978429E+01  0.51100000000E-03 0.  1.
         12    1    3    3    0    0  0.76520394406E+01  0.29857762231E+00  0.48147058617E+01  0.90456756924E+01  0.00000000000E+00 0. -1.
</event>
<event>
 7    1  0.6857839E-013  0.5052887E+02  0.7816164E-02  0.1300439E+00
        -11   -1    0    0    0    0  0.00000000000E+00  0.00000000000E+00  0.45593999997E+02  0.45594000000E+02  0.51100000000E-03 0.  1.
         11   -1    0    0    0    0 -0.00000000000E+00 -0.00000000000E+00 -0.45593999997E+02  0.45594000000E+02  0.51100000000E-03 0. -1.
    9900012    2    1    2    0    0  0.27962808792E+02  0.59900233071E+01 -0.28902701380E+02  0.50528865702E+02  0.30000017789E+02 0.  0.
        -12    1    1    2    0    0 -0.27962808792E+02 -0.59900233071E+01  0.28902701380E+02  0.40659134298E+02  0.00000000000E+00 0.  1.
         11    1    3    3    0    0  0.80394113565E+01  0.74584392606E+01 -0.12933157899E+02  0.16956621853E+02  0.51100000000E-03 0. -1.
        -11    1    3    3    0    0 -0.27830904096E+01 -0.57316526842E+01 -0.43204759042E+01  0.76983080622E+01  0.51100000000E-03 0.  1.
        -12    1    3    3    0    0  0.22706487845E+02  0.42632367307E+01 -0.11649067576E+02  0.25873935787E+02  0.00000000000E+00 0.  1.
</event>
<event>
 7    1  0.6857839E-013  0.5052886E+02  0.7816164E-02  0.1300439E+00
        -11   -1    0    0    0    0  0.00000000000E+00  0.00000000000E+00  0.45593999997E+02  0.45594000000E+02  0.51100000000E-03 0.  1.
         11   -1    0    0    0    0 -0.00000000000E+00 -0.00000000000E+00 -0.45593999997E+02  0.45594000000E+02  0.51100000000E-03 0. -1.
    9900012    2    1    2    0    0 -0.39398101078E+02  0.21574826947E+01 -0.98132901510E+01  0.50528858793E+02  0.29999996787E+02 0.  0.
        -12    1    1    2    0    0  0.39398101078E+02 -0.21574826947E+01  0.98132901510E+01  0.40659141207E+02  0.00000000000E+00 0.  1.
         11    1    3    3    0    0 -0.20577570190E+01  0.57550277190E+01 -0.77755069441E+01  0.98900564454E+01  0.51100000000E-03 0. -1.
        -11    1    3    3    0    0 -0.81038627179E+01 -0.98996947104E+00  0.60858694247E+01  0.10182850162E+02  0.51100000000E-03 0.  1.
         12    1    3    3    0    0 -0.29236481341E+02 -0.26075755532E+01 -0.81236526316E+01  0.30455952186E+02  0.00000000000E+00 0. -1.
</event>
<event>
 7    1  0.7196469E-013  0.5052887E+02  0.7816164E-02  0.1300439E+00
        -11   -1    0    0    0    0  0.00000000000E+00  0.00000000000E+00  0.45593999997E+02  0.45594000000E+02  0.51100000000E-03 0.  1.
         11   -1    0    0    0    0 -0.00000000000E+00 -0.00000000000E+00 -0.45593999997E+02  0.45594000000E+02  0.51100000000E-03 0. -1.
    9900012    2    1    2    0    0 -0.27938600486E+02 -0.76790881641E+01 -0.28524221489E+02  0.50528868139E+02  0.30000025195E+02 0.  0.
        -12    1    1    2    0    0  0.27938600486E+02  0.76790881641E+01  0.28524221489E+02  0.40659131861E+02  0.00000000000E+00 0.  1.
         11    1    3    3    0    0 -0.13747201378E+02  0.44902804716E+01 -0.15489078472E+02  0.21191029154E+02  0.51100000000E-03 0. -1.
        -11    1    3    3    0    0 -0.18204711579E+02 -0.76959899540E+01 -0.12309438568E+02  0.23284373798E+02  0.51100000000E-03 0.  1.
        -12    1    3    3    0    0  0.40133124711E+01 -0.44733786817E+01 -0.72570444865E+00  0.60534651868E+01  0.00000000000E+00 0.  1.
</event>
<event>
 7    1  0.6857839E-013  0.5052886E+02  0.7816164E-02  0.1300439E+00
        -11   -1    0    0    0    0  0.00000000000E+00  0.00000000000E+00  0.45593999997E+02  0.45594000000E+02  0.51100000000E-03 0.  1.
         11   -1    0    0    0    0 -0.00000000000E+00 -0.00000000000E+00 -0.45593999997E+02  0.45594000000E+02  0.51100000000E-03 0. -1.
    9900012    2    1    2    0    0  0.30553928217E+02  0.26066328238E+02 -0.63379523659E+01  0.50528860345E+02  0.30000001505E+02 0.  0.
        -12    1    1    2    0    0 -0.30553928217E+02 -0.26066328238E+02  0.63379523659E+01  0.40659139655E+02  0.00000000000E+00 0.  1.
         11    1    3    3    0    0  0.29071849188E+01  0.19609420887E+01  0.66031665793E+01  0.74765518231E+01  0.51100000000E-03 0. -1.
        -11    1    3    3    0    0  0.13690666919E+01 -0.25456204915E+01 -0.33326281225E+01  0.44114552879E+01  0.51100000000E-03 0.  1.
         12    1    3    3    0    0  0.26277676606E+02  0.26651006641E+02 -0.96084908227E+01  0.38640853234E+02  0.00000000000E+00 0. -1.
</event>
<event>
 7    1  0.6857839E-013  0.5052884E+02  0.7816164E-02  0.1300439E+00
        -11   -1    0    0    0    0  0.00000000000E+00  0.00000000000E+00  0.45593999997E+02  0.45594000000E+02  0.51100000000E-03 0.  1.
         11   -1    0    0    0    0 -0.00000000000E+00 -0.00000000000E+00 -0.45593999997E+02  0.45594000000E+02  0.51100000000E-03 0. -1.
    9900012    2    1    2    0    0 -0.13266594286E+02 -0.77519484103E+01 -0.37644013624E+02  0.50528843715E+02  0.29999950956E+02 0.  0.
        -12    1    1    2    0    0  0.13266594286E+02  0.77519484103E+01  0.37644013624E+02  0.40659156285E+02  0.00000000000E+00 0.  1.
         11    1    3    3    0    0 -0.36770844526E+01 -0.12760433315E+02 -0.68104838297E+01  0.14924218529E+02  0.51100000000E-03 0.  1.
        -11    1    3    3    0    0 -0.55423057893E+01 -0.42726922519E+01 -0.17612203654E+02  0.18951590180E+02  0.51100000000E-03 0. -1.
         12    1    3    3    0    0 -0.40472040438E+01  0.92811771566E+01 -0.13221326140E+02  0.16653035005E+02  0.00000000000E+00 0. -1.
</event>
<event>
 7    1  0.6857839E-013  0.5052886E+02  0.7816164E-02  0.1300439E+00
        -11   -1    0    0    0    0  0.00000000000E+00  0.00000000000E+00  0.45593999997E+02  0.45594000000E+02  0.51100000000E-03 0.  1.
         11   -1    0    0    0    0 -0.00000000000E+00 -0.00000000000E+00 -0.45593999997E+02  0.45594000000E+02  0.51100000000E-03 0. -1.
    9900012    2    1    2    0    0 -0.33442582924E+02 -0.73529759962E+01 -0.21924721112E+02  0.50528855832E+02  0.29999987787E+02 0.  0.
        -12    1    1    2    0    0  0.33442582924E+02  0.73529759962E+01  0.21924721112E+02  0.40659144168E+02  0.00000000000E+00 0.  1.
         11    1    3    3    0    0 -0.23926019839E+02 -0.55275755889E+01 -0.13961917207E+02  0.28247896374E+02  0.51100000000E-03 0. -1.
        -11    1    3    3    0    0  0.27028109403E+01 -0.51845907567E+01 -0.76186458729E+01  0.96035896149E+01  0.51100000000E-03 0.  1.
         12    1    3    3    0    0 -0.12219374026E+02  0.33591903494E+01 -0.34415803176E+00  0.12677369843E+02  0.00000000000E+00 0. -1.
</event>
<event>
 7    1  0.6857839E-013  0.5052886E+02  0.7816164E-02  0.1300439E+00
        -11   -1    0    0    0    0  0.00000000000E+00  0.00000000000E+00  0.45593999997E+02  0.45594000000E+02  0.51100000000E-03 0.  1.
         11   -1    0    0    0    0 -0.00000000000E+00 -0.00000000000E+00 -0.45593999997E+02  0.45594000000E+02  0.51100000000E-03 0. -1.
    9900012    2    1    2    0    0 -0.16915720168E+01  0.27753864645E+02 -0.29665247394E+02  0.50528864230E+02  0.30000013312E+02 0.  0.
        -12    1    1    2    0    0  0.16915720168E+01 -0.27753864645E+02  0.29665247394E+02  0.40659135770E+02  0.00000000000E+00 0.  1.
         11    1    3    3    0    0 -0.25803120193E+00  0.46426576444E+01  0.31862100650E+01  0.56367353090E+01  0.51100000000E-03 0. -1.
        -11    1    3    3    0    0 -0.22907876545E+01  0.17469041315E+02 -0.79218232526E+01  0.19317618809E+02  0.51100000000E-03 0.  1.
         12    1    3    3    0    0  0.85724683967E+00  0.56421656857E+01 -0.24929634207E+02  0.25574510112E+02  0.00000000000E+00 0. -1.
</event>
<event>
 7    1  0.6857839E-013  0.5052888E+02  0.7816164E-02  0.1300439E+00
        -11   -1    0    0    0    0  0.00000000000E+00  0.00000000000E+00  0.45593999997E+02  0.45594000000E+02  0.51100000000E-03 0. -1.
         11   -1    0    0    0    0 -0.00000000000E+00 -0.00000000000E+00 -0.45593999997E+02  0.45594000000E+02  0.51100000000E-03 0.  1.
    9900012    2    1    2    0    0 -0.29922680143E+02 -0.24260475721E+02  0.13008698946E+02  0.50528883956E+02  0.30000073273E+02 0.  0.
        -12    1    1    2    0    0  0.29922680143E+02  0.24260475721E+02 -0.13008698946E+02  0.40659116044E+02  0.00000000000E+00 0.  1.
         11    1    3    3    0    0  0.40108880595E+01 -0.48511694522E+01  0.24882191279E+01  0.67684786155E+01  0.51100000000E-03 0. -1.
        -11    1    3    3    0    0 -0.59291941623E+01  0.17803877204E+01 -0.19558884410E+01  0.64923511692E+01  0.51100000000E-03 0.  1.
         12    1    3    3    0    0 -0.28004374041E+02 -0.21189693990E+02  0.12476368260E+02  0.37268054171E+02  0.00000000000E+00 0. -1.
</event>
<event>
 7    1  0.7372828E-013  0.5052885E+02  0.7816164E-02  0.1300439E+00
        -11   -1    0    0    0    0  0.00000000000E+00  0.00000000000E+00  0.45593999997E+02  0.45594000000E+02  0.51100000000E-03 0. -1.
         11   -1    0    0    0    0 -0.00000000000E+00 -0.00000000000E+00 -0.45593999997E+02  0.45594000000E+02  0.51100000000E-03 0.  1.
    9900012    2    1    2    0    0  0.15764684136E+02  0.35377727514E+02 -0.12371650515E+02  0.50528848429E+02  0.29999965285E+02 0.  0.
        -12    1    1    2    0    0 -0.15764684136E+02 -0.35377727514E+02  0.12371650515E+02  0.40659151571E+02  0.00000000000E+00 0.  1.
         11    1    3    3    0    0  0.57262331424E+01  0.20093360918E+02 -0.10866644596E+02  0.23550304966E+02  0.51100000000E-03 0. -1.
        -11    1    3    3    0    0 -0.13409972708E+01  0.15430502780E+02  0.76086645936E-01  0.15488850156E+02  0.51100000000E-03 0.  1.
        -12    1    3    3    0    0  0.11379448264E+02 -0.14613618337E+00 -0.15810925656E+01  0.11489693307E+02  0.00000000000E+00 0.  1.
</event>
<event>
 7    1  0.6857839E-013  0.5052886E+02  0.7816164E-02  0.1300439E+00
        -11   -1    0    0    0    0  0.00000000000E+00  0.00000000000E+00  0.45593999997E+02  0.45594000000E+02  0.51100000000E-03 0. -1.
         11   -1    0    0    0    0 -0.00000000000E+00 -0.00000000000E+00 -0.45593999997E+02  0.45594000000E+02  0.51100000000E-03 0.  1.
    9900012    2    1    2    0    0  0.34700675306E+02  0.18016073644E+02  0.11155715720E+02  0.50528858722E+02  0.29999996570E+02 0.  0.
        -12    1    1    2    0    0 -0.34700675306E+02 -0.18016073644E+02 -0.11155715720E+02  0.40659141278E+02  0.00000000000E+00 0.  1.
         11    1    3    3    0    0  0.27872734200E+01  0.43884684834E+01 -0.22219431393E+01  0.56537226960E+01  0.51100000000E-03 0.  1.
        -11    1    3    3    0    0  0.52802764577E+01  0.70857134792E+01  0.14992340401E+02  0.17402842467E+02  0.51100000000E-03 0. -1.
         12    1    3    3    0    0  0.26633125429E+02  0.65418916817E+01 -0.16146815418E+01  0.27472293558E+02  0.00000000000E+00 0. -1.
</event>
<event>
 7    1  0.6857839E-013  0.5052886E+02  0.7816164E-02  0.1300439E+00
        -11   -1    0    0    0    0  0.00000000000E+00  0.00000000000E+00  0.45593999997E+02  0.45594000000E+02  0.51100000000E-03 0. -1.
         11   -1    0    0    0    0 -0.00000000000E+00 -0.00000000000E+00 -0.45593999997E+02  0.45594000000E+02  0.51100000000E-03 0.  1.
    9900012    2    1    2    0    0 -0.30328012827E+02  0.23672389167E+02  0.13152781141E+02  0.50528855608E+02  0.29999987107E+02 0.  0.
        -12    1    1    2    0    0  0.30328012827E+02 -0.23672389167E+02 -0.13152781141E+02  0.40659144392E+02  0.00000000000E+00 0.  1.
         11    1    3    3    0    0 -0.34614924315E+02  0.16371120091E+02  0.92218602354E+01  0.39385901853E+02  0.51100000000E-03 0. -1.
        -11    1    3    3    0    0  0.81336352954E+00  0.43810508587E+00  0.32978821161E+01  0.34248391218E+01  0.51100000000E-03 0.  1.
        -12    1    3    3    0    0  0.34735479580E+01  0.68631639906E+01  0.63303878928E+00  0.77181146329E+01  0.00000000000E+00 0.  1.
</event>
<event>
 7    1  0.6857839E-013  0.5052881E+02  0.7816164E-02  0.1300439E+00
        -11   -1    0    0    0    0  0.00000000000E+00  0.00000000000E+00  0.45593999997E+02  0.45594000000E+02  0.51100000000E-03 0. -1.
         11   -1    0    0    0    0 -0.00000000000E+00 -0.00000000000E+00 -0.45593999997E+02  0.45594000000E+02  0.51100000000E-03 0.  1.
    9900012    2    1    2    0    0 -0.31900947766E+02  0.10784900526E+02  0.22785642130E+02  0.50528806267E+02  0.29999837129E+02 0.  0.
        -12    1    1    2    0    0  0.31900947766E+02 -0.10784900526E+02 -0.22785642130E+02  0.40659193733E+02  0.00000000000E+00 0.  1.
         11    1    3    3    0    0 -0.22777060715E+02  0.10846283578E+02  0.16577741274E+02  0.30187048022E+02  0.51100000000E-03 0. -1.
        -11    1    3    3    0    0 -0.14689812001E+01  0.19815555128E+01  0.10871796701E+02  0.11148113374E+02  0.51100000000E-03 0.  1.
         12    1    3    3    0    0 -0.76549058508E+01 -0.20429385647E+01 -0.46638958454E+01  0.91936448713E+01  0.00000000000E+00 0. -1.
</event>
<event>
 7    1  0.6857839E-013  0.5052886E+02  0.7816164E-02  0.1300439E+00
        -11   -1    0    0    0    0  0.00000000000E+00  0.00000000000E+00  0.45593999997E+02  0.45594000000E+02  0.51100000000E-03 0. -1.
         11   -1    0    0    0    0 -0.00000000000E+00 -0.00000000000E+00 -0.45593999997E+02  0.45594000000E+02  0.51100000000E-03 0.  1.
    9900012    2    1    2    0    0 -0.10180465883E+01 -0.40480256134E+02 -0.36712366948E+01  0.50528861612E+02  0.30000005357E+02 0.  0.
        -12    1    1    2    0    0  0.10180465883E+01  0.40480256134E+02  0.36712366948E+01  0.40659138388E+02  0.00000000000E+00 0.  1.
         11    1    3    3    0    0  0.24434072334E+01 -0.13930613991E+02  0.50984425497E+01  0.15034173133E+02  0.51100000000E-03 0. -1.
        -11    1    3    3    0    0 -0.93983490596E+01 -0.78320361526E+01  0.30060914089E+01  0.12597870501E+02  0.51100000000E-03 0.  1.
        -12    1    3    3    0    0  0.59368952379E+01 -0.18717605990E+02 -0.11775770653E+02  0.22896817979E+02  0.00000000000E+00 0.  1.
</event>
<event>
 7    1  0.6857839E-013  0.5052886E+02  0.7816164E-02  0.1300439E+00
        -11   -1    0    0    0    0  0.00000000000E+00  0.00000000000E+00  0.45593999997E+02  0.45594000000E+02  0.51100000000E-03 0.  1.
         11   -1    0    0    0    0 -0.00000000000E+00 -0.00000000000E+00 -0.45593999997E+02  0.45594000000E+02  0.51100000000E-03 0. -1.
    9900012    2    1    2    0    0  0.39763796021E+02 -0.82866142800E+01  0.18270032229E+01  0.50528863377E+02  0.30000010719E+02 0.  0.
        -12    1    1    2    0    0 -0.39763796021E+02  0.82866142800E+01 -0.18270032229E+01  0.40659136623E+02  0.00000000000E+00 0.  1.
         11    1    3    3    0    0  0.30997706425E+02 -0.71199764326E+01  0.13307344854E+02  0.34476619546E+02  0.51100000000E-03 0. -1.
        -11    1    3    3    0    0  0.13513647014E+00  0.15482103002E+01 -0.16283794188E+00  0.15626047023E+01  0.51100000000E-03 0.  1.
         12    1    3    3    0    0  0.86309531254E+01 -0.27148481476E+01 -0.11317503689E+02  0.14489639128E+02  0.00000000000E+00 0. -1.
</event>
<event>
 7    1  0.6857839E-013  0.5052886E+02  0.7816164E-02  0.1300439E+00
        -11   -1    0    0    0    0  0.00000000000E+00  0.00000000000E+00  0.45593999997E+02  0.45594000000E+02  0.51100000000E-03 0. -1.
         11   -1    0    0    0    0 -0.00000000000E+00 -0.00000000000E+00 -0.45593999997E+02  0.45594000000E+02  0.51100000000E-03 0.  1.
    9900012    2    1    2    0    0  0.22281898058E+02 -0.10588745611E+02  0.32319675273E+02  0.50528856817E+02  0.29999990780E+02 0.  0.
        -12    1    1    2    0    0 -0.22281898058E+02  0.10588745611E+02 -0.32319675273E+02  0.40659143183E+02  0.00000000000E+00 0.  1.
         11    1    3    3    0    0  0.11475148240E+02 -0.10572151321E+02  0.43497705577E+01  0.16197836734E+02  0.51100000000E-03 0. -1.
        -11    1    3    3    0    0  0.72904210950E+01  0.21448400731E+01  0.17631721195E+01  0.78012405979E+01  0.51100000000E-03 0.  1.
         12    1    3    3    0    0  0.35163287224E+01 -0.21614343626E+01  0.26206732596E+02  0.26529779485E+02  0.00000000000E+00 0. -1.
</event>
<event>
 7    1  0.6857839E-013  0.5052886E+02  0.7816164E-02  0.1300439E+00
        -11   -1    0    0    0    0  0.00000000000E+00  0.00000000000E+00  0.45593999997E+02  0.45594000000E+02  0.51100000000E-03 0.  1.
         11   -1    0    0    0    0 -0.00000000000E+00 -0.00000000000E+00 -0.45593999997E+02  0.45594000000E+02  0.51100000000E-03 0. -1.
    9900012    2    1    2    0    0  0.26806974946E+02 -0.16378960626E+02 -0.25812426184E+02  0.50528860776E+02  0.30000002813E+02 0.  0.
        -12    1    1    2    0    0 -0.26806974946E+02  0.16378960626E+02  0.25812426184E+02  0.40659139224E+02  0.00000000000E+00 0.  1.
         11    1    3    3    0    0  0.14913875861E+02 -0.14177262043E+02 -0.10302470534E+02  0.23012156604E+02  0.51100000000E-03 0. -1.
        -11    1    3    3    0    0  0.74497130890E+01 -0.46843975334E+01  0.22156829429E+01  0.90747482899E+01  0.51100000000E-03 0.  1.
         12    1    3    3    0    0  0.44433859961E+01  0.24826989500E+01 -0.17725638593E+02  0.18441955881E+02  0.00000000000E+00 0. -1.
</event>
<event>
 7    1  0.6857839E-013  0.5052886E+02  0.7816164E-02  0.1300439E+00
        -11   -1    0    0    0    0  0.00000000000E+00  0.00000000000E+00  0.45593999997E+02  0.45594000000E+02  0.51100000000E-03 0. -1.
         11   -1    0    0    0    0 -0.00000000000E+00 -0.00000000000E+00 -0.45593999997E+02  0.45594000000E+02  0.51100000000E-03 0.  1.
    9900012    2    1    2    0    0  0.37138254501E+02 -0.13627774423E+01  0.16494205882E+02  0.50528856656E+02  0.29999990292E+02 0.  0.
        -12    1    1    2    0    0 -0.37138254501E+02  0.13627774423E+01 -0.16494205882E+02  0.40659143344E+02  0.00000000000E+00 0.  1.
         11    1    3    3    0    0  0.13162119450E+02  0.52807667849E+01 -0.25543896253E+00  0.14184256610E+02  0.51100000000E-03 0. -1.
        -11    1    3    3    0    0 -0.23441641380E+01 -0.56760608542E+00 -0.22666654731E+01  0.33098421114E+01  0.51100000000E-03 0.  1.
         12    1    3    3    0    0  0.26320299189E+02 -0.60759381418E+01  0.19016310318E+02  0.33034757935E+02  0.00000000000E+00 0. -1.
</event>
<event>
 7    1  0.6857839E-013  0.5052887E+02  0.7816164E-02  0.1300439E+00
        -11   -1    0    0    0    0  0.00000000000E+00  0.00000000000E+00  0.45593999997E+02  0.45594000000E+02  0.51100000000E-03 0. -1.
         11   -1    0    0    0    0 -0.00000000000E+00 -0.00000000000E+00 -0.45593999997E+02  0.45594000000E+02  0.51100000000E-03 0.  1.
    9900012    2    1    2    0    0 -0.15940528752E+02 -0.35651880820E+02 -0.11314045155E+02  0.50528872111E+02  0.30000037269E+02 0.  0.
        -12    1    1    2    0    0  0.15940528752E+02  0.35651880820E+02  0.11314045155E+02  0.40659127889E+02  0.00000000000E+00 0.  1.
         11    1    3    3    0    0 -0.14980243974E+02 -0.26881005265E+02 -0.89701504427E+01  0.32054013053E+02  0.51100000000E-03 0. -1.
        -11    1    3    3    0    0 -0.80888886921E+01 -0.37215569027E+01  0.13212391654E+01  0.90014320665E+01  0.51100000000E-03 0.  1.
        -12    1    3    3    0    0  0.71286039147E+01 -0.50493186530E+01 -0.36651338773E+01  0.94734269919E+01  0.00000000000E+00 0.  1.
</event>
<event>
 7    1  0.6857839E-013  0.5052885E+02  0.7816164E-02  0.1300439E+00
        -11   -1    0    0    0    0  0.00000000000E+00  0.00000000000E+00  0.45593999997E+02  0.45594000000E+02  0.51100000000E-03 0.  1.
         11   -1    0    0    0    0 -0.00000000000E+00 -0.00000000000E+00 -0.45593999997E+02  0.45594000000E+02  0.51100000000E-03 0. -1.
    9900012    2    1    2    0    0  0.68942737349E+01  0.38493073632E+02 -0.11131869972E+02  0.50528852726E+02  0.29999978346E+02 0.  0.
        -12    1    1    2    0    0 -0.68942737349E+01 -0.38493073632E+02  0.11131869972E+02  0.40659147274E+02  0.00000000000E+00 0.  1.
         11    1    3    3    0    0 -0.15868767498E+01  0.18689299641E+02 -0.18950775871E+01  0.18852040160E+02  0.51100000000E-03 0. -1.
        -11    1    3    3    0    0  0.15303524634E+02  0.13832539598E+02 -0.34340885087E+01  0.20912436063E+02  0.51100000000E-03 0.  1.
         12    1    3    3    0    0 -0.68223741492E+01  0.59712343932E+01 -0.58027038766E+01  0.10764376503E+02  0.00000000000E+00 0. -1.
</event>
<event>
 7    1  0.6857839E-013  0.5052886E+02  0.7816164E-02  0.1300439E+00
        -11   -1    0    0    0    0  0.00000000000E+00  0.00000000000E+00  0.45593999997E+02  0.45594000000E+02  0.51100000000E-03 0. -1.
         11   -1    0    0    0    0 -0.00000000000E+00 -0.00000000000E+00 -0.45593999997E+02  0.45594000000E+02  0.51100000000E-03 0.  1.
    9900012    2    1    2    0    0  0.27544861755E+02  0.25949271786E+02  0.14868801860E+02  0.50528863461E+02  0.30000010977E+02 0.  0.
        -12    1    1    2    0    0 -0.27544861755E+02 -0.25949271786E+02 -0.14868801860E+02  0.40659136539E+02  0.00000000000E+00 0.  1.
         11    1    3    3    0    0  0.13351133809E+02  0.16882936417E+02  0.59728178148E+01  0.22337432014E+02  0.51100000000E-03 0. -1.
        -11    1    3    3    0    0  0.54349306131E+00  0.10490155783E+02 -0.19688201030E+01  0.10687142083E+02  0.51100000000E-03 0.  1.
         12    1    3    3    0    0  0.13650234884E+02 -0.14238204137E+01  0.10864804149E+02  0.17504289364E+02  0.00000000000E+00 0. -1.
</event>
<event>
 7    1  0.6857839E-013  0.5052885E+02  0.7816164E-02  0.1300439E+00
        -11   -1    0    0    0    0  0.00000000000E+00  0.00000000000E+00  0.45593999997E+02  0.45594000000E+02  0.51100000000E-03 0.  1.
         11   -1    0    0    0    0 -0.00000000000E+00 -0.00000000000E+00 -0.45593999997E+02  0.45594000000E+02  0.51100000000E-03 0. -1.
    9900012    2    1    2    0    0  0.35148170998E+02 -0.19383068212E+02  0.64860593158E+01  0.50528853142E+02  0.29999979609E+02 0.  0.
        -12    1    1    2    0    0 -0.35148170998E+02  0.19383068212E+02 -0.64860593158E+01  0.40659146858E+02  0.00000000000E+00 0.  1.
         11    1    3    3    0    0  0.88043155076E+01 -0.53823815090E+00 -0.92979971682E+01  0.12816334244E+02  0.51100000000E-03 0. -1.
        -11    1    3    3    0    0  0.15622999503E+02 -0.50727531607E+01  0.48890937954E+01  0.17138091390E+02  0.51100000000E-03 0.  1.
        -12    1    3    3    0    0  0.10720855988E+02 -0.13772076900E+02  0.10894962689E+02  0.20574427507E+02  0.00000000000E+00 0.  1.
</event>
<event>
 7    1  0.6857839E-013  0.5052886E+02  0.7816164E-02  0.1300439E+00
        -11   -1    0    0    0    0  0.00000000000E+00  0.00000000000E+00  0.45593999997E+02  0.45594000000E+02  0.51100000000E-03 0. -1.
         11   -1    0    0    0    0 -0.00000000000E+00 -0.00000000000E+00 -0.45593999997E+02  0.45594000000E+02  0.51100000000E-03 0.  1.
    9900012    2    1    2    0    0  0.71845164284E+01  0.25139893027E+02  0.31137343285E+02  0.50528860258E+02  0.30000001239E+02 0.  0.
        -12    1    1    2    0    0 -0.71845164284E+01 -0.25139893027E+02 -0.31137343285E+02  0.40659139742E+02  0.00000000000E+00 0.  1.
         11    1    3    3    0    0 -0.17775540086E+01  0.27542103281E+01  0.67862268006E+00  0.33475217382E+01  0.51100000000E-03 0.  1.
        -11    1    3    3    0    0 -0.13536075379E+01 -0.46516110941E+01 -0.41914283794E+00  0.48626556650E+01  0.51100000000E-03 0. -1.
         12    1    3    3    0    0  0.10315677975E+02  0.27037293793E+02  0.30877863443E+02  0.42318682854E+02  0.00000000000E+00 0. -1.
</event>
<event>
 7    1  0.6857839E-013  0.5052885E+02  0.7816164E-02  0.1300439E+00
        -11   -1    0    0    0    0  0.00000000000E+00  0.00000000000E+00  0.45593999997E+02  0.45594000000E+02  0.51100000000E-03 0.  1.
         11   -1    0    0    0    0 -0.00000000000E+00 -0.00000000000E+00 -0.45593999997E+02  0.45594000000E+02  0.51100000000E-03 0. -1.
    9900012    2    1    2    0    0 -0.60339452639E+01 -0.32861026867E+02 -0.23171332999E+02  0.50528852749E+02  0.29999978416E+02 0.  0.
        -12    1    1    2    0    0  0.60339452639E+01  0.32861026867E+02  0.23171332999E+02  0.40659147251E+02  0.00000000000E+00 0.  1.
         11    1    3    3    0    0 -0.42067088360E+01 -0.30241664419E+01 -0.86415216090E+00  0.52524985595E+01  0.51100000000E-03 0. -1.
        -11    1    3    3    0    0  0.57522035530E+01 -0.25770085833E+02 -0.63632596050E+01  0.27160195924E+02  0.51100000000E-03 0.  1.
         12    1    3    3    0    0 -0.75794399809E+01 -0.40667745923E+01 -0.15943921233E+02  0.18116158265E+02  0.00000000000E+00 0. -1.
</event>
<event>
 7    1  0.6857839E-013  0.5052885E+02  0.7816164E-02  0.1300439E+00
        -11   -1    0    0    0    0  0.00000000000E+00  0.00000000000E+00  0.45593999997E+02  0.45594000000E+02  0.51100000000E-03 0.  1.
         11   -1    0    0    0    0 -0.00000000000E+00 -0.00000000000E+00 -0.45593999997E+02  0.45594000000E+02  0.51100000000E-03 0. -1.
    9900012    2    1    2    0    0 -0.35961720732E+02  0.13662573000E+02 -0.13162647456E+02  0.50528849160E+02  0.29999967506E+02 0.  0.
        -12    1    1    2    0    0  0.35961720732E+02 -0.13662573000E+02  0.13162647456E+02  0.40659150840E+02  0.00000000000E+00 0.  1.
         11    1    3    3    0    0 -0.14137892087E+02 -0.33197636776E+01 -0.85971604596E+01  0.16876373775E+02  0.51100000000E-03 0. -1.
        -11    1    3    3    0    0  0.19312130333E+01  0.70758343303E+01 -0.28108818933E+01  0.78548120620E+01  0.51100000000E-03 0.  1.
        -12    1    3    3    0    0 -0.23755041678E+02  0.99065023470E+01 -0.17546051034E+01  0.25797663323E+02  0.00000000000E+00 0.  1.
</event>
<event>
 7    1  0.6857839E-013  0.5052885E+02  0.7816164E-02  0.1300439E+00
        -11   -1    0    0    0    0  0.00000000000E+00  0.00000000000E+00  0.45593999997E+02  0.45594000000E+02  0.51100000000E-03 0.  1.
         11   -1    0    0    0    0 -0.00000000000E+00 -0.00000000000E+00 -0.45593999997E+02  0.45594000000E+02  0.51100000000E-03 0. -1.
    9900012    2    1    2    0    0 -0.30796884588E+02  0.86210335249E+00 -0.26532530116E+02  0.50528850023E+02  0.29999970129E+02 0.  0.
        -12    1    1    2    0    0  0.30796884588E+02 -0.86210335249E+00  0.26532530116E+02  0.40659149977E+02  0.00000000000E+00 0.  1.
         11    1    3    3    0    0 -0.17584741507E+02 -0.11955888471E+01 -0.11229283090E+02  0.20898549364E+02  0.51100000000E-03 0. -1.
        -11    1    3    3    0    0 -0.98992427536E+01 -0.29460990161E+01 -0.19664471857E+02  0.22211842791E+02  0.51100000000E-03 0.  1.
         12    1    3    3    0    0 -0.33129003270E+01  0.50037912157E+01  0.43612248303E+01  0.74184578672E+01  0.00000000000E+00 0. -1.
</event>
<event>
 7    1  0.6857839E-013  0.5052887E+02  0.7816164E-02  0.1300439E+00
        -11   -1    0    0    0    0  0.00000000000E+00  0.00000000000E+00  0.45593999997E+02  0.45594000000E+02  0.51100000000E-03 0. -1.
         11   -1    0    0    0    0 -0.00000000000E+00 -0.00000000000E+00 -0.45593999997E+02  0.45594000000E+02  0.51100000000E-03 0.  1.
    9900012    2    1    2    0    0 -0.35717229483E+02  0.15016103392E+02 -0.12327262373E+02  0.50528865225E+02  0.30000016337E+02 0.  0.
        -12    1    1    2    0    0  0.35717229483E+02 -0.15016103392E+02  0.12327262373E+02  0.40659134775E+02  0.00000000000E+00 0.  1.
         11    1    3    3    0    0 -0.24623367564E+02  0.20615978959E+01 -0.56853338830E+01  0.25355146178E+02  0.51100000000E-03 0. -1.
        -11    1    3    3    0    0 -0.11330031550E+02  0.70752350328E+01 -0.11435652804E+02  0.17584161083E+02  0.51100000000E-03 0.  1.
        -12    1    3    3    0    0  0.23616963048E+00  0.58792704634E+01  0.47937243141E+01  0.75895579632E+01  0.00000000000E+00 0.  1.
</event>
<event>
 7    1  0.6857839E-013  0.5052886E+02  0.7816164E-02  0.1300439E+00
        -11   -1    0    0    0    0  0.00000000000E+00  0.00000000000E+00  0.45593999997E+02  0.45594000000E+02  0.51100000000E-03 0.  1.
         11   -1    0    0    0    0 -0.00000000000E+00 -0.00000000000E+00 -0.45593999997E+02  0.45594000000E+02  0.51100000000E-03 0. -1.
    9900012    2    1    2    0    0 -0.20608403331E+02  0.29079539841E+02 -0.19566290349E+02  0.50528860274E+02  0.30000001289E+02 0.  0.
        -12    1    1    2    0    0  0.20608403331E+02 -0.29079539841E+02  0.19566290349E+02  0.40659139726E+02  0.00000000000E+00 0.  1.
         11    1    3    3    0    0 -0.36667421053E+01  0.14990148467E+02 -0.36309094004E+00  0.15436365635E+02  0.51100000000E-03 0. -1.
        -11    1    3    3    0    0  0.41773889065E+01  0.45403211359E+01 -0.34581307005E+01  0.70727478603E+01  0.51100000000E-03 0.  1.
         12    1    3    3    0    0 -0.21119050132E+02  0.95490702382E+01 -0.15745068709E+02  0.28019746779E+02  0.00000000000E+00 0. -1.
</event>
<event>
 7    1  0.6857839E-013  0.5052885E+02  0.7816164E-02  0.1300439E+00
        -11   -1    0    0    0    0  0.00000000000E+00  0.00000000000E+00  0.45593999997E+02  0.45594000000E+02  0.51100000000E-03 0. -1.
         11   -1    0    0    0    0 -0.00000000000E+00 -0.00000000000E+00 -0.45593999997E+02  0.45594000000E+02  0.51100000000E-03 0.  1.
    9900012    2    1    2    0    0  0.82224054887E+01 -0.39774753209E+02  0.18780902348E+01  0.50528853824E+02  0.29999981683E+02 0.  0.
        -12    1    1    2    0    0 -0.82224054887E+01  0.39774753209E+02 -0.18780902348E+01  0.40659146176E+02  0.00000000000E+00 0.  1.
         11    1    3    3    0    0  0.45453269057E+00 -0.14107732243E+02 -0.25954111429E+01  0.14351685207E+02  0.51100000000E-03 0. -1.
        -11    1    3    3    0    0 -0.78691339057E+01 -0.11217711667E+02  0.57231016311E+01  0.14849721075E+02  0.51100000000E-03 0.  1.
        -12    1    3    3    0    0  0.15637006704E+02 -0.14449309298E+02 -0.12496002535E+01  0.21327447542E+02  0.00000000000E+00 0.  1.
</event>
<event>
 7    1  0.6857839E-013  0.5052885E+02  0.7816164E-02  0.1300439E+00
        -11   -1    0    0    0    0  0.00000000000E+00  0.00000000000E+00  0.45593999997E+02  0.45594000000E+02  0.51100000000E-03 0.  1.
         11   -1    0    0    0    0 -0.00000000000E+00 -0.00000000000E+00 -0.45593999997E+02  0.45594000000E+02  0.51100000000E-03 0. -1.
    9900012    2    1    2    0    0  0.67042106245E+01 -0.35774059649E+02 -0.18122818196E+02  0.50528851912E+02  0.29999975873E+02 0.  0.
        -12    1    1    2    0    0 -0.67042106245E+01  0.35774059649E+02  0.18122818196E+02  0.40659148088E+02  0.00000000000E+00 0.  1.
         11    1    3    3    0    0 -0.65214444408E+01 -0.61589021571E+01 -0.10064125910E+02  0.13481392509E+02  0.51100000000E-03 0. -1.
        -11    1    3    3    0    0  0.65482808003E+01 -0.93580780908E+00 -0.25550217244E+01  0.70911109121E+01  0.51100000000E-03 0.  1.
        -12    1    3    3    0    0  0.66773742650E+01 -0.28679349683E+02 -0.55036705613E+01  0.29956348491E+02  0.00000000000E+00 0.  1.
</event>
<event>
 7    1  0.6857839E-013  0.5052886E+02  0.7816164E-02  0.1300439E+00
        -11   -1    0    0    0    0  0.00000000000E+00  0.00000000000E+00  0.45593999997E+02  0.45594000000E+02  0.51100000000E-03 0.  1.
         11   -1    0    0    0    0 -0.00000000000E+00 -0.00000000000E+00 -0.45593999997E+02  0.45594000000E+02  0.51100000000E-03 0. -1.
    9900012    2    1    2    0    0 -0.10932825867E+02  0.11834866148E+01 -0.39143817035E+02  0.50528859157E+02  0.29999997895E+02 0.  0.
        -12    1    1    2    0    0  0.10932825867E+02 -0.11834866148E+01  0.39143817035E+02  0.40659140843E+02  0.00000000000E+00 0.  1.
         11    1    3    3    0    0 -0.19364286396E+01  0.53228374068E+01 -0.11159463056E+02  0.12514630234E+02  0.51100000000E-03 0.  1.
        -11    1    3    3    0    0  0.57891621649E+01  0.22642633360E+01 -0.18037461064E+02  0.19078555734E+02  0.51100000000E-03 0. -1.
         12    1    3    3    0    0 -0.14785559393E+02 -0.64036141280E+01 -0.99468929146E+01  0.18935673189E+02  0.00000000000E+00 0. -1.
</event>
<event>
 7    1  0.6857839E-013  0.5052887E+02  0.7816164E-02  0.1300439E+00
        -11   -1    0    0    0    0  0.00000000000E+00  0.00000000000E+00  0.45593999997E+02  0.45594000000E+02  0.51100000000E-03 0. -1.
         11   -1    0    0    0    0 -0.00000000000E+00 -0.00000000000E+00 -0.45593999997E+02  0.45594000000E+02  0.51100000000E-03 0.  1.
    9900012    2    1    2    0    0  0.34836801551E+02  0.76911113611E+01  0.19504071167E+02  0.50528871525E+02  0.30000035486E+02 0.  0.
        -12    1    1    2    0    0 -0.34836801551E+02 -0.76911113611E+01 -0.19504071167E+02  0.40659128475E+02  0.00000000000E+00 0.  1.
         11    1    3    3    0    0 -0.21352012249E+01 -0.10900628016E+00  0.56515691708E+01  0.60424499165E+01  0.51100000000E-03 0. -1.
        -11    1    3    3    0    0  0.52080935368E+01 -0.42521151114E+00 -0.44955947395E+01  0.68931426389E+01  0.51100000000E-03 0.  1.
         12    1    3    3    0    0  0.31763909239E+02  0.82253291524E+01  0.18348096736E+02  0.37593278969E+02  0.00000000000E+00 0. -1.
</event>
<event>
 7    1  0.6857839E-013  0.5052886E+02  0.7816164E-02  0.1300439E+00
        -11   -1    0    0    0    0  0.00000000000E+00  0.00000000000E+00  0.45593999997E+02  0.45594000000E+02  0.51100000000E-03 0. -1.
         11   -1    0    0    0    0 -0.00000000000E+00 -0.00000000000E+00 -0.45593999997E+02  0.45594000000E+02  0.51100000000E-03 0.  1.
    9900012    2    1    2    0    0 -0.11157781607E+02 -0.37625109553E+02 -0.10631117278E+02  0.50528860636E+02  0.30000002388E+02 0.  0.
        -12    1    1    2    0    0  0.11157781607E+02  0.37625109553E+02  0.10631117278E+02  0.40659139364E+02  0.00000000000E+00 0.  1.
         11    1    3    3    0    0 -0.94106544176E+00 -0.27955050378E+02  0.94100601351E+00  0.27986710031E+02  0.51100000000E-03 0. -1.
        -11    1    3    3    0    0 -0.16951710171E+01  0.42514453880E+00  0.26221818920E+01  0.31512205241E+01  0.51100000000E-03 0.  1.
        -12    1    3    3    0    0 -0.85215451479E+01 -0.10095203714E+02 -0.14194305184E+02  0.19390930081E+02  0.00000000000E+00 0.  1.
</event>
<event>
 7    1  0.6857839E-013  0.5052886E+02  0.7816164E-02  0.1300439E+00
        -11   -1    0    0    0    0  0.00000000000E+00  0.00000000000E+00  0.45593999997E+02  0.45594000000E+02  0.51100000000E-03 0.  1.
         11   -1    0    0    0    0 -0.00000000000E+00 -0.00000000000E+00 -0.45593999997E+02  0.45594000000E+02  0.51100000000E-03 0. -1.
    9900012    2    1    2    0    0 -0.34286574190E+02 -0.21493763444E+02  0.39515578970E+01  0.50528857775E+02  0.29999993694E+02 0.  0.
        -12    1    1    2    0    0  0.34286574190E+02  0.21493763444E+02 -0.39515578970E+01  0.40659142225E+02  0.00000000000E+00 0.  1.
         11    1    3    3    0    0 -0.10638570966E+02 -0.10249498013E+02  0.42114918567E+01  0.15361252085E+02  0.51100000000E-03 0. -1.
        -11    1    3    3    0    0 -0.63572039136E+01 -0.76191439148E+01 -0.10743180688E+02  0.14624682121E+02  0.51100000000E-03 0.  1.
         12    1    3    3    0    0 -0.17290799310E+02 -0.36251215162E+01  0.10483246728E+02  0.20542923569E+02  0.00000000000E+00 0. -1.
</event>
<event>
 7    1  0.6857839E-013  0.5052888E+02  0.7816164E-02  0.1300439E+00
        -11   -1    0    0    0    0  0.00000000000E+00  0.00000000000E+00  0.45593999997E+02  0.45594000000E+02  0.51100000000E-03 0.  1.
         11   -1    0    0    0    0 -0.00000000000E+00 -0.00000000000E+00 -0.45593999997E+02  0.45594000000E+02  0.51100000000E-03 0. -1.
    9900012    2    1    2    0    0 -0.92411049550E+01 -0.35223024032E+02 -0.18086023472E+02  0.50528884321E+02  0.30000074383E+02 0.  0.
        -12    1    1    2    0    0  0.92411049550E+01  0.35223024032E+02  0.18086023472E+02  0.40659115679E+02  0.00000000000E+00 0.  1.
         11    1    3    3    0    0 -0.56226628404E+01 -0.11346175939E+02 -0.48022634325E+01  0.13542960540E+02  0.51100000000E-03 0. -1.
        -11    1    3    3    0    0 -0.86429143932E+01 -0.27166412139E+02 -0.10746451257E+02  0.30466377083E+02  0.51100000000E-03 0.  1.
        -12    1    3    3    0    0  0.50244722786E+01  0.32895640459E+01 -0.25373087819E+01  0.65195466978E+01  0.00000000000E+00 0.  1.
</event>
<event>
 7    1  0.6857839E-013  0.5052886E+02  0.7816164E-02  0.1300439E+00
        -11   -1    0    0    0    0  0.00000000000E+00  0.00000000000E+00  0.45593999997E+02  0.45594000000E+02  0.51100000000E-03 0.  1.
         11   -1    0    0    0    0 -0.00000000000E+00 -0.00000000000E+00 -0.45593999997E+02  0.45594000000E+02  0.51100000000E-03 0. -1.
    9900012    2    1    2    0    0  0.30487180407E+01 -0.93249004346E+01 -0.39457788841E+02  0.50528861421E+02  0.30000004775E+02 0.  0.
        -12    1    1    2    0    0 -0.30487180407E+01  0.93249004346E+01  0.39457788841E+02  0.40659138579E+02  0.00000000000E+00 0.  1.
         11    1    3    3    0    0  0.89690938376E+00 -0.55947089910E+01  0.13989510892E+01  0.58362898787E+01  0.51100000000E-03 0.  1.
        -11    1    3    3    0    0 -0.28630119887E+01  0.59304465404E+01 -0.10011844199E+02  0.11983491075E+02  0.51100000000E-03 0. -1.
         12    1    3    3    0    0  0.50148206457E+01 -0.96606379840E+01 -0.30844895731E+02  0.32709080467E+02  0.00000000000E+00 0. -1.
</event>
<event>
 7    1  0.6857839E-013  0.5052888E+02  0.7816164E-02  0.1300439E+00
        -11   -1    0    0    0    0  0.00000000000E+00  0.00000000000E+00  0.45593999997E+02  0.45594000000E+02  0.51100000000E-03 0.  1.
         11   -1    0    0    0    0 -0.00000000000E+00 -0.00000000000E+00 -0.45593999997E+02  0.45594000000E+02  0.51100000000E-03 0. -1.
    9900012    2    1    2    0    0  0.24536595402E+02 -0.16262780667E+02 -0.28047125639E+02  0.50528882873E+02  0.30000069981E+02 0.  0.
        -12    1    1    2    0    0 -0.24536595402E+02  0.16262780667E+02  0.28047125639E+02  0.40659117127E+02  0.00000000000E+00 0.  1.
         11    1    3    3    0    0 -0.12641472840E+01 -0.33530964109E+01  0.40887175866E+01  0.54368130059E+01  0.51100000000E-03 0. -1.
        -11    1    3    3    0    0  0.28425813069E-02  0.88490141593E-01 -0.64081481546E+01  0.64087597566E+01  0.51100000000E-03 0.  1.
         12    1    3    3    0    0  0.25797900105E+02 -0.12998174398E+02 -0.25727695071E+02  0.38683310111E+02  0.00000000000E+00 0. -1.
</event>
<event>
 7    1  0.6857839E-013  0.5052886E+02  0.7816164E-02  0.1300439E+00
        -11   -1    0    0    0    0  0.00000000000E+00  0.00000000000E+00  0.45593999997E+02  0.45594000000E+02  0.51100000000E-03 0. -1.
         11   -1    0    0    0    0 -0.00000000000E+00 -0.00000000000E+00 -0.45593999997E+02  0.45594000000E+02  0.51100000000E-03 0.  1.
    9900012    2    1    2    0    0 -0.13302333962E+02 -0.36858351844E+02  0.10847838290E+02  0.50528858530E+02  0.29999995989E+02 0.  0.
        -12    1    1    2    0    0  0.13302333962E+02  0.36858351844E+02 -0.10847838290E+02  0.40659141470E+02  0.00000000000E+00 0.  1.
         11    1    3    3    0    0 -0.60202898106E+01  0.66907676987E+00  0.65648350294E+01  0.89324471648E+01  0.51100000000E-03 0. -1.
        -11    1    3    3    0    0 -0.23376719552E+01 -0.32123629452E+01  0.56418758175E+01  0.69003441119E+01  0.51100000000E-03 0.  1.
         12    1    3    3    0    0 -0.49443721960E+01 -0.34315065669E+02 -0.13588725570E+01  0.34696067254E+02  0.00000000000E+00 0. -1.
</event>
<event>
 7    1  0.6857839E-013  0.5052885E+02  0.7816164E-02  0.1300439E+00
        -11   -1    0    0    0    0  0.00000000000E+00  0.00000000000E+00  0.45593999997E+02  0.45594000000E+02  0.51100000000E-03 0.  1.
         11   -1    0    0    0    0 -0.00000000000E+00 -0.00000000000E+00 -0.45593999997E+02  0.45594000000E+02  0.51100000000E-03 0. -1.
    9900012    2    1    2    0    0  0.32725836682E+02 -0.16463457947E+02 -0.17639182902E+02  0.50528848416E+02  0.29999965245E+02 0.  0.
        -12    1    1    2    0    0 -0.32725836682E+02  0.16463457947E+02  0.17639182902E+02  0.40659151584E+02  0.00000000000E+00 0.  1.
         11    1    3    3    0    0  0.14142758385E+02 -0.12528737160E+02 -0.84984531507E+01  0.20717397901E+02  0.51100000000E-03 0. -1.
        -11    1    3    3    0    0  0.57707440316E+01  0.41055880758E+01 -0.12453753340E+02  0.14326664393E+02  0.51100000000E-03 0.  1.
         12    1    3    3    0    0  0.12812334265E+02 -0.80403088625E+01  0.33130235889E+01  0.15484786122E+02  0.00000000000E+00 0. -1.
</event>
<event>
 7    1  0.6857839E-013  0.5052886E+02  0.7816164E-02  0.1300439E+00
        -11   -1    0    0    0    0  0.00000000000E+00  0.00000000000E+00  0.45593999997E+02  0.45594000000E+02  0.51100000000E-03 0.  1.
         11   -1    0    0    0    0 -0.00000000000E+00 -0.00000000000E+00 -0.45593999997E+02  0.45594000000E+02  0.51100000000E-03 0. -1.
    9900012    2    1    2    0    0 -0.20352471084E+02  0.20525719554E+02 -0.28594357925E+02  0.50528861451E+02  0.30000004867E+02 0.  0.
        -12    1    1    2    0    0  0.20352471084E+02 -0.20525719554E+02  0.28594357925E+02  0.40659138549E+02  0.00000000000E+00 0.  1.
         11    1    3    3    0    0 -0.11502954283E+02  0.19688145895E+02 -0.25520444118E+02  0.34223297829E+02  0.51100000000E-03 0. -1.
        -11    1    3    3    0    0 -0.63570187482E+01  0.62827450859E+01 -0.47026784924E+01  0.10099492980E+02  0.51100000000E-03 0.  1.
        -12    1    3    3    0    0 -0.24924980525E+01 -0.54451714277E+01  0.16287646860E+01  0.62060706426E+01  0.00000000000E+00 0.  1.
</event>
<event>
 7    1  0.6857839E-013  0.5052886E+02  0.7816164E-02  0.1300439E+00
        -11   -1    0    0    0    0  0.00000000000E+00  0.00000000000E+00  0.45593999997E+02  0.45594000000E+02  0.51100000000E-03 0. -1.
         11   -1    0    0    0    0 -0.00000000000E+00 -0.00000000000E+00 -0.45593999997E+02  0.45594000000E+02  0.51100000000E-03 0.  1.
    9900012    2    1    2    0    0  0.84140078996E+01  0.38293282694E+02  0.10770077362E+02  0.50528860870E+02  0.30000003101E+02 0.  0.
        -12    1    1    2    0    0 -0.84140078996E+01 -0.38293282694E+02 -0.10770077362E+02  0.40659139130E+02  0.00000000000E+00 0.  1.
         11    1    3    3    0    0  0.30623118399E-02  0.76539679444E+01 -0.14408120401E+01  0.77883999813E+01  0.51100000000E-03 0. -1.
        -11    1    3    3    0    0  0.10967806015E+01  0.29071095666E+02  0.80808016755E+00  0.29102998552E+02  0.51100000000E-03 0.  1.
         12    1    3    3    0    0  0.73141649863E+01  0.15682190834E+01  0.11402809235E+02  0.13637462337E+02  0.00000000000E+00 0. -1.
</event>
<event>
 7    1  0.6857839E-013  0.5052883E+02  0.7816164E-02  0.1300439E+00
        -11   -1    0    0    0    0  0.00000000000E+00  0.00000000000E+00  0.45593999997E+02  0.45594000000E+02  0.51100000000E-03 0.  1.
         11   -1    0    0    0    0 -0.00000000000E+00 -0.00000000000E+00 -0.45593999997E+02  0.45594000000E+02  0.51100000000E-03 0. -1.
    9900012    2    1    2    0    0  0.35467476834E+02  0.98737680908E+00 -0.19855758554E+02  0.50528831616E+02  0.29999914179E+02 0.  0.
        -12    1    1    2    0    0 -0.35467476834E+02 -0.98737680908E+00  0.19855758554E+02  0.40659168384E+02  0.00000000000E+00 0.  1.
         11    1    3    3    0    0  0.25720880115E+02  0.28083868261E+01 -0.21140270039E+02  0.33411999761E+02  0.51100000000E-03 0.  1.
        -11    1    3    3    0    0  0.61743298824E+01  0.52861446311E+01 -0.22182502405E+01  0.84253373196E+01  0.51100000000E-03 0. -1.
        -12    1    3    3    0    0  0.35722668368E+01 -0.71071546481E+01  0.35027617254E+01  0.86914945349E+01  0.00000000000E+00 0.  1.
</event>
<event>
 7    1  0.6857839E-013  0.5052888E+02  0.7816164E-02  0.1300439E+00
        -11   -1    0    0    0    0  0.00000000000E+00  0.00000000000E+00  0.45593999997E+02  0.45594000000E+02  0.51100000000E-03 0. -1.
         11   -1    0    0    0    0 -0.00000000000E+00 -0.00000000000E+00 -0.45593999997E+02  0.45594000000E+02  0.51100000000E-03 0.  1.
    9900012    2    1    2    0    0 -0.19788890893E+02  0.30821693499E+02  0.17651832300E+02  0.50528878311E+02  0.30000056115E+02 0.  0.
        -12    1    1    2    0    0  0.19788890893E+02 -0.30821693499E+02 -0.17651832300E+02  0.40659121689E+02  0.00000000000E+00 0.  1.
         11    1    3    3    0    0 -0.69998842737E+01  0.22972157189E+01 -0.14372938060E+01  0.75060904371E+01  0.51100000000E-03 0. -1.
        -11    1    3    3    0    0  0.64740014820E+01  0.56834844307E+01  0.32727529908E+01  0.92155088228E+01  0.51100000000E-03 0.  1.
         12    1    3    3    0    0 -0.19263008101E+02  0.22840993350E+02  0.15816373116E+02  0.33807279051E+02  0.00000000000E+00 0. -1.
</event>
<event>
 7    1  0.6857839E-013  0.5052886E+02  0.7816164E-02  0.1300439E+00
        -11   -1    0    0    0    0  0.00000000000E+00  0.00000000000E+00  0.45593999997E+02  0.45594000000E+02  0.51100000000E-03 0.  1.
         11   -1    0    0    0    0 -0.00000000000E+00 -0.00000000000E+00 -0.45593999997E+02  0.45594000000E+02  0.51100000000E-03 0. -1.
    9900012    2    1    2    0    0 -0.37888102030E+02  0.94864311313E+01 -0.11298891693E+02  0.50528860750E+02  0.30000002737E+02 0.  0.
        -12    1    1    2    0    0  0.37888102030E+02 -0.94864311313E+01  0.11298891693E+02  0.40659139250E+02  0.00000000000E+00 0.  1.
         11    1    3    3    0    0 -0.74905002141E+01  0.92429409419E+01 -0.87377466209E+00  0.11929083499E+02  0.51100000000E-03 0. -1.
        -11    1    3    3    0    0 -0.26493482638E+02  0.84609193754E+01 -0.97724830792E+01  0.29478690690E+02  0.51100000000E-03 0.  1.
        -12    1    3    3    0    0 -0.39041191775E+01 -0.82174291861E+01 -0.65263395123E+00  0.91210865611E+01  0.00000000000E+00 0.  1.
</event>
<event>
 7    1  0.6857839E-013  0.5052886E+02  0.7816164E-02  0.1300439E+00
        -11   -1    0    0    0    0  0.00000000000E+00  0.00000000000E+00  0.45593999997E+02  0.45594000000E+02  0.51100000000E-03 0. -1.
         11   -1    0    0    0    0 -0.00000000000E+00 -0.00000000000E+00 -0.45593999997E+02  0.45594000000E+02  0.51100000000E-03 0.  1.
    9900012    2    1    2    0    0  0.25710938383E+01 -0.52700909366E+01  0.40234081456E+02  0.50528859667E+02  0.29999999445E+02 0.  0.
        -12    1    1    2    0    0 -0.25710938383E+01  0.52700909366E+01 -0.40234081456E+02  0.40659140333E+02  0.00000000000E+00 0.  1.
         11    1    3    3    0    0  0.20762772433E+01  0.65162123470E+01  0.43955156315E+01  0.81297299138E+01  0.51100000000E-03 0.  1.
        -11    1    3    3    0    0 -0.49401971316E+01 -0.37228213344E+01  0.30861399544E+02  0.31475243104E+02  0.51100000000E-03 0. -1.
        -12    1    3    3    0    0  0.54350137266E+01 -0.80634819493E+01  0.49771662803E+01  0.10923886650E+02  0.00000000000E+00 0.  1.
</event>
<event>
 7    1  0.6857839E-013  0.5052887E+02  0.7816164E-02  0.1300439E+00
        -11   -1    0    0    0    0  0.00000000000E+00  0.00000000000E+00  0.45593999997E+02  0.45594000000E+02  0.51100000000E-03 0. -1.
         11   -1    0    0    0    0 -0.00000000000E+00 -0.00000000000E+00 -0.45593999997E+02  0.45594000000E+02  0.51100000000E-03 0.  1.
    9900012    2    1    2    0    0  0.41286277591E+01  0.26158085104E+02  0.30852451106E+02  0.50528871594E+02  0.30000035699E+02 0.  0.
        -12    1    1    2    0    0 -0.41286277591E+01 -0.26158085104E+02 -0.30852451106E+02  0.40659128406E+02  0.00000000000E+00 0.  1.
         11    1    3    3    0    0  0.19254826641E+01  0.18741473281E+02  0.13757184573E+02  0.23328318239E+02  0.51100000000E-03 0. -1.
        -11    1    3    3    0    0  0.26256741926E+00  0.33590026235E+01 -0.42290265976E+01  0.54070792947E+01  0.51100000000E-03 0.  1.
         12    1    3    3    0    0  0.19405776757E+01  0.40576091995E+01  0.21324293130E+02  0.21793474061E+02  0.00000000000E+00 0. -1.
</event>
<event>
 7    1  0.6857839E-013  0.5052886E+02  0.7816164E-02  0.1300439E+00
        -11   -1    0    0    0    0  0.00000000000E+00  0.00000000000E+00  0.45593999997E+02  0.45594000000E+02  0.51100000000E-03 0. -1.
         11   -1    0    0    0    0 -0.00000000000E+00 -0.00000000000E+00 -0.45593999997E+02  0.45594000000E+02  0.51100000000E-03 0.  1.
    9900012    2    1    2    0    0 -0.28846901779E+02  0.28290372840E+02  0.45471907162E+01  0.50528857349E+02  0.29999992399E+02 0.  0.
        -12    1    1    2    0    0  0.28846901779E+02 -0.28290372840E+02 -0.45471907162E+01  0.40659142651E+02  0.00000000000E+00 0.  1.
         11    1    3    3    0    0  0.15371244204E+01 -0.18945399429E+01  0.17315861831E+01  0.29917259316E+01  0.51100000000E-03 0. -1.
        -11    1    3    3    0    0 -0.46903884752E+01  0.16750999660E+02 -0.37834155124E+01  0.17801965253E+02  0.51100000000E-03 0.  1.
         12    1    3    3    0    0 -0.25693637724E+02  0.13433913123E+02  0.65990200455E+01  0.29735166165E+02  0.00000000000E+00 0. -1.
</event>
<event>
 7    1  0.6857839E-013  0.5052886E+02  0.7816164E-02  0.1300439E+00
        -11   -1    0    0    0    0  0.00000000000E+00  0.00000000000E+00  0.45593999997E+02  0.45594000000E+02  0.51100000000E-03 0.  1.
         11   -1    0    0    0    0 -0.00000000000E+00 -0.00000000000E+00 -0.45593999997E+02  0.45594000000E+02  0.51100000000E-03 0. -1.
    9900012    2    1    2    0    0 -0.85988611438E+01 -0.29718462771E+02 -0.26382534517E+02  0.50528861175E+02  0.30000004027E+02 0.  0.
        -12    1    1    2    0    0  0.85988611438E+01  0.29718462771E+02  0.26382534517E+02  0.40659138825E+02  0.00000000000E+00 0.  1.
         11    1    3    3    0    0 -0.63399305970E+01 -0.22025420529E+02 -0.26361500601E+02  0.34931970795E+02  0.51100000000E-03 0. -1.
        -11    1    3    3    0    0  0.77190653191E+00  0.20009836842E+01 -0.41195159903E+01  0.46443716102E+01  0.51100000000E-03 0.  1.
         12    1    3    3    0    0 -0.30308370787E+01 -0.96940259270E+01  0.40984820748E+01  0.10952518769E+02  0.00000000000E+00 0. -1.
</event>
<event>
 7    1  0.6857839E-013  0.5052886E+02  0.7816164E-02  0.1300439E+00
        -11   -1    0    0    0    0  0.00000000000E+00  0.00000000000E+00  0.45593999997E+02  0.45594000000E+02  0.51100000000E-03 0. -1.
         11   -1    0    0    0    0 -0.00000000000E+00 -0.00000000000E+00 -0.45593999997E+02  0.45594000000E+02  0.51100000000E-03 0.  1.
    9900012    2    1    2    0    0 -0.47581584588E+01  0.10347030582E+02  0.39031580759E+02  0.50528863139E+02  0.30000009996E+02 0.  0.
        -12    1    1    2    0    0  0.47581584588E+01 -0.10347030582E+02 -0.39031580759E+02  0.40659136861E+02  0.00000000000E+00 0.  1.
         11    1    3    3    0    0 -0.12206816766E+02  0.12336004157E+01  0.13571147206E+02  0.18294922309E+02  0.51100000000E-03 0. -1.
        -11    1    3    3    0    0 -0.46333671897E+01  0.20052608627E+01  0.33661619713E+01  0.60679658305E+01  0.51100000000E-03 0.  1.
         12    1    3    3    0    0  0.12082025497E+02  0.71081693040E+01  0.22094271581E+02  0.26165974999E+02  0.00000000000E+00 0. -1.
</event>
<event>
 7    1  0.6857839E-013  0.5052886E+02  0.7816164E-02  0.1300439E+00
        -11   -1    0    0    0    0  0.00000000000E+00  0.00000000000E+00  0.45593999997E+02  0.45594000000E+02  0.51100000000E-03 0.  1.
         11   -1    0    0    0    0 -0.00000000000E+00 -0.00000000000E+00 -0.45593999997E+02  0.45594000000E+02  0.51100000000E-03 0. -1.
    9900012    2    1    2    0    0  0.62079995082E+01  0.20979375914E+02 -0.34270863249E+02  0.50528861550E+02  0.30000005168E+02 0.  0.
        -12    1    1    2    0    0 -0.62079995082E+01 -0.20979375914E+02  0.34270863249E+02  0.40659138450E+02  0.00000000000E+00 0.  1.
         11    1    3    3    0    0  0.11774806928E+02  0.30810413159E+01 -0.13821180659E+02  0.18416403798E+02  0.51100000000E-03 0.  1.
        -11    1    3    3    0    0  0.86197786761E+00  0.16115803699E+01  0.25927493445E+01  0.31721517235E+01  0.51100000000E-03 0. -1.
         12    1    3    3    0    0 -0.64287852877E+01  0.16286754228E+02 -0.23042431935E+02  0.28940306029E+02  0.00000000000E+00 0. -1.
</event>
<event>
 7    1  0.6857839E-013  0.5052886E+02  0.7816164E-02  0.1300439E+00
        -11   -1    0    0    0    0  0.00000000000E+00  0.00000000000E+00  0.45593999997E+02  0.45594000000E+02  0.51100000000E-03 0.  1.
         11   -1    0    0    0    0 -0.00000000000E+00 -0.00000000000E+00 -0.45593999997E+02  0.45594000000E+02  0.51100000000E-03 0. -1.
    9900012    2    1    2    0    0 -0.35750346338E+02 -0.60120799608E+00 -0.19357605863E+02  0.50528860571E+02  0.30000002192E+02 0.  0.
        -12    1    1    2    0    0  0.35750346338E+02  0.60120799608E+00  0.19357605863E+02  0.40659139429E+02  0.00000000000E+00 0.  1.
         11    1    3    3    0    0 -0.12729901337E+02 -0.11751743074E+02 -0.86796520423E+01  0.19377569847E+02  0.51100000000E-03 0.  1.
        -11    1    3    3    0    0 -0.12080717366E+02  0.91707602862E-01 -0.98258845515E+01  0.15572416313E+02  0.51100000000E-03 0. -1.
        -12    1    3    3    0    0 -0.10939727635E+02  0.11058827475E+02 -0.85206926926E+00  0.15578874411E+02  0.00000000000E+00 0.  1.
</event>
<event>
 7    1  0.6857839E-013  0.5052885E+02  0.7816164E-02  0.1300439E+00
        -11   -1    0    0    0    0  0.00000000000E+00  0.00000000000E+00  0.45593999997E+02  0.45594000000E+02  0.51100000000E-03 0.  1.
         11   -1    0    0    0    0 -0.00000000000E+00 -0.00000000000E+00 -0.45593999997E+02  0.45594000000E+02  0.51100000000E-03 0. -1.
    9900012    2    1    2    0    0 -0.31988556606E+02 -0.22242948069E+02 -0.11625416803E+02  0.50528845947E+02  0.29999957739E+02 0.  0.
        -12    1    1    2    0    0  0.31988556606E+02  0.22242948069E+02  0.11625416803E+02  0.40659154053E+02  0.00000000000E+00 0.  1.
         11    1    3    3    0    0 -0.20078843227E+02 -0.11930678672E+02  0.32896985558E+01  0.23586503678E+02  0.51100000000E-03 0. -1.
        -11    1    3    3    0    0  0.68883711265E+00 -0.79023327968E+01 -0.96394212195E+00  0.79906535949E+01  0.51100000000E-03 0.  1.
        -12    1    3    3    0    0 -0.12598550492E+02 -0.24099366000E+01 -0.13951173237E+02  0.18951688674E+02  0.00000000000E+00 0.  1.
</event>
<event>
 7    1  0.6857839E-013  0.5052887E+02  0.7816164E-02  0.1300439E+00
        -11   -1    0    0    0    0  0.00000000000E+00  0.00000000000E+00  0.45593999997E+02  0.45594000000E+02  0.51100000000E-03 0. -1.
         11   -1    0    0    0    0 -0.00000000000E+00 -0.00000000000E+00 -0.45593999997E+02  0.45594000000E+02  0.51100000000E-03 0.  1.
    9900012    2    1    2    0    0  0.97108287462E+01  0.15968231807E+02  0.36109286923E+02  0.50528865429E+02  0.30000016957E+02 0.  0.
        -12    1    1    2    0    0 -0.97108287462E+01 -0.15968231807E+02 -0.36109286923E+02  0.40659134571E+02  0.00000000000E+00 0.  1.
         11    1    3    3    0    0 -0.39302801684E+01 -0.22413404224E+01 -0.11048489384E+00  0.45258055929E+01  0.51100000000E-03 0.  1.
        -11    1    3    3    0    0  0.69878256828E+01 -0.17177323584E+01  0.72241714782E+01  0.10196517348E+02  0.51100000000E-03 0. -1.
         12    1    3    3    0    0  0.66532832318E+01  0.19927304588E+02  0.28995600339E+02  0.35806542488E+02  0.00000000000E+00 0. -1.
</event>
<event>
 7    1  0.6857839E-013  0.5052885E+02  0.7816164E-02  0.1300439E+00
        -11   -1    0    0    0    0  0.00000000000E+00  0.00000000000E+00  0.45593999997E+02  0.45594000000E+02  0.51100000000E-03 0.  1.
         11   -1    0    0    0    0 -0.00000000000E+00 -0.00000000000E+00 -0.45593999997E+02  0.45594000000E+02  0.51100000000E-03 0. -1.
    9900012    2    1    2    0    0 -0.18673293265E+02  0.29087771075E+02 -0.21409720030E+02  0.50528850732E+02  0.29999972284E+02 0.  0.
        -12    1    1    2    0    0  0.18673293265E+02 -0.29087771075E+02  0.21409720030E+02  0.40659149268E+02  0.00000000000E+00 0.  1.
         11    1    3    3    0    0 -0.21839052546E+01  0.76885536394E+01  0.10374378261E+01  0.80597504137E+01  0.51100000000E-03 0.  1.
        -11    1    3    3    0    0 -0.13650687649E+02  0.14605709976E+02 -0.27162098218E+02  0.33726067322E+02  0.51100000000E-03 0. -1.
         12    1    3    3    0    0 -0.28387003619E+01  0.67935074596E+01  0.47149403619E+01  0.87430329958E+01  0.00000000000E+00 0. -1.
</event>
<event>
 7    1  0.6857839E-013  0.5052884E+02  0.7816164E-02  0.1300439E+00
        -11   -1    0    0    0    0  0.00000000000E+00  0.00000000000E+00  0.45593999997E+02  0.45594000000E+02  0.51100000000E-03 0.  1.
         11   -1    0    0    0    0 -0.00000000000E+00 -0.00000000000E+00 -0.45593999997E+02  0.45594000000E+02  0.51100000000E-03 0. -1.
    9900012    2    1    2    0    0  0.39097244786E+02  0.10923752942E+02 -0.22900500338E+01  0.50528840425E+02  0.29999940955E+02 0.  0.
        -12    1    1    2    0    0 -0.39097244786E+02 -0.10923752942E+02  0.22900500338E+01  0.40659159575E+02  0.00000000000E+00 0.  1.
         11    1    3    3    0    0  0.16868450689E+02  0.15391612561E+02 -0.82827633614E+01  0.24290955828E+02  0.51100000000E-03 0. -1.
        -11    1    3    3    0    0  0.19484709076E+02 -0.22419387227E+00  0.76287020993E+01  0.20926090094E+02  0.51100000000E-03 0.  1.
         12    1    3    3    0    0  0.27440850217E+01 -0.42436657465E+01 -0.16359887717E+01  0.53117945023E+01  0.00000000000E+00 0. -1.
</event>
<event>
 7    1  0.6857839E-013  0.5052886E+02  0.7816164E-02  0.1300439E+00
        -11   -1    0    0    0    0  0.00000000000E+00  0.00000000000E+00  0.45593999997E+02  0.45594000000E+02  0.51100000000E-03 0.  1.
         11   -1    0    0    0    0 -0.00000000000E+00 -0.00000000000E+00 -0.45593999997E+02  0.45594000000E+02  0.51100000000E-03 0. -1.
    9900012    2    1    2    0    0  0.26526691187E+02 -0.29468289936E+02 -0.90066631040E+01  0.50528862807E+02  0.30000008987E+02 0.  0.
        -12    1    1    2    0    0 -0.26526691187E+02  0.29468289936E+02  0.90066631040E+01  0.40659137193E+02  0.00000000000E+00 0.  1.
         11    1    3    3    0    0  0.96981551284E+01  0.17876745500E+01  0.78214218906E+00  0.98925092800E+01  0.51100000000E-03 0. -1.
        -11    1    3    3    0    0  0.16163659891E+02 -0.11992244501E+02 -0.41084946344E+01  0.20541605528E+02  0.51100000000E-03 0.  1.
        -12    1    3    3    0    0  0.66487616770E+00 -0.19263719984E+02 -0.56803106586E+01  0.20094747999E+02  0.00000000000E+00 0.  1.
</event>
<event>
 7    1  0.6857839E-013  0.5052886E+02  0.7816164E-02  0.1300439E+00
        -11   -1    0    0    0    0  0.00000000000E+00  0.00000000000E+00  0.45593999997E+02  0.45594000000E+02  0.51100000000E-03 0.  1.
         11   -1    0    0    0    0 -0.00000000000E+00 -0.00000000000E+00 -0.45593999997E+02  0.45594000000E+02  0.51100000000E-03 0. -1.
    9900012    2    1    2    0    0  0.20490909366E+02 -0.34913950122E+02  0.37821334192E+01  0.50528858187E+02  0.29999994944E+02 0.  0.
        -12    1    1    2    0    0 -0.20490909366E+02  0.34913950122E+02 -0.37821334192E+01  0.40659141813E+02  0.00000000000E+00 0.  1.
         11    1    3    3    0    0  0.74188467103E+01 -0.11033135011E+02 -0.68423260359E+01  0.14952818481E+02  0.51100000000E-03 0. -1.
        -11    1    3    3    0    0  0.17735625837E+02 -0.14889122308E+02  0.40715313733E+01  0.23512034257E+02  0.51100000000E-03 0.  1.
        -12    1    3    3    0    0 -0.46635631810E+01 -0.89916928040E+01  0.65529280818E+01  0.12064005449E+02  0.00000000000E+00 0.  1.
</event>
<event>
 7    1  0.6857839E-013  0.5052886E+02  0.7816164E-02  0.1300439E+00
        -11   -1    0    0    0    0  0.00000000000E+00  0.00000000000E+00  0.45593999997E+02  0.45594000000E+02  0.51100000000E-03 0.  1.
         11   -1    0    0    0    0 -0.00000000000E+00 -0.00000000000E+00 -0.45593999997E+02  0.45594000000E+02  0.51100000000E-03 0. -1.
    9900012    2    1    2    0    0  0.34650874836E+02  0.12963991591E+02  0.16864684516E+02  0.50528858486E+02  0.29999995853E+02 0.  0.
        -12    1    1    2    0    0 -0.34650874836E+02 -0.12963991591E+02 -0.16864684516E+02  0.40659141514E+02  0.00000000000E+00 0.  1.
         11    1    3    3    0    0  0.20721087142E+01 -0.15243588413E+01 -0.24991216519E+01  0.35864904423E+01  0.51100000000E-03 0. -1.
        -11    1    3    3    0    0 -0.98864114140E+00  0.33256298430E+01  0.96549723138E+01  0.10259420832E+02  0.51100000000E-03 0.  1.
        -12    1    3    3    0    0  0.33567407263E+02  0.11162720589E+02  0.97088338540E+01  0.36682947212E+02  0.00000000000E+00 0.  1.
</event>
<event>
 7    1  0.6857839E-013  0.5052886E+02  0.7816164E-02  0.1300439E+00
        -11   -1    0    0    0    0  0.00000000000E+00  0.00000000000E+00  0.45593999997E+02  0.45594000000E+02  0.51100000000E-03 0. -1.
         11   -1    0    0    0    0 -0.00000000000E+00 -0.00000000000E+00 -0.45593999997E+02  0.45594000000E+02  0.51100000000E-03 0.  1.
    9900012    2    1    2    0    0  0.30236516566E+02 -0.25556109786E+02 -0.92630327957E+01  0.50528862553E+02  0.30000008215E+02 0.  0.
        -12    1    1    2    0    0 -0.30236516566E+02  0.25556109786E+02  0.92630327957E+01  0.40659137447E+02  0.00000000000E+00 0.  1.
         11    1    3    3    0    0  0.12016633844E+02 -0.18067788475E+02  0.55851056160E+01  0.22406201693E+02  0.51100000000E-03 0. -1.
        -11    1    3    3    0    0  0.15114453744E+02 -0.57602450272E+01 -0.39367062916E+01  0.16647065550E+02  0.51100000000E-03 0.  1.
        -12    1    3    3    0    0  0.31054289782E+01 -0.17280762830E+01 -0.10911432120E+02  0.11475595309E+02  0.00000000000E+00 0.  1.
</event>
<event>
 7    1  0.6857839E-013  0.5052887E+02  0.7816164E-02  0.1300439E+00
        -11   -1    0    0    0    0  0.00000000000E+00  0.00000000000E+00  0.45593999997E+02  0.45594000000E+02  0.51100000000E-03 0. -1.
         11   -1    0    0    0    0 -0.00000000000E+00 -0.00000000000E+00 -0.45593999997E+02  0.45594000000E+02  0.51100000000E-03 0.  1.
    9900012    2    1    2    0    0 -0.33027409598E+02  0.20900911786E+01  0.23621744527E+02  0.50528867196E+02  0.30000022329E+02 0.  0.
        -12    1    1    2    0    0  0.33027409598E+02 -0.20900911786E+01 -0.23621744527E+02  0.40659132804E+02  0.00000000000E+00 0.  1.
         11    1    3    3    0    0 -0.25936924396E+02  0.24015607998E+01  0.16697399362E+02  0.30940179171E+02  0.51100000000E-03 0. -1.
        -11    1    3    3    0    0 -0.54609866415E+01  0.30529842975E+01  0.11852903602E+02  0.13402776290E+02  0.51100000000E-03 0.  1.
        -12    1    3    3    0    0 -0.16294985600E+01 -0.33644539187E+01 -0.49285584371E+01  0.61859117352E+01  0.00000000000E+00 0.  1.
</event>
<event>
 7    1  0.6857839E-013  0.5052892E+02  0.7816164E-02  0.1300439E+00
        -11   -1    0    0    0    0  0.00000000000E+00  0.00000000000E+00  0.45593999997E+02  0.45594000000E+02  0.51100000000E-03 0.  1.
         11   -1    0    0    0    0 -0.00000000000E+00 -0.00000000000E+00 -0.45593999997E+02  0.45594000000E+02  0.51100000000E-03 0. -1.
    9900012    2    1    2    0    0 -0.37310608186E+02  0.61043157131E+01 -0.14960490217E+02  0.50528924493E+02  0.30000196490E+02 0.  0.
        -12    1    1    2    0    0  0.37310608186E+02 -0.61043157131E+01  0.14960490217E+02  0.40659075507E+02  0.00000000000E+00 0.  1.
         11    1    3    3    0    0 -0.62055210192E+01  0.51365397347E+00 -0.11716962554E+02  0.13268743093E+02  0.51100000000E-03 0. -1.
        -11    1    3    3    0    0 -0.99848593979E+01  0.11124483093E+02  0.11385713343E+01  0.14991593852E+02  0.51100000000E-03 0.  1.
         12    1    3    3    0    0 -0.21120227769E+02 -0.55338213535E+01 -0.43820989974E+01  0.22268587548E+02  0.00000000000E+00 0. -1.
</event>
<event>
 7    1  0.6857839E-013  0.5052887E+02  0.7816164E-02  0.1300439E+00
        -11   -1    0    0    0    0  0.00000000000E+00  0.00000000000E+00  0.45593999997E+02  0.45594000000E+02  0.51100000000E-03 0.  1.
         11   -1    0    0    0    0 -0.00000000000E+00 -0.00000000000E+00 -0.45593999997E+02  0.45594000000E+02  0.51100000000E-03 0. -1.
    9900012    2    1    2    0    0 -0.39617166756E+02  0.65954246417E+01 -0.63360573906E+01  0.50528866325E+02  0.30000019681E+02 0.  0.
        -12    1    1    2    0    0  0.39617166756E+02 -0.65954246417E+01  0.63360573906E+01  0.40659133675E+02  0.00000000000E+00 0.  1.
         11    1    3    3    0    0 -0.10509465821E+02  0.10211922107E+02 -0.58546113027E+01  0.15780009465E+02  0.51100000000E-03 0. -1.
        -11    1    3    3    0    0 -0.16764478018E+02 -0.30071076583E+01 -0.94511374973E+01  0.19478563087E+02  0.51100000000E-03 0.  1.
         12    1    3    3    0    0 -0.12343222917E+02 -0.60938980705E+00  0.89696914094E+01  0.15270293773E+02  0.00000000000E+00 0. -1.
</event>
<event>
 7    1  0.6857839E-013  0.5052886E+02  0.7816164E-02  0.1300439E+00
        -11   -1    0    0    0    0  0.00000000000E+00  0.00000000000E+00  0.45593999997E+02  0.45594000000E+02  0.51100000000E-03 0.  1.
         11   -1    0    0    0    0 -0.00000000000E+00 -0.00000000000E+00 -0.45593999997E+02  0.45594000000E+02  0.51100000000E-03 0. -1.
    9900012    2    1    2    0    0 -0.15950269094E+02 -0.30885901240E+02 -0.21090656688E+02  0.50528858603E+02  0.29999996210E+02 0.  0.
        -12    1    1    2    0    0  0.15950269094E+02  0.30885901240E+02  0.21090656688E+02  0.40659141397E+02  0.00000000000E+00 0.  1.
         11    1    3    3    0    0 -0.33302961456E+01  0.96264926807E+00  0.85102670599E+00  0.35695675853E+01  0.51100000000E-03 0. -1.
        -11    1    3    3    0    0  0.27526643002E+01 -0.36609641602E+01 -0.12772107532E+02  0.13568586898E+02  0.51100000000E-03 0.  1.
        -12    1    3    3    0    0 -0.15372637249E+02 -0.28187586348E+02 -0.91695758621E+01  0.33390704120E+02  0.00000000000E+00 0.  1.
</event>
<event>
 7    1  0.6857839E-013  0.5052885E+02  0.7816164E-02  0.1300439E+00
        -11   -1    0    0    0    0  0.00000000000E+00  0.00000000000E+00  0.45593999997E+02  0.45594000000E+02  0.51100000000E-03 0. -1.
         11   -1    0    0    0    0 -0.00000000000E+00 -0.00000000000E+00 -0.45593999997E+02  0.45594000000E+02  0.51100000000E-03 0.  1.
    9900012    2    1    2    0    0 -0.39137259808E+02  0.10668470231E+02 -0.27613563553E+01  0.50528850338E+02  0.29999971087E+02 0.  0.
        -12    1    1    2    0    0  0.39137259808E+02 -0.10668470231E+02  0.27613563553E+01  0.40659149662E+02  0.00000000000E+00 0.  1.
         11    1    3    3    0    0 -0.32749775995E+02  0.83205995188E+01 -0.73784245036E+01  0.34586433070E+02  0.51100000000E-03 0. -1.
        -11    1    3    3    0    0 -0.10053018384E+02  0.21712411250E+01  0.61299190361E+01  0.11973026948E+02  0.51100000000E-03 0.  1.
        -12    1    3    3    0    0  0.36655345711E+01  0.17662958713E+00 -0.15128508878E+01  0.39693903199E+01  0.00000000000E+00 0.  1.
</event>
<event>
 7    1  0.6857839E-013  0.5052887E+02  0.7816164E-02  0.1300439E+00
        -11   -1    0    0    0    0  0.00000000000E+00  0.00000000000E+00  0.45593999997E+02  0.45594000000E+02  0.51100000000E-03 0. -1.
         11   -1    0    0    0    0 -0.00000000000E+00 -0.00000000000E+00 -0.45593999997E+02  0.45594000000E+02  0.51100000000E-03 0.  1.
    9900012    2    1    2    0    0 -0.59420328110E+01  0.24564094606E+02  0.31850631272E+02  0.50528865600E+02  0.30000017478E+02 0.  0.
        -12    1    1    2    0    0  0.59420328110E+01 -0.24564094606E+02 -0.31850631272E+02  0.40659134400E+02  0.00000000000E+00 0.  1.
         11    1    3    3    0    0 -0.32327933230E+01  0.54388012078E+01  0.66983510353E+01  0.92140880233E+01  0.51100000000E-03 0. -1.
        -11    1    3    3    0    0 -0.13539549471E+02  0.12634380420E+02  0.21054637223E+02  0.28040055587E+02  0.51100000000E-03 0.  1.
        -12    1    3    3    0    0  0.10830309983E+02  0.64909129787E+01  0.40976430135E+01  0.13274721990E+02  0.00000000000E+00 0.  1.
</event>
<event>
 7    1  0.6857839E-013  0.5052887E+02  0.7816164E-02  0.1300439E+00
        -11   -1    0    0    0    0  0.00000000000E+00  0.00000000000E+00  0.45593999997E+02  0.45594000000E+02  0.51100000000E-03 0.  1.
         11   -1    0    0    0    0 -0.00000000000E+00 -0.00000000000E+00 -0.45593999997E+02  0.45594000000E+02  0.51100000000E-03 0. -1.
    9900012    2    1    2    0    0  0.14034792701E+02  0.20198596592E+02 -0.32376013623E+02  0.50528868571E+02  0.30000026508E+02 0.  0.
        -12    1    1    2    0    0 -0.14034792701E+02 -0.20198596592E+02  0.32376013623E+02  0.40659131429E+02  0.00000000000E+00 0.  1.
         11    1    3    3    0    0  0.24324076061E+00  0.20406280255E+01 -0.77262143153E+01  0.79948556406E+01  0.51100000000E-03 0. -1.
        -11    1    3    3    0    0  0.25992612569E+01  0.22215333755E+02 -0.12965302519E+02  0.25852974347E+02  0.51100000000E-03 0.  1.
         12    1    3    3    0    0  0.11192290683E+02 -0.40573651882E+01 -0.11684496788E+02  0.16681038583E+02  0.00000000000E+00 0. -1.
</event>
<event>
 7    1  0.6857839E-013  0.5052886E+02  0.7816164E-02  0.1300439E+00
        -11   -1    0    0    0    0  0.00000000000E+00  0.00000000000E+00  0.45593999997E+02  0.45594000000E+02  0.51100000000E-03 0. -1.
         11   -1    0    0    0    0 -0.00000000000E+00 -0.00000000000E+00 -0.45593999997E+02  0.45594000000E+02  0.51100000000E-03 0.  1.
    9900012    2    1    2    0    0 -0.77128389766E+01  0.11246869754E+02  0.38303859554E+02  0.50528860547E+02  0.30000002118E+02 0.  0.
        -12    1    1    2    0    0  0.77128389766E+01 -0.11246869754E+02 -0.38303859554E+02  0.40659139453E+02  0.00000000000E+00 0.  1.
         11    1    3    3    0    0  0.82797551869E+00 -0.41565318253E+01  0.19963220978E+02  0.20408147696E+02  0.51100000000E-03 0. -1.
        -11    1    3    3    0    0  0.20597853320E+01 -0.65233471375E+00 -0.13846990345E+01  0.25662517160E+01  0.51100000000E-03 0.  1.
         12    1    3    3    0    0 -0.10600599827E+02  0.16055736293E+02  0.19725337610E+02  0.27554461135E+02  0.00000000000E+00 0. -1.
</event>
<event>
 7    1  0.6857839E-013  0.5052887E+02  0.7816164E-02  0.1300439E+00
        -11   -1    0    0    0    0  0.00000000000E+00  0.00000000000E+00  0.45593999997E+02  0.45594000000E+02  0.51100000000E-03 0.  1.
         11   -1    0    0    0    0 -0.00000000000E+00 -0.00000000000E+00 -0.45593999997E+02  0.45594000000E+02  0.51100000000E-03 0. -1.
    9900012    2    1    2    0    0 -0.19542222230E+02  0.14673028151E+02 -0.32495675099E+02  0.50528866894E+02  0.30000021411E+02 0.  0.
        -12    1    1    2    0    0  0.19542222230E+02 -0.14673028151E+02  0.32495675099E+02  0.40659133106E+02  0.00000000000E+00 0.  1.
         11    1    3    3    0    0 -0.10323082617E+02  0.10874444640E+02 -0.21362819657E+02  0.26099610053E+02  0.51100000000E-03 0. -1.
        -11    1    3    3    0    0 -0.86350476796E+01 -0.60001722570E+01 -0.14033833000E+01  0.10608279808E+02  0.51100000000E-03 0.  1.
         12    1    3    3    0    0 -0.58409193355E+00  0.97987557678E+01 -0.97294721420E+01  0.13820977033E+02  0.00000000000E+00 0. -1.
</event>
<event>
 7    1  0.6857839E-013  0.5052888E+02  0.7816164E-02  0.1300439E+00
        -11   -1    0    0    0    0  0.00000000000E+00  0.00000000000E+00  0.45593999997E+02  0.45594000000E+02  0.51100000000E-03 0. -1.
         11   -1    0    0    0    0 -0.00000000000E+00 -0.00000000000E+00 -0.45593999997E+02  0.45594000000E+02  0.51100000000E-03 0.  1.
    9900012    2    1    2    0    0 -0.25191021529E+02 -0.15172172366E+02  0.28078139538E+02  0.50528876794E+02  0.30000051503E+02 0.  0.
        -12    1    1    2    0    0  0.25191021529E+02  0.15172172366E+02 -0.28078139538E+02  0.40659123206E+02  0.00000000000E+00 0.  1.
         11    1    3    3    0    0 -0.27870610033E+02 -0.15004148361E+02  0.22312231431E+02  0.38726361090E+02  0.51100000000E-03 0. -1.
        -11    1    3    3    0    0  0.35396305412E+01 -0.42562542384E+01  0.51846805680E+01  0.75845630964E+01  0.51100000000E-03 0.  1.
        -12    1    3    3    0    0 -0.86004203745E+00  0.40882302330E+01  0.58122753913E+00  0.42179526071E+01  0.00000000000E+00 0.  1.
</event>
<event>
 7    1  0.6857839E-013  0.5052886E+02  0.7816164E-02  0.1300439E+00
        -11   -1    0    0    0    0  0.00000000000E+00  0.00000000000E+00  0.45593999997E+02  0.45594000000E+02  0.51100000000E-03 0. -1.
         11   -1    0    0    0    0 -0.00000000000E+00 -0.00000000000E+00 -0.45593999997E+02  0.45594000000E+02  0.51100000000E-03 0.  1.
    9900012    2    1    2    0    0 -0.39200278405E+02 -0.84943223803E+01 -0.66596327643E+01  0.50528855293E+02  0.29999986148E+02 0.  0.
        -12    1    1    2    0    0  0.39200278405E+02  0.84943223803E+01  0.66596327643E+01  0.40659144707E+02  0.00000000000E+00 0.  1.
         11    1    3    3    0    0 -0.15650857558E+02 -0.10899516855E+02  0.20618051230E+00  0.19073314359E+02  0.51100000000E-03 0. -1.
        -11    1    3    3    0    0 -0.11355994195E+02 -0.23349475619E+00  0.65692856310E+01  0.13121304734E+02  0.51100000000E-03 0.  1.
         12    1    3    3    0    0 -0.12193426653E+02  0.26386892306E+01 -0.13435098908E+02  0.18334236200E+02  0.00000000000E+00 0. -1.
</event>
<event>
 7    1  0.6857839E-013  0.5052886E+02  0.7816164E-02  0.1300439E+00
        -11   -1    0    0    0    0  0.00000000000E+00  0.00000000000E+00  0.45593999997E+02  0.45594000000E+02  0.51100000000E-03 0.  1.
         11   -1    0    0    0    0 -0.00000000000E+00 -0.00000000000E+00 -0.45593999997E+02  0.45594000000E+02  0.51100000000E-03 0. -1.
    9900012    2    1    2    0    0  0.30044986714E+02  0.23521865719E+02 -0.14042299706E+02  0.50528861118E+02  0.30000003855E+02 0.  0.
        -12    1    1    2    0    0 -0.30044986714E+02 -0.23521865719E+02  0.14042299706E+02  0.40659138882E+02  0.00000000000E+00 0.  1.
         11    1    3    3    0    0  0.62080067058E+01  0.31784251167E+01 -0.52323568721E+01  0.87189042993E+01  0.51100000000E-03 0. -1.
        -11    1    3    3    0    0  0.18128390355E+02  0.23809033148E+02 -0.14298644474E+02  0.33165642317E+02  0.51100000000E-03 0.  1.
        -12    1    3    3    0    0  0.57085896534E+01 -0.34655925450E+01  0.54887016394E+01  0.86443145018E+01  0.00000000000E+00 0.  1.
</event>
<event>
 7    1  0.6857839E-013  0.5052886E+02  0.7816164E-02  0.1300439E+00
        -11   -1    0    0    0    0  0.00000000000E+00  0.00000000000E+00  0.45593999997E+02  0.45594000000E+02  0.51100000000E-03 0.  1.
         11   -1    0    0    0    0 -0.00000000000E+00 -0.00000000000E+00 -0.45593999997E+02  0.45594000000E+02  0.51100000000E-03 0. -1.
    9900012    2    1    2    0    0  0.70141597791E+01 -0.29501132036E+02 -0.27085988276E+02  0.50528856013E+02  0.29999988338E+02 0.  0.
        -12    1    1    2    0    0 -0.70141597791E+01  0.29501132036E+02  0.27085988276E+02  0.40659143987E+02  0.00000000000E+00 0.  1.
         11    1    3    3    0    0  0.10473024036E+02 -0.28711063817E+02 -0.20237875351E+02  0.36654890764E+02  0.51100000000E-03 0. -1.
        -11    1    3    3    0    0 -0.45876004792E+01 -0.17480708951E+01  0.17024595155E+01  0.51961715401E+01  0.51100000000E-03 0.  1.
        -12    1    3    3    0    0  0.11287362224E+01  0.95800267582E+00 -0.85505724414E+01  0.86777937094E+01  0.00000000000E+00 0.  1.
</event>
<event>
 7    1  0.6857839E-013  0.5052886E+02  0.7816164E-02  0.1300439E+00
        -11   -1    0    0    0    0  0.00000000000E+00  0.00000000000E+00  0.45593999997E+02  0.45594000000E+02  0.51100000000E-03 0. -1.
         11   -1    0    0    0    0 -0.00000000000E+00 -0.00000000000E+00 -0.45593999997E+02  0.45594000000E+02  0.51100000000E-03 0.  1.
    9900012    2    1    2    0    0  0.17714264832E+02  0.31798036643E+02  0.18117820566E+02  0.50528859146E+02  0.29999997861E+02 0.  0.
        -12    1    1    2    0    0 -0.17714264832E+02 -0.31798036643E+02 -0.18117820566E+02  0.40659140854E+02  0.00000000000E+00 0.  1.
         11    1    3    3    0    0  0.36670726126E+01  0.23666401701E+02  0.13182821505E+02  0.27337387844E+02  0.51100000000E-03 0. -1.
        -11    1    3    3    0    0 -0.18945854529E+01  0.63408762529E+01  0.13777273944E+01  0.67597558186E+01  0.51100000000E-03 0.  1.
        -12    1    3    3    0    0  0.15941777672E+02  0.17907586891E+01  0.35572716670E+01  0.16431715484E+02  0.00000000000E+00 0.  1.
</event>
<event>
 7    1  0.6857839E-013  0.5052886E+02  0.7816164E-02  0.1300439E+00
        -11   -1    0    0    0    0  0.00000000000E+00  0.00000000000E+00  0.45593999997E+02  0.45594000000E+02  0.51100000000E-03 0.  1.
         11   -1    0    0    0    0 -0.00000000000E+00 -0.00000000000E+00 -0.45593999997E+02  0.45594000000E+02  0.51100000000E-03 0. -1.
    9900012    2    1    2    0    0 -0.14148030267E+02 -0.31249060822E+02 -0.21828773996E+02  0.50528856663E+02  0.29999990313E+02 0.  0.
        -12    1    1    2    0    0  0.14148030267E+02  0.31249060822E+02  0.21828773996E+02  0.40659143337E+02  0.00000000000E+00 0.  1.
         11    1    3    3    0    0  0.22930804093E+01 -0.72223712658E+01 -0.35299467997E+01  0.83595089051E+01  0.51100000000E-03 0.  1.
        -11    1    3    3    0    0 -0.12901917689E+01 -0.33568185005E+01 -0.16044283323E+02  0.16442379781E+02  0.51100000000E-03 0. -1.
        -12    1    3    3    0    0 -0.15150918908E+02 -0.20669871056E+02 -0.22545438738E+01  0.25726967977E+02  0.00000000000E+00 0.  1.
</event>
<event>
 7    1  0.6857839E-013  0.5052885E+02  0.7816164E-02  0.1300439E+00
        -11   -1    0    0    0    0  0.00000000000E+00  0.00000000000E+00  0.45593999997E+02  0.45594000000E+02  0.51100000000E-03 0. -1.
         11   -1    0    0    0    0 -0.00000000000E+00 -0.00000000000E+00 -0.45593999997E+02  0.45594000000E+02  0.51100000000E-03 0.  1.
    9900012    2    1    2    0    0  0.86900206595E+01 -0.35716964420E+02 -0.17376655836E+02  0.50528853741E+02  0.29999981431E+02 0.  0.
        -12    1    1    2    0    0 -0.86900206595E+01  0.35716964420E+02  0.17376655836E+02  0.40659146259E+02  0.00000000000E+00 0.  1.
         11    1    3    3    0    0  0.10026852440E+02 -0.11744897158E+02 -0.51077546346E+01  0.16265593650E+02  0.51100000000E-03 0. -1.
        -11    1    3    3    0    0  0.91753883291E+01 -0.91636591315E+01 -0.90663990712E+01  0.15822768154E+02  0.51100000000E-03 0.  1.
        -12    1    3    3    0    0 -0.10512220110E+02 -0.14808408131E+02 -0.32025021307E+01  0.18440491937E+02  0.00000000000E+00 0.  1.
</event>
<event>
 7    1  0.6857839E-013  0.5052886E+02  0.7816164E-02  0.1300439E+00
        -11   -1    0    0    0    0  0.00000000000E+00  0.00000000000E+00  0.45593999997E+02  0.45594000000E+02  0.51100000000E-03 0. -1.
         11   -1    0    0    0    0 -0.00000000000E+00 -0.00000000000E+00 -0.45593999997E+02  0.45594000000E+02  0.51100000000E-03 0.  1.
    9900012    2    1    2    0    0  0.19594538394E+02  0.21405696302E+02  0.28478345730E+02  0.50528856569E+02  0.29999990026E+02 0.  0.
        -12    1    1    2    0    0 -0.19594538394E+02 -0.21405696302E+02 -0.28478345730E+02  0.40659143431E+02  0.00000000000E+00 0.  1.
         11    1    3    3    0    0  0.12643090012E+00  0.91790323204E+01  0.46321166236E+01  0.10282369561E+02  0.51100000000E-03 0. -1.
        -11    1    3    3    0    0  0.82583622631E+01  0.79749230228E+01 -0.20939118259E+01  0.11669807688E+02  0.51100000000E-03 0.  1.
         12    1    3    3    0    0  0.11209745231E+02  0.42517409585E+01  0.25940140933E+02  0.28576679319E+02  0.00000000000E+00 0. -1.
</event>
<event>
 7    1  0.6857839E-013  0.5052886E+02  0.7816164E-02  0.1300439E+00
        -11   -1    0    0    0    0  0.00000000000E+00  0.00000000000E+00  0.45593999997E+02  0.45594000000E+02  0.51100000000E-03 0.  1.
         11   -1    0    0    0    0 -0.00000000000E+00 -0.00000000000E+00 -0.45593999997E+02  0.45594000000E+02  0.51100000000E-03 0. -1.
    9900012    2    1    2    0    0 -0.55386896768E+01 -0.65732964645E+00 -0.40274761936E+02  0.50528860626E+02  0.30000002359E+02 0.  0.
        -12    1    1    2    0    0  0.55386896768E+01  0.65732964645E+00  0.40274761936E+02  0.40659139374E+02  0.00000000000E+00 0.  1.
         11    1    3    3    0    0  0.68280395304E+01 -0.43945187310E+01 -0.11107372613E+02  0.13758911488E+02  0.51100000000E-03 0. -1.
        -11    1    3    3    0    0 -0.33061455289E+01  0.53825791410E+01 -0.14167261146E+00  0.63184513812E+01  0.51100000000E-03 0.  1.
         12    1    3    3    0    0 -0.90605836783E+01 -0.16453900565E+01 -0.29025716711E+02  0.30451497757E+02  0.00000000000E+00 0. -1.
</event>
<event>
 7    1  0.6857839E-013  0.5052886E+02  0.7816164E-02  0.1300439E+00
        -11   -1    0    0    0    0  0.00000000000E+00  0.00000000000E+00  0.45593999997E+02  0.45594000000E+02  0.51100000000E-03 0.  1.
         11   -1    0    0    0    0 -0.00000000000E+00 -0.00000000000E+00 -0.45593999997E+02  0.45594000000E+02  0.51100000000E-03 0. -1.
    9900012    2    1    2    0    0  0.35440274933E+02  0.86678951680E+01 -0.17944917182E+02  0.50528861462E+02  0.30000004900E+02 0.  0.
        -12    1    1    2    0    0 -0.35440274933E+02 -0.86678951680E+01  0.17944917182E+02  0.40659138538E+02  0.00000000000E+00 0.  1.
         11    1    3    3    0    0  0.23553800973E+02  0.49580720348E+01 -0.83689058649E+01  0.25483378979E+02  0.51100000000E-03 0.  1.
        -11    1    3    3    0    0  0.31962158053E+01  0.10669712925E+02 -0.13864065583E+01  0.11224112116E+02  0.51100000000E-03 0. -1.
         12    1    3    3    0    0  0.86902581548E+01 -0.69598897918E+01 -0.81896047592E+01  0.13821370367E+02  0.00000000000E+00 0. -1.
</event>
<event>
 7    1  0.6857839E-013  0.5052885E+02  0.7816164E-02  0.1300439E+00
        -11   -1    0    0    0    0  0.00000000000E+00  0.00000000000E+00  0.45593999997E+02  0.45594000000E+02  0.51100000000E-03 0.  1.
         11   -1    0    0    0    0 -0.00000000000E+00 -0.00000000000E+00 -0.45593999997E+02  0.45594000000E+02  0.51100000000E-03 0. -1.
    9900012    2    1    2    0    0 -0.29009177184E+01 -0.26926339599E+02 -0.30326935870E+02  0.50528854324E+02  0.29999983204E+02 0.  0.
        -12    1    1    2    0    0  0.29009177184E+01  0.26926339599E+02  0.30326935870E+02  0.40659145676E+02  0.00000000000E+00 0.  1.
         11    1    3    3    0    0  0.66098064424E+01 -0.73907516836E+01 -0.74050401074E+01  0.12375272559E+02  0.51100000000E-03 0. -1.
        -11    1    3    3    0    0 -0.34759585959E+00 -0.16577331431E+01  0.41266808411E+01  0.44607619395E+01  0.51100000000E-03 0.  1.
         12    1    3    3    0    0 -0.91631283012E+01 -0.17877854772E+02 -0.27048576604E+02  0.33692819826E+02  0.00000000000E+00 0. -1.
</event>
<event>
 7    1  0.6857839E-013  0.5052886E+02  0.7816164E-02  0.1300439E+00
        -11   -1    0    0    0    0  0.00000000000E+00  0.00000000000E+00  0.45593999997E+02  0.45594000000E+02  0.51100000000E-03 0.  1.
         11   -1    0    0    0    0 -0.00000000000E+00 -0.00000000000E+00 -0.45593999997E+02  0.45594000000E+02  0.51100000000E-03 0. -1.
    9900012    2    1    2    0    0 -0.27665802343E+02 -0.22799620133E+02 -0.19181918334E+02  0.50528864637E+02  0.30000014551E+02 0.  0.
        -12    1    1    2    0    0  0.27665802343E+02  0.22799620133E+02  0.19181918334E+02  0.40659135363E+02  0.00000000000E+00 0.  1.
         11    1    3    3    0    0  0.38694985057E+00 -0.20884721703E+01  0.15185067721E+01  0.26109977539E+01  0.51100000000E-03 0.  1.
        -11    1    3    3    0    0 -0.95035836074E+01 -0.35008431024E+01 -0.20214483791E+02  0.22609718243E+02  0.51100000000E-03 0. -1.
         12    1    3    3    0    0 -0.18549168586E+02 -0.17210304861E+02 -0.48594131446E+00  0.25308148640E+02  0.00000000000E+00 0. -1.
</event>
<event>
 7    1  0.6857839E-013  0.5052886E+02  0.7816164E-02  0.1300439E+00
        -11   -1    0    0    0    0  0.00000000000E+00  0.00000000000E+00  0.45593999997E+02  0.45594000000E+02  0.51100000000E-03 0.  1.
         11   -1    0    0    0    0 -0.00000000000E+00 -0.00000000000E+00 -0.45593999997E+02  0.45594000000E+02  0.51100000000E-03 0. -1.
    9900012    2    1    2    0    0 -0.18396989472E+02  0.15569407407E+02 -0.32746145264E+02  0.50528859597E+02  0.29999999231E+02 0.  0.
        -12    1    1    2    0    0  0.18396989472E+02 -0.15569407407E+02  0.32746145264E+02  0.40659140403E+02  0.00000000000E+00 0.  1.
         11    1    3    3    0    0  0.17081699379E+01  0.95803390295E+01 -0.25197694059E+02  0.27011562832E+02  0.51100000000E-03 0. -1.
        -11    1    3    3    0    0 -0.11811941587E+01  0.15071115874E+01  0.11276951338E+01  0.22222289606E+01  0.51100000000E-03 0.  1.
         12    1    3    3    0    0 -0.18923965251E+02  0.44819567898E+01 -0.86761463387E+01  0.21295067804E+02  0.00000000000E+00 0. -1.
</event>
<event>
 7    1  0.6857839E-013  0.5052886E+02  0.7816164E-02  0.1300439E+00
        -11   -1    0    0    0    0  0.00000000000E+00  0.00000000000E+00  0.45593999997E+02  0.45594000000E+02  0.51100000000E-03 0.  1.
         11   -1    0    0    0    0 -0.00000000000E+00 -0.00000000000E+00 -0.45593999997E+02  0.45594000000E+02  0.51100000000E-03 0. -1.
    9900012    2    1    2    0    0  0.39701581323E+02 -0.50940670796E+01 -0.71414620966E+01  0.50528861300E+02  0.30000004408E+02 0.  0.
        -12    1    1    2    0    0 -0.39701581323E+02  0.50940670796E+01  0.71414620966E+01  0.40659138700E+02  0.00000000000E+00 0.  1.
         11    1    3    3    0    0  0.14741657475E+02  0.78294824287E+01 -0.90945514347E+01  0.19008632941E+02  0.51100000000E-03 0.  1.
        -11    1    3    3    0    0  0.15549917793E+02 -0.30266896537E+01 -0.44246009938E+01  0.16448035987E+02  0.51100000000E-03 0. -1.
        -12    1    3    3    0    0  0.94100060548E+01 -0.98968598547E+01  0.63776903319E+01  0.15072192372E+02  0.00000000000E+00 0.  1.
</event>
<event>
 7    1  0.6857839E-013  0.5052885E+02  0.7816164E-02  0.1300439E+00
        -11   -1    0    0    0    0  0.00000000000E+00  0.00000000000E+00  0.45593999997E+02  0.45594000000E+02  0.51100000000E-03 0.  1.
         11   -1    0    0    0    0 -0.00000000000E+00 -0.00000000000E+00 -0.45593999997E+02  0.45594000000E+02  0.51100000000E-03 0. -1.
    9900012    2    1    2    0    0  0.21159874685E+01  0.13696095235E+02 -0.38224412136E+02  0.50528854524E+02  0.29999983812E+02 0.  0.
        -12    1    1    2    0    0 -0.21159874685E+01 -0.13696095235E+02  0.38224412136E+02  0.40659145476E+02  0.00000000000E+00 0.  1.
         11    1    3    3    0    0 -0.84225887612E+01  0.40310170617E+01 -0.24945051390E+02  0.26635402927E+02  0.51100000000E-03 0.  1.
        -11    1    3    3    0    0  0.79345096877E+01  0.13212447733E+02 -0.11023014326E+02  0.18948141444E+02  0.51100000000E-03 0. -1.
        -12    1    3    3    0    0  0.26040665420E+01 -0.35473695592E+01 -0.22563464201E+01  0.49453101533E+01  0.00000000000E+00 0.  1.
</event>
<event>
 7    1  0.6857839E-013  0.5052886E+02  0.7816164E-02  0.1300439E+00
        -11   -1    0    0    0    0  0.00000000000E+00  0.00000000000E+00  0.45593999997E+02  0.45594000000E+02  0.51100000000E-03 0.  1.
         11   -1    0    0    0    0 -0.00000000000E+00 -0.00000000000E+00 -0.45593999997E+02  0.45594000000E+02  0.51100000000E-03 0. -1.
    9900012    2    1    2    0    0  0.84999295502E+00  0.40426409043E+02 -0.42601232062E+01  0.50528859750E+02  0.29999999695E+02 0.  0.
        -12    1    1    2    0    0 -0.84999295502E+00 -0.40426409043E+02  0.42601232062E+01  0.40659140250E+02  0.00000000000E+00 0.  1.
         11    1    3    3    0    0 -0.34953221030E+01 -0.26691717272E+01 -0.61889831368E+00  0.44412599222E+01  0.51100000000E-03 0. -1.
        -11    1    3    3    0    0 -0.21177782414E+01  0.22475853782E+02  0.44568312735E+01  0.23011134982E+02  0.51100000000E-03 0.  1.
        -12    1    3    3    0    0  0.64630932994E+01  0.20619726989E+02 -0.80980561660E+01  0.23076464845E+02  0.00000000000E+00 0.  1.
</event>
<event>
 7    1  0.6857839E-013  0.5052886E+02  0.7816164E-02  0.1300439E+00
        -11   -1    0    0    0    0  0.00000000000E+00  0.00000000000E+00  0.45593999997E+02  0.45594000000E+02  0.51100000000E-03 0. -1.
         11   -1    0    0    0    0 -0.00000000000E+00 -0.00000000000E+00 -0.45593999997E+02  0.45594000000E+02  0.51100000000E-03 0.  1.
    9900012    2    1    2    0    0 -0.20590257433E+02 -0.30168910306E+02  0.17861787002E+02  0.50528864678E+02  0.30000014677E+02 0.  0.
        -12    1    1    2    0    0  0.20590257433E+02  0.30168910306E+02 -0.17861787002E+02  0.40659135322E+02  0.00000000000E+00 0.  1.
         11    1    3    3    0    0 -0.94566071853E+01 -0.16627920855E+02  0.21711749509E+02  0.28936399887E+02  0.51100000000E-03 0. -1.
        -11    1    3    3    0    0  0.25477686681E+01 -0.23209555070E+01  0.15930612078E+00  0.34501214982E+01  0.51100000000E-03 0.  1.
         12    1    3    3    0    0 -0.13681418916E+02 -0.11220033943E+02 -0.40092686276E+01  0.18142343293E+02  0.00000000000E+00 0. -1.
</event>
<event>
 7    1  0.6857839E-013  0.5052884E+02  0.7816164E-02  0.1300439E+00
        -11   -1    0    0    0    0  0.00000000000E+00  0.00000000000E+00  0.45593999997E+02  0.45594000000E+02  0.51100000000E-03 0. -1.
         11   -1    0    0    0    0 -0.00000000000E+00 -0.00000000000E+00 -0.45593999997E+02  0.45594000000E+02  0.51100000000E-03 0.  1.
    9900012    2    1    2    0    0 -0.16368485930E+02 -0.19093271378E+02  0.31948197373E+02  0.50528835486E+02  0.29999925944E+02 0.  0.
        -12    1    1    2    0    0  0.16368485930E+02  0.19093271378E+02 -0.31948197373E+02  0.40659164514E+02  0.00000000000E+00 0.  1.
         11    1    3    3    0    0  0.25488420712E+01 -0.72268322442E+00  0.46870155362E+01  0.53839559661E+01  0.51100000000E-03 0. -1.
        -11    1    3    3    0    0 -0.19102054458E+02 -0.23691108581E+02  0.24898669186E+02  0.39320488779E+02  0.51100000000E-03 0.  1.
         12    1    3    3    0    0  0.18472645627E+00  0.53205204275E+01  0.23625126510E+01  0.58243907414E+01  0.00000000000E+00 0. -1.
</event>
<event>
 7    1  0.6857839E-013  0.5052886E+02  0.7816164E-02  0.1300439E+00
        -11   -1    0    0    0    0  0.00000000000E+00  0.00000000000E+00  0.45593999997E+02  0.45594000000E+02  0.51100000000E-03 0. -1.
         11   -1    0    0    0    0 -0.00000000000E+00 -0.00000000000E+00 -0.45593999997E+02  0.45594000000E+02  0.51100000000E-03 0.  1.
    9900012    2    1    2    0    0  0.93686933553E+00 -0.18855410927E+02  0.36010569919E+02  0.50528863373E+02  0.30000010708E+02 0.  0.
        -12    1    1    2    0    0 -0.93686933553E+00  0.18855410927E+02 -0.36010569919E+02  0.40659136627E+02  0.00000000000E+00 0.  1.
         11    1    3    3    0    0 -0.26134528425E+01  0.93737743765E+00  0.39508965088E+01  0.48289124764E+01  0.51100000000E-03 0. -1.
        -11    1    3    3    0    0 -0.30290053511E+01  0.55298887524E+01  0.76982914910E+01  0.99507906807E+01  0.51100000000E-03 0.  1.
        -12    1    3    3    0    0  0.65793275291E+01 -0.25322677117E+02  0.24361381919E+02  0.35749160216E+02  0.00000000000E+00 0.  1.
</event>
<event>
 7    1  0.6857839E-013  0.5052887E+02  0.7816164E-02  0.1300439E+00
        -11   -1    0    0    0    0  0.00000000000E+00  0.00000000000E+00  0.45593999997E+02  0.45594000000E+02  0.51100000000E-03 0. -1.
         11   -1    0    0    0    0 -0.00000000000E+00 -0.00000000000E+00 -0.45593999997E+02  0.45594000000E+02  0.51100000000E-03 0.  1.
    9900012    2    1    2    0    0 -0.22381426830E+02  0.20342231926E+02  0.27174065086E+02  0.50528874580E+02  0.30000044773E+02 0.  0.
        -12    1    1    2    0    0  0.22381426830E+02 -0.20342231926E+02 -0.27174065086E+02  0.40659125420E+02  0.00000000000E+00 0.  1.
         11    1    3    3    0    0 -0.36281948796E+01  0.83233798042E+01  0.10318610344E+02  0.13744677848E+02  0.51100000000E-03 0. -1.
        -11    1    3    3    0    0 -0.10133947780E+02  0.17489776477E+02  0.17241401580E+02  0.26567933821E+02  0.51100000000E-03 0.  1.
        -12    1    3    3    0    0 -0.86192841703E+01 -0.54709243551E+01 -0.38594683815E+00  0.10216262911E+02  0.00000000000E+00 0.  1.
</event>
<event>
 7    1  0.6857839E-013  0.5052884E+02  0.7816164E-02  0.1300439E+00
        -11   -1    0    0    0    0  0.00000000000E+00  0.00000000000E+00  0.45593999997E+02  0.45594000000E+02  0.51100000000E-03 0.  1.
         11   -1    0    0    0    0 -0.00000000000E+00 -0.00000000000E+00 -0.45593999997E+02  0.45594000000E+02  0.51100000000E-03 0. -1.
    9900012    2    1    2    0    0  0.31750023462E+02 -0.34176307377E+01 -0.25167892035E+02  0.50528843846E+02  0.29999951354E+02 0.  0.
        -12    1    1    2    0    0 -0.31750023462E+02  0.34176307377E+01  0.25167892035E+02  0.40659156154E+02  0.00000000000E+00 0.  1.
         11    1    3    3    0    0  0.10548911256E+00  0.33557239881E+00 -0.98007129827E+01  0.98070236065E+01  0.51100000000E-03 0. -1.
        -11    1    3    3    0    0  0.17149907628E+02  0.57693902468E+01 -0.86571184921E+00  0.18115039407E+02  0.51100000000E-03 0.  1.
         12    1    3    3    0    0  0.14494626721E+02 -0.95225933833E+01 -0.14501467203E+02  0.22606780832E+02  0.00000000000E+00 0. -1.
</event>
<event>
 7    1  0.6857839E-013  0.5052886E+02  0.7816164E-02  0.1300439E+00
        -11   -1    0    0    0    0  0.00000000000E+00  0.00000000000E+00  0.45593999997E+02  0.45594000000E+02  0.51100000000E-03 0.  1.
         11   -1    0    0    0    0 -0.00000000000E+00 -0.00000000000E+00 -0.45593999997E+02  0.45594000000E+02  0.51100000000E-03 0. -1.
    9900012    2    1    2    0    0 -0.47254540506E+01  0.89230679202E+01 -0.39385459410E+02  0.50528862404E+02  0.30000007763E+02 0.  0.
        -12    1    1    2    0    0  0.47254540506E+01 -0.89230679202E+01  0.39385459410E+02  0.40659137596E+02  0.00000000000E+00 0.  1.
         11    1    3    3    0    0 -0.28227841816E+01  0.83851222925E+01 -0.10918292090E+02  0.14053024188E+02  0.51100000000E-03 0. -1.
        -11    1    3    3    0    0 -0.15669781805E+01  0.37782866532E+01  0.28527931363E+01  0.49869128318E+01  0.51100000000E-03 0.  1.
         12    1    3    3    0    0 -0.33569168848E+00 -0.32403410254E+01 -0.31319960457E+02  0.31488925385E+02  0.00000000000E+00 0. -1.
</event>
<event>
 7    1  0.6857839E-013  0.5052885E+02  0.7816164E-02  0.1300439E+00
        -11   -1    0    0    0    0  0.00000000000E+00  0.00000000000E+00  0.45593999997E+02  0.45594000000E+02  0.51100000000E-03 0.  1.
         11   -1    0    0    0    0 -0.00000000000E+00 -0.00000000000E+00 -0.45593999997E+02  0.45594000000E+02  0.51100000000E-03 0. -1.
    9900012    2    1    2    0    0  0.38546404443E+02 -0.66011274262E+01 -0.11125031583E+02  0.50528849658E+02  0.29999969020E+02 0.  0.
        -12    1    1    2    0    0 -0.38546404443E+02  0.66011274262E+01  0.11125031583E+02  0.40659150342E+02  0.00000000000E+00 0.  1.
         11    1    3    3    0    0  0.15133429868E+02  0.25673575419E+01 -0.98171567123E+01  0.18220554066E+02  0.51100000000E-03 0. -1.
        -11    1    3    3    0    0  0.24925226774E+02 -0.93357829072E+01  0.38839552769E+01  0.26898120401E+02  0.51100000000E-03 0.  1.
         12    1    3    3    0    0 -0.15122521986E+01  0.16729793911E+00 -0.51918301477E+01  0.54101751908E+01  0.00000000000E+00 0. -1.
</event>
<event>
 7    1  0.6857839E-013  0.5052886E+02  0.7816164E-02  0.1300439E+00
        -11   -1    0    0    0    0  0.00000000000E+00  0.00000000000E+00  0.45593999997E+02  0.45594000000E+02  0.51100000000E-03 0. -1.
         11   -1    0    0    0    0 -0.00000000000E+00 -0.00000000000E+00 -0.45593999997E+02  0.45594000000E+02  0.51100000000E-03 0.  1.
    9900012    2    1    2    0    0 -0.40625622616E+02  0.40878871321E+00 -0.15991909731E+01  0.50528859172E+02  0.29999997938E+02 0.  0.
        -12    1    1    2    0    0  0.40625622616E+02 -0.40878871321E+00  0.15991909731E+01  0.40659140828E+02  0.00000000000E+00 0.  1.
         11    1    3    3    0    0 -0.20033223244E+02 -0.23149730539E+01  0.78386369525E+01  0.21636389794E+02  0.51100000000E-03 0. -1.
        -11    1    3    3    0    0 -0.76027420881E+01  0.98810859297E+01 -0.39392759974E+01  0.13074993004E+02  0.51100000000E-03 0.  1.
         12    1    3    3    0    0 -0.12989657283E+02 -0.71573241626E+01 -0.54985519282E+01  0.15817476373E+02  0.00000000000E+00 0. -1.
</event>
<event>
 7    1  0.6857839E-013  0.5052885E+02  0.7816164E-02  0.1300439E+00
        -11   -1    0    0    0    0  0.00000000000E+00  0.00000000000E+00  0.45593999997E+02  0.45594000000E+02  0.51100000000E-03 0.  1.
         11   -1    0    0    0    0 -0.00000000000E+00 -0.00000000000E+00 -0.45593999997E+02  0.45594000000E+02  0.51100000000E-03 0. -1.
    9900012    2    1    2    0    0  0.34433278754E+02 -0.79786594047E+01 -0.20096179899E+02  0.50528854188E+02  0.29999982789E+02 0.  0.
        -12    1    1    2    0    0 -0.34433278754E+02  0.79786594047E+01  0.20096179899E+02  0.40659145812E+02  0.00000000000E+00 0.  1.
         11    1    3    3    0    0  0.30834789049E+02 -0.32618439353E+01 -0.12182924311E+02  0.33314373573E+02  0.51100000000E-03 0. -1.
        -11    1    3    3    0    0  0.88650733572E+01 -0.31419505529E+01 -0.30858493842E+01  0.98986789820E+01  0.51100000000E-03 0.  1.
        -12    1    3    3    0    0 -0.52665836523E+01 -0.15748649166E+01 -0.48274062037E+01  0.73158016326E+01  0.00000000000E+00 0.  1.
</event>
<event>
 7    1  0.6857839E-013  0.5052886E+02  0.7816164E-02  0.1300439E+00
        -11   -1    0    0    0    0  0.00000000000E+00  0.00000000000E+00  0.45593999997E+02  0.45594000000E+02  0.51100000000E-03 0.  1.
         11   -1    0    0    0    0 -0.00000000000E+00 -0.00000000000E+00 -0.45593999997E+02  0.45594000000E+02  0.51100000000E-03 0. -1.
    9900012    2    1    2    0    0 -0.81851320033E+01  0.35631521189E+02 -0.17792253086E+02  0.50528856402E+02  0.29999989521E+02 0.  0.
        -12    1    1    2    0    0  0.81851320033E+01 -0.35631521189E+02  0.17792253086E+02  0.40659143598E+02  0.00000000000E+00 0.  1.
         11    1    3    3    0    0 -0.78509976967E+01  0.29289036210E+02 -0.13321041821E+02  0.33120023587E+02  0.51100000000E-03 0. -1.
        -11    1    3    3    0    0  0.23236930603E+01  0.84720468030E+01 -0.84377701403E+01  0.12180767286E+02  0.51100000000E-03 0.  1.
        -12    1    3    3    0    0 -0.26578273669E+01 -0.21295618238E+01  0.39665588747E+01  0.52280655294E+01  0.00000000000E+00 0.  1.
</event>
<event>
 7    1  0.6857839E-013  0.5052886E+02  0.7816164E-02  0.1300439E+00
        -11   -1    0    0    0    0  0.00000000000E+00  0.00000000000E+00  0.45593999997E+02  0.45594000000E+02  0.51100000000E-03 0.  1.
         11   -1    0    0    0    0 -0.00000000000E+00 -0.00000000000E+00 -0.45593999997E+02  0.45594000000E+02  0.51100000000E-03 0. -1.
    9900012    2    1    2    0    0  0.17258217607E+02  0.10601636257E+02 -0.35255139553E+02  0.50528860423E+02  0.30000001740E+02 0.  0.
        -12    1    1    2    0    0 -0.17258217607E+02 -0.10601636257E+02  0.35255139553E+02  0.40659139577E+02  0.00000000000E+00 0.  1.
         11    1    3    3    0    0 -0.37209366262E+00 -0.79781518681E+01 -0.65139959428E+01  0.10306381728E+02  0.51100000000E-03 0. -1.
        -11    1    3    3    0    0 -0.75912192543E+00  0.36603994799E+01 -0.12572141549E+01  0.39440306974E+01  0.51100000000E-03 0.  1.
         12    1    3    3    0    0  0.18389433195E+02  0.14919388645E+02 -0.27483929455E+02  0.36278447997E+02  0.00000000000E+00 0. -1.
</event>
<event>
 7    1  0.6857839E-013  0.5052885E+02  0.7816164E-02  0.1300439E+00
        -11   -1    0    0    0    0  0.00000000000E+00  0.00000000000E+00  0.45593999997E+02  0.45594000000E+02  0.51100000000E-03 0.  1.
         11   -1    0    0    0    0 -0.00000000000E+00 -0.00000000000E+00 -0.45593999997E+02  0.45594000000E+02  0.51100000000E-03 0. -1.
    9900012    2    1    2    0    0 -0.24807957975E+02  0.12949229608E+02 -0.29496591975E+02  0.50528852634E+02  0.29999978068E+02 0.  0.
        -12    1    1    2    0    0  0.24807957975E+02 -0.12949229608E+02  0.29496591975E+02  0.40659147366E+02  0.00000000000E+00 0.  1.
         11    1    3    3    0    0 -0.20436072373E+02  0.10369155768E+02 -0.15996954908E+02  0.27947361449E+02  0.51100000000E-03 0. -1.
        -11    1    3    3    0    0 -0.53482770148E+01 -0.58201112719E+01 -0.17344948309E+01  0.80923565680E+01  0.51100000000E-03 0.  1.
        -12    1    3    3    0    0  0.97639141311E+00  0.84001851123E+01 -0.11765142237E+02  0.14489134618E+02  0.00000000000E+00 0.  1.
</event>
<event>
 7    1  0.9720665E-013  0.5052891E+02  0.7816164E-02  0.1300439E+00
        -11   -1    0    0    0    0  0.00000000000E+00  0.00000000000E+00  0.45593999997E+02  0.45594000000E+02  0.51100000000E-03 0.  1.
         11   -1    0    0    0    0 -0.00000000000E+00 -0.00000000000E+00 -0.45593999997E+02  0.45594000000E+02  0.51100000000E-03 0. -1.
    9900012    2    1    2    0    0  0.26692732361E+02 -0.27482422289E+02  0.13615297344E+02  0.50528907320E+02  0.30000144290E+02 0.  0.
        -12    1    1    2    0    0 -0.26692732361E+02  0.27482422289E+02 -0.13615297344E+02  0.40659092680E+02  0.00000000000E+00 0.  1.
         11    1    3    3    0    0  0.99181767357E+01 -0.18661398998E+02  0.59646489342E-01  0.21133423771E+02  0.51100000000E-03 0. -1.
        -11    1    3    3    0    0 -0.32206989614E+01 -0.74898339741E+00  0.54192122950E+01  0.63483651509E+01  0.51100000000E-03 0.  1.
        -12    1    3    3    0    0  0.19995254587E+02 -0.80720398938E+01  0.81364385597E+01  0.23047118398E+02  0.00000000000E+00 0.  1.
</event>
<event>
 7    1  0.6857839E-013  0.5052886E+02  0.7816164E-02  0.1300439E+00
        -11   -1    0    0    0    0  0.00000000000E+00  0.00000000000E+00  0.45593999997E+02  0.45594000000E+02  0.51100000000E-03 0.  1.
         11   -1    0    0    0    0 -0.00000000000E+00 -0.00000000000E+00 -0.45593999997E+02  0.45594000000E+02  0.51100000000E-03 0. -1.
    9900012    2    1    2    0    0 -0.11046854390E+02  0.22132425693E+02 -0.32269000835E+02  0.50528859898E+02  0.30000000145E+02 0.  0.
        -12    1    1    2    0    0  0.11046854390E+02 -0.22132425693E+02  0.32269000835E+02  0.40659140102E+02  0.00000000000E+00 0.  1.
         11    1    3    3    0    0  0.26175448609E+01  0.68422101783E+01 -0.93411553169E+01  0.11871165239E+02  0.51100000000E-03 0. -1.
        -11    1    3    3    0    0 -0.11886840980E+02  0.25557748908E+01 -0.22753890158E+02  0.25798614136E+02  0.51100000000E-03 0.  1.
         12    1    3    3    0    0 -0.17775582716E+01  0.12734440624E+02 -0.17395535992E+00  0.12859080522E+02  0.00000000000E+00 0. -1.
</event>
<event>
 7    1  0.6857839E-013  0.5052886E+02  0.7816164E-02  0.1300439E+00
        -11   -1    0    0    0    0  0.00000000000E+00  0.00000000000E+00  0.45593999997E+02  0.45594000000E+02  0.51100000000E-03 0.  1.
         11   -1    0    0    0    0 -0.00000000000E+00 -0.00000000000E+00 -0.45593999997E+02  0.45594000000E+02  0.51100000000E-03 0. -1.
    9900012    2    1    2    0    0 -0.40628250995E+02  0.83317162981E+00  0.13477318719E+01  0.50528864064E+02  0.30000012809E+02 0.  0.
        -12    1    1    2    0    0  0.40628250995E+02 -0.83317162981E+00 -0.13477318719E+01  0.40659135936E+02  0.00000000000E+00 0.  1.
         11    1    3    3    0    0 -0.23735650168E+01  0.90848470183E+00 -0.62311813482E+01  0.67295450513E+01  0.51100000000E-03 0. -1.
        -11    1    3    3    0    0 -0.20154534539E+02 -0.28405121706E+01 -0.57514154492E+01  0.21150710432E+02  0.51100000000E-03 0.  1.
        -12    1    3    3    0    0 -0.18100151440E+02  0.27651990986E+01  0.13330328669E+02  0.22648608580E+02  0.00000000000E+00 0.  1.
</event>
<event>
 7    1  0.6857839E-013  0.5052884E+02  0.7816164E-02  0.1300439E+00
        -11   -1    0    0    0    0  0.00000000000E+00  0.00000000000E+00  0.45593999997E+02  0.45594000000E+02  0.51100000000E-03 0. -1.
         11   -1    0    0    0    0 -0.00000000000E+00 -0.00000000000E+00 -0.45593999997E+02  0.45594000000E+02  0.51100000000E-03 0.  1.
    9900012    2    1    2    0    0  0.35708826671E+02  0.12017062805E+02  0.15285184157E+02  0.50528844138E+02  0.29999952243E+02 0.  0.
        -12    1    1    2    0    0 -0.35708826671E+02 -0.12017062805E+02 -0.15285184157E+02  0.40659155862E+02  0.00000000000E+00 0.  1.
         11    1    3    3    0    0  0.51162831843E+01 -0.58897439983E+01  0.40648840058E+01  0.87970858942E+01  0.51100000000E-03 0. -1.
        -11    1    3    3    0    0  0.17627158150E+01  0.39090975924E+01 -0.43439567439E+01  0.61039472054E+01  0.51100000000E-03 0.  1.
         12    1    3    3    0    0  0.28829827671E+02  0.13997709211E+02  0.15564256896E+02  0.35627811039E+02  0.00000000000E+00 0. -1.
</event>
<event>
 7    1  0.6857839E-013  0.5052885E+02  0.7816164E-02  0.1300439E+00
        -11   -1    0    0    0    0  0.00000000000E+00  0.00000000000E+00  0.45593999997E+02  0.45594000000E+02  0.51100000000E-03 0.  1.
         11   -1    0    0    0    0 -0.00000000000E+00 -0.00000000000E+00 -0.45593999997E+02  0.45594000000E+02  0.51100000000E-03 0. -1.
    9900012    2    1    2    0    0  0.13597108381E+02 -0.29489064113E+02 -0.24467937660E+02  0.50528853035E+02  0.29999979285E+02 0.  0.
        -12    1    1    2    0    0 -0.13597108381E+02  0.29489064113E+02  0.24467937660E+02  0.40659146965E+02  0.00000000000E+00 0.  1.
         11    1    3    3    0    0 -0.53661703352E+00 -0.16136130879E+02 -0.22726893327E+02  0.27877847085E+02  0.51100000000E-03 0. -1.
        -11    1    3    3    0    0 -0.20052115779E+01 -0.20425640297E+01 -0.48772709950E+00  0.29035873109E+01  0.51100000000E-03 0.  1.
        -12    1    3    3    0    0  0.16138936992E+02 -0.11310369205E+02 -0.12533172338E+01  0.19747418639E+02  0.00000000000E+00 0.  1.
</event>
<event>
 7    1  0.6857839E-013  0.5052886E+02  0.7816164E-02  0.1300439E+00
        -11   -1    0    0    0    0  0.00000000000E+00  0.00000000000E+00  0.45593999997E+02  0.45594000000E+02  0.51100000000E-03 0.  1.
         11   -1    0    0    0    0 -0.00000000000E+00 -0.00000000000E+00 -0.45593999997E+02  0.45594000000E+02  0.51100000000E-03 0. -1.
    9900012    2    1    2    0    0 -0.28498164346E+02  0.28473655842E+02 -0.55019340771E+01  0.50528859248E+02  0.29999998169E+02 0.  0.
        -12    1    1    2    0    0  0.28498164346E+02 -0.28473655842E+02  0.55019340771E+01  0.40659140752E+02  0.00000000000E+00 0.  1.
         11    1    3    3    0    0 -0.11389742301E+02  0.94704795630E+00 -0.39473439213E+01  0.12091511643E+02  0.51100000000E-03 0. -1.
        -11    1    3    3    0    0  0.35131444960E+01  0.86985205062E+00 -0.30048815038E+01  0.47040556919E+01  0.51100000000E-03 0.  1.
         12    1    3    3    0    0 -0.20621566541E+02  0.26656755835E+02  0.14502913480E+01  0.33733291913E+02  0.00000000000E+00 0. -1.
</event>
<event>
 7    1  0.6857839E-013  0.5052887E+02  0.7816164E-02  0.1300439E+00
        -11   -1    0    0    0    0  0.00000000000E+00  0.00000000000E+00  0.45593999997E+02  0.45594000000E+02  0.51100000000E-03 0.  1.
         11   -1    0    0    0    0 -0.00000000000E+00 -0.00000000000E+00 -0.45593999997E+02  0.45594000000E+02  0.51100000000E-03 0. -1.
    9900012    2    1    2    0    0 -0.58254251749E+01  0.39010262254E+02 -0.98706183311E+01  0.50528865162E+02  0.30000016145E+02 0.  0.
        -12    1    1    2    0    0  0.58254251749E+01 -0.39010262254E+02  0.98706183311E+01  0.40659134838E+02  0.00000000000E+00 0.  1.
         11    1    3    3    0    0  0.48475261110E+01  0.21365098869E+02 -0.13014000971E+02  0.25481957943E+02  0.51100000000E-03 0. -1.
        -11    1    3    3    0    0 -0.77891178024E+01  0.17595742856E+02 -0.17968068140E+01  0.19326381912E+02  0.51100000000E-03 0.  1.
        -12    1    3    3    0    0 -0.28838334835E+01  0.49420528488E-01  0.49401894538E+01  0.57205253070E+01  0.00000000000E+00 0.  1.
</event>
<event>
 7    1  0.6857839E-013  0.5052886E+02  0.7816164E-02  0.1300439E+00
        -11   -1    0    0    0    0  0.00000000000E+00  0.00000000000E+00  0.45593999997E+02  0.45594000000E+02  0.51100000000E-03 0.  1.
         11   -1    0    0    0    0 -0.00000000000E+00 -0.00000000000E+00 -0.45593999997E+02  0.45594000000E+02  0.51100000000E-03 0. -1.
    9900012    2    1    2    0    0 -0.23642524032E+02 -0.32331452506E+02  0.69910004860E+01  0.50528857712E+02  0.29999993502E+02 0.  0.
        -12    1    1    2    0    0  0.23642524032E+02  0.32331452506E+02 -0.69910004860E+01  0.40659142288E+02  0.00000000000E+00 0.  1.
         11    1    3    3    0    0 -0.55647188135E+00 -0.88247636856E+01 -0.13104980569E+01  0.89388769138E+01  0.51100000000E-03 0. -1.
        -11    1    3    3    0    0  0.39369978556E+00 -0.97244132665E+01  0.10449159307E+02  0.14279500810E+02  0.51100000000E-03 0.  1.
        -12    1    3    3    0    0 -0.23479751936E+02 -0.13782275554E+02 -0.21476607640E+01  0.27310479989E+02  0.00000000000E+00 0.  1.
</event>
<event>
 7    1  0.6857839E-013  0.5052886E+02  0.7816164E-02  0.1300439E+00
        -11   -1    0    0    0    0  0.00000000000E+00  0.00000000000E+00  0.45593999997E+02  0.45594000000E+02  0.51100000000E-03 0.  1.
         11   -1    0    0    0    0 -0.00000000000E+00 -0.00000000000E+00 -0.45593999997E+02  0.45594000000E+02  0.51100000000E-03 0. -1.
    9900012    2    1    2    0    0  0.35162788030E+02 -0.92231784201E+01 -0.18212003438E+02  0.50528858944E+02  0.29999997246E+02 0.  0.
        -12    1    1    2    0    0 -0.35162788030E+02  0.92231784201E+01  0.18212003438E+02  0.40659141056E+02  0.00000000000E+00 0.  1.
         11    1    3    3    0    0  0.93645427409E+01 -0.11845598370E+02 -0.10606865373E+02  0.18453142139E+02  0.51100000000E-03 0. -1.
        -11    1    3    3    0    0 -0.36142544395E+00  0.17134235954E+01  0.32870892908E+01  0.37244335188E+01  0.51100000000E-03 0.  1.
        -12    1    3    3    0    0  0.26159670733E+02  0.90899635439E+00 -0.10892227356E+02  0.28351283286E+02  0.00000000000E+00 0.  1.
</event>
<event>
 7    1  0.6857839E-013  0.5052885E+02  0.7816164E-02  0.1300439E+00
        -11   -1    0    0    0    0  0.00000000000E+00  0.00000000000E+00  0.45593999997E+02  0.45594000000E+02  0.51100000000E-03 0.  1.
         11   -1    0    0    0    0 -0.00000000000E+00 -0.00000000000E+00 -0.45593999997E+02  0.45594000000E+02  0.51100000000E-03 0. -1.
    9900012    2    1    2    0    0  0.13771703805E+02 -0.14001666623E+02 -0.35601400632E+02  0.50528853171E+02  0.29999979697E+02 0.  0.
        -12    1    1    2    0    0 -0.13771703805E+02  0.14001666623E+02  0.35601400632E+02  0.40659146829E+02  0.00000000000E+00 0.  1.
         11    1    3    3    0    0  0.33295072562E+01 -0.18642851599E+02 -0.17099426405E+02  0.25515327118E+02  0.51100000000E-03 0. -1.
        -11    1    3    3    0    0  0.36819774895E+01 -0.13228721377E+01 -0.14730812150E+02  0.15241514878E+02  0.51100000000E-03 0.  1.
         12    1    3    3    0    0  0.67602190591E+01  0.59640571131E+01 -0.37711620773E+01  0.97720111742E+01  0.00000000000E+00 0. -1.
</event>
<event>
 7    1  0.6857839E-013  0.5052884E+02  0.7816164E-02  0.1300439E+00
        -11   -1    0    0    0    0  0.00000000000E+00  0.00000000000E+00  0.45593999997E+02  0.45594000000E+02  0.51100000000E-03 0.  1.
         11   -1    0    0    0    0 -0.00000000000E+00 -0.00000000000E+00 -0.45593999997E+02  0.45594000000E+02  0.51100000000E-03 0. -1.
    9900012    2    1    2    0    0  0.13552432977E+02  0.30566361183E+02 -0.23134320256E+02  0.50528835605E+02  0.29999926305E+02 0.  0.
        -12    1    1    2    0    0 -0.13552432977E+02 -0.30566361183E+02  0.23134320256E+02  0.40659164395E+02  0.00000000000E+00 0.  1.
         11    1    3    3    0    0  0.79998002735E+01  0.31037235836E+02 -0.22336370465E+02  0.39066869066E+02  0.51100000000E-03 0.  1.
        -11    1    3    3    0    0  0.83823606911E+01  0.60972237701E+00 -0.53402633232E+00  0.84214557243E+01  0.51100000000E-03 0. -1.
        -12    1    3    3    0    0 -0.28297279872E+01 -0.10805970304E+01 -0.26392345857E+00  0.30405108150E+01  0.00000000000E+00 0.  1.
</event>
<event>
 7    1  0.6857839E-013  0.5052884E+02  0.7816164E-02  0.1300439E+00
        -11   -1    0    0    0    0  0.00000000000E+00  0.00000000000E+00  0.45593999997E+02  0.45594000000E+02  0.51100000000E-03 0. -1.
         11   -1    0    0    0    0 -0.00000000000E+00 -0.00000000000E+00 -0.45593999997E+02  0.45594000000E+02  0.51100000000E-03 0.  1.
    9900012    2    1    2    0    0 -0.27894366801E+02  0.19416280369E+02  0.22317699859E+02  0.50528839045E+02  0.29999936760E+02 0.  0.
        -12    1    1    2    0    0  0.27894366801E+02 -0.19416280369E+02 -0.22317699859E+02  0.40659160955E+02  0.00000000000E+00 0.  1.
         11    1    3    3    0    0 -0.10565225425E+01 -0.20426522306E+01  0.42654030718E+01  0.48458571630E+01  0.51100000000E-03 0. -1.
        -11    1    3    3    0    0 -0.30973503206E+00  0.82882466360E+01 -0.35524015670E+01  0.90227781334E+01  0.51100000000E-03 0.  1.
         12    1    3    3    0    0 -0.26528109227E+02  0.13170685963E+02  0.21604698354E+02  0.36660203748E+02  0.00000000000E+00 0. -1.
</event>
<event>
 7    1  0.6857839E-013  0.5052886E+02  0.7816164E-02  0.1300439E+00
        -11   -1    0    0    0    0  0.00000000000E+00  0.00000000000E+00  0.45593999997E+02  0.45594000000E+02  0.51100000000E-03 0.  1.
         11   -1    0    0    0    0 -0.00000000000E+00 -0.00000000000E+00 -0.45593999997E+02  0.45594000000E+02  0.51100000000E-03 0. -1.
    9900012    2    1    2    0    0  0.12045787761E+02 -0.82857878640E+01 -0.37939559869E+02  0.50528862203E+02  0.30000007154E+02 0.  0.
        -12    1    1    2    0    0 -0.12045787761E+02  0.82857878640E+01  0.37939559869E+02  0.40659137797E+02  0.00000000000E+00 0.  1.
         11    1    3    3    0    0  0.17554078153E+02  0.13517295920E-01 -0.27454599312E+02  0.32586820437E+02  0.51100000000E-03 0. -1.
        -11    1    3    3    0    0 -0.37678936156E+01 -0.53881205687E+01 -0.12408522612E+02  0.14042802399E+02  0.51100000000E-03 0.  1.
        -12    1    3    3    0    0 -0.17403967768E+01 -0.29111845912E+01  0.19235620549E+01  0.38992393674E+01  0.00000000000E+00 0.  1.
</event>
<event>
 7    1  0.6857839E-013  0.5052884E+02  0.7816164E-02  0.1300439E+00
        -11   -1    0    0    0    0  0.00000000000E+00  0.00000000000E+00  0.45593999997E+02  0.45594000000E+02  0.51100000000E-03 0.  1.
         11   -1    0    0    0    0 -0.00000000000E+00 -0.00000000000E+00 -0.45593999997E+02  0.45594000000E+02  0.51100000000E-03 0. -1.
    9900012    2    1    2    0    0  0.38932152498E+02  0.11374340922E+02 -0.28423678001E+01  0.50528841324E+02  0.29999943689E+02 0.  0.
        -12    1    1    2    0    0 -0.38932152498E+02 -0.11374340922E+02  0.28423678001E+01  0.40659158676E+02  0.00000000000E+00 0.  1.
         11    1    3    3    0    0  0.11291845002E+02  0.93492804572E+01 -0.90195948111E+01  0.17212434442E+02  0.51100000000E-03 0. -1.
        -11    1    3    3    0    0  0.25004040750E+02 -0.28331463570E+01  0.18574324531E+00  0.25164722787E+02  0.51100000000E-03 0.  1.
         12    1    3    3    0    0  0.26362667456E+01  0.48582068213E+01  0.59914837657E+01  0.81516840952E+01  0.00000000000E+00 0. -1.
</event>
<event>
 7    1  0.6857839E-013  0.5052887E+02  0.7816164E-02  0.1300439E+00
        -11   -1    0    0    0    0  0.00000000000E+00  0.00000000000E+00  0.45593999997E+02  0.45594000000E+02  0.51100000000E-03 0.  1.
         11   -1    0    0    0    0 -0.00000000000E+00 -0.00000000000E+00 -0.45593999997E+02  0.45594000000E+02  0.51100000000E-03 0. -1.
    9900012    2    1    2    0    0 -0.15963438535E+00  0.52097013940E+01 -0.40323666034E+02  0.50528874158E+02  0.30000043492E+02 0.  0.
        -12    1    1    2    0    0  0.15963438535E+00 -0.52097013940E+01  0.40323666034E+02  0.40659125842E+02  0.00000000000E+00 0.  1.
         11    1    3    3    0    0 -0.51898174662E+01  0.38077776076E+01 -0.48424415682E+01  0.80549746272E+01  0.51100000000E-03 0. -1.
        -11    1    3    3    0    0  0.52533544225E+01 -0.15972950454E+01  0.12405168053E+01  0.56292065476E+01  0.51100000000E-03 0.  1.
         12    1    3    3    0    0 -0.22317134166E+00  0.29992188318E+01 -0.36721741271E+02  0.36844692984E+02  0.00000000000E+00 0. -1.
</event>
<event>
 7    1  0.6857839E-013  0.5052886E+02  0.7816164E-02  0.1300439E+00
        -11   -1    0    0    0    0  0.00000000000E+00  0.00000000000E+00  0.45593999997E+02  0.45594000000E+02  0.51100000000E-03 0.  1.
         11   -1    0    0    0    0 -0.00000000000E+00 -0.00000000000E+00 -0.45593999997E+02  0.45594000000E+02  0.51100000000E-03 0. -1.
    9900012    2    1    2    0    0  0.31312279496E+02  0.17395111456E+02 -0.19238425801E+02  0.50528858628E+02  0.29999996286E+02 0.  0.
        -12    1    1    2    0    0 -0.31312279496E+02 -0.17395111456E+02  0.19238425801E+02  0.40659141372E+02  0.00000000000E+00 0.  1.
         11    1    3    3    0    0  0.11262009145E+02  0.16123635076E+01 -0.11919862961E+02  0.16477733440E+02  0.51100000000E-03 0. -1.
        -11    1    3    3    0    0  0.13567114609E+02 -0.10014746709E+00  0.31844408396E+01  0.13936186425E+02  0.51100000000E-03 0.  1.
         12    1    3    3    0    0  0.64831557413E+01  0.15882895416E+02 -0.10503003680E+02  0.20114938763E+02  0.00000000000E+00 0. -1.
</event>
<event>
 7    1  0.6857839E-013  0.5052887E+02  0.7816164E-02  0.1300439E+00
        -11   -1    0    0    0    0  0.00000000000E+00  0.00000000000E+00  0.45593999997E+02  0.45594000000E+02  0.51100000000E-03 0. -1.
         11   -1    0    0    0    0 -0.00000000000E+00 -0.00000000000E+00 -0.45593999997E+02  0.45594000000E+02  0.51100000000E-03 0.  1.
    9900012    2    1    2    0    0  0.38560117196E+02  0.86455564165E+01 -0.95674826239E+01  0.50528868090E+02  0.30000025046E+02 0.  0.
        -12    1    1    2    0    0 -0.38560117196E+02 -0.86455564165E+01  0.95674826239E+01  0.40659131910E+02  0.00000000000E+00 0.  1.
         11    1    3    3    0    0  0.31369093925E+02  0.12902351572E+01 -0.73643916925E+01  0.32247775516E+02  0.51100000000E-03 0. -1.
        -11    1    3    3    0    0  0.98776110614E+01  0.67855821991E+01  0.30390352613E+01  0.12363133164E+02  0.51100000000E-03 0.  1.
        -12    1    3    3    0    0 -0.26865877907E+01  0.56973906022E+00 -0.52421261927E+01  0.59179594096E+01  0.00000000000E+00 0.  1.
</event>
<event>
 7    1  0.6857839E-013  0.5052885E+02  0.7816164E-02  0.1300439E+00
        -11   -1    0    0    0    0  0.00000000000E+00  0.00000000000E+00  0.45593999997E+02  0.45594000000E+02  0.51100000000E-03 0.  1.
         11   -1    0    0    0    0 -0.00000000000E+00 -0.00000000000E+00 -0.45593999997E+02  0.45594000000E+02  0.51100000000E-03 0. -1.
    9900012    2    1    2    0    0  0.68449852064E+01  0.24531772474E+02  0.31693923632E+02  0.50528850004E+02  0.29999970073E+02 0.  0.
        -12    1    1    2    0    0 -0.68449852064E+01 -0.24531772474E+02 -0.31693923632E+02  0.40659149996E+02  0.00000000000E+00 0.  1.
         11    1    3    3    0    0  0.92600392400E+01  0.10500150249E+02  0.55357139577E+01  0.15054753776E+02  0.51100000000E-03 0. -1.
        -11    1    3    3    0    0  0.69471331872E+00  0.18104044285E+02  0.23584648701E+02  0.29740119379E+02  0.51100000000E-03 0.  1.
         12    1    3    3    0    0 -0.31097673524E+01 -0.40724220601E+01  0.25735609728E+01  0.57339768488E+01  0.00000000000E+00 0. -1.
</event>
<event>
 7    1  0.6857839E-013  0.5052886E+02  0.7816164E-02  0.1300439E+00
        -11   -1    0    0    0    0  0.00000000000E+00  0.00000000000E+00  0.45593999997E+02  0.45594000000E+02  0.51100000000E-03 0.  1.
         11   -1    0    0    0    0 -0.00000000000E+00 -0.00000000000E+00 -0.45593999997E+02  0.45594000000E+02  0.51100000000E-03 0. -1.
    9900012    2    1    2    0    0  0.69233465825E+01  0.36241543884E+02 -0.17081671673E+02  0.50528859108E+02  0.29999997744E+02 0.  0.
        -12    1    1    2    0    0 -0.69233465825E+01 -0.36241543884E+02  0.17081671673E+02  0.40659140892E+02  0.00000000000E+00 0.  1.
         11    1    3    3    0    0  0.48710087232E+01  0.20653995389E+02 -0.49895339699E+01  0.21799305058E+02  0.51100000000E-03 0. -1.
        -11    1    3    3    0    0  0.94548403705E+01  0.14612064128E+02 -0.42791407640E+01  0.17922540848E+02  0.51100000000E-03 0.  1.
        -12    1    3    3    0    0 -0.74025025112E+01  0.97548436679E+00 -0.78129969387E+01  0.10807013202E+02  0.00000000000E+00 0.  1.
</event>
<event>
 7    1  0.6857839E-013  0.5052885E+02  0.7816164E-02  0.1300439E+00
        -11   -1    0    0    0    0  0.00000000000E+00  0.00000000000E+00  0.45593999997E+02  0.45594000000E+02  0.51100000000E-03 0.  1.
         11   -1    0    0    0    0 -0.00000000000E+00 -0.00000000000E+00 -0.45593999997E+02  0.45594000000E+02  0.51100000000E-03 0. -1.
    9900012    2    1    2    0    0  0.32009458756E+02 -0.10230702274E+02 -0.22888720528E+02  0.50528852858E+02  0.29999978748E+02 0.  0.
        -12    1    1    2    0    0 -0.32009458756E+02  0.10230702274E+02  0.22888720528E+02  0.40659147142E+02  0.00000000000E+00 0.  1.
         11    1    3    3    0    0  0.24454410319E+01 -0.54757704103E+00  0.12877069912E+01  0.28174832764E+01  0.51100000000E-03 0. -1.
        -11    1    3    3    0    0  0.56296405637E+01 -0.25341302684E+00  0.58832518771E+01  0.81467615621E+01  0.51100000000E-03 0.  1.
         12    1    3    3    0    0  0.23934377160E+02 -0.94297122059E+01 -0.30059679397E+02  0.39564608020E+02  0.00000000000E+00 0. -1.
</event>
<event>
 7    1  0.6857839E-013  0.5052887E+02  0.7816164E-02  0.1300439E+00
        -11   -1    0    0    0    0  0.00000000000E+00  0.00000000000E+00  0.45593999997E+02  0.45594000000E+02  0.51100000000E-03 0. -1.
         11   -1    0    0    0    0 -0.00000000000E+00 -0.00000000000E+00 -0.45593999997E+02  0.45594000000E+02  0.51100000000E-03 0.  1.
    9900012    2    1    2    0    0  0.26870328506E+02  0.30509829461E+02  0.54852187023E+00  0.50528866659E+02  0.30000020698E+02 0.  0.
        -12    1    1    2    0    0 -0.26870328506E+02 -0.30509829461E+02 -0.54852187023E+00  0.40659133341E+02  0.00000000000E+00 0.  1.
         11    1    3    3    0    0  0.15400299703E+02  0.26484230600E+02 -0.85949010093E+01  0.31819114146E+02  0.51100000000E-03 0. -1.
        -11    1    3    3    0    0  0.10758222496E+02  0.14594949616E+01  0.19385380772E+01  0.11028481625E+02  0.51100000000E-03 0.  1.
        -12    1    3    3    0    0  0.71180630723E+00  0.25661038993E+01  0.72048848023E+01  0.76812708880E+01  0.00000000000E+00 0.  1.
</event>
<event>
 7    1  0.6857839E-013  0.5052887E+02  0.7816164E-02  0.1300439E+00
        -11   -1    0    0    0    0  0.00000000000E+00  0.00000000000E+00  0.45593999997E+02  0.45594000000E+02  0.51100000000E-03 0.  1.
         11   -1    0    0    0    0 -0.00000000000E+00 -0.00000000000E+00 -0.45593999997E+02  0.45594000000E+02  0.51100000000E-03 0. -1.
    9900012    2    1    2    0    0  0.26201421802E+02  0.36201437686E+01 -0.30879527723E+02  0.50528865998E+02  0.30000018687E+02 0.  0.
        -12    1    1    2    0    0 -0.26201421802E+02 -0.36201437686E+01  0.30879527723E+02  0.40659134002E+02  0.00000000000E+00 0.  1.
         11    1    3    3    0    0  0.44202822622E+01  0.80285242576E+01 -0.96308433249E+01  0.13294707234E+02  0.51100000000E-03 0. -1.
        -11    1    3    3    0    0 -0.11013689487E+01 -0.74059153574E+01 -0.47916871308E+01  0.88893679001E+01  0.51100000000E-03 0.  1.
         12    1    3    3    0    0  0.22882508489E+02  0.29975348685E+01 -0.16456997268E+02  0.28344790864E+02  0.00000000000E+00 0. -1.
</event>
<event>
 7    1  0.6857839E-013  0.5052886E+02  0.7816164E-02  0.1300439E+00
        -11   -1    0    0    0    0  0.00000000000E+00  0.00000000000E+00  0.45593999997E+02  0.45594000000E+02  0.51100000000E-03 0.  1.
         11   -1    0    0    0    0 -0.00000000000E+00 -0.00000000000E+00 -0.45593999997E+02  0.45594000000E+02  0.51100000000E-03 0. -1.
    9900012    2    1    2    0    0 -0.27298263805E+02 -0.24246422501E+02 -0.17890821085E+02  0.50528859700E+02  0.29999999543E+02 0.  0.
        -12    1    1    2    0    0  0.27298263805E+02  0.24246422501E+02  0.17890821085E+02  0.40659140300E+02  0.00000000000E+00 0.  1.
         11    1    3    3    0    0 -0.24761447020E+02 -0.91992317000E+01 -0.12087440932E+02  0.29049291746E+02  0.51100000000E-03 0. -1.
        -11    1    3    3    0    0 -0.61001449630E+01 -0.15548527928E+02 -0.62918690786E+01  0.17848140129E+02  0.51100000000E-03 0.  1.
        -12    1    3    3    0    0  0.35633281777E+01  0.50133712739E+00  0.48848892486E+00  0.36314278248E+01  0.00000000000E+00 0.  1.
</event>
<event>
 7    1  0.6857839E-013  0.5052885E+02  0.7816164E-02  0.1300439E+00
        -11   -1    0    0    0    0  0.00000000000E+00  0.00000000000E+00  0.45593999997E+02  0.45594000000E+02  0.51100000000E-03 0.  1.
         11   -1    0    0    0    0 -0.00000000000E+00 -0.00000000000E+00 -0.45593999997E+02  0.45594000000E+02  0.51100000000E-03 0. -1.
    9900012    2    1    2    0    0  0.63330671595E+01  0.31949573617E+02 -0.24336867215E+02  0.50528854660E+02  0.29999984224E+02 0.  0.
        -12    1    1    2    0    0 -0.63330671595E+01 -0.31949573617E+02  0.24336867215E+02  0.40659145340E+02  0.00000000000E+00 0.  1.
         11    1    3    3    0    0 -0.87400192019E+00 -0.55367107272E+00 -0.55309518036E+01  0.56268871615E+01  0.51100000000E-03 0. -1.
        -11    1    3    3    0    0 -0.83827223953E+01  0.16052006872E+02 -0.82514603133E+01  0.19900340624E+02  0.51100000000E-03 0.  1.
         12    1    3    3    0    0  0.15589791475E+02  0.16451237818E+02 -0.10554455098E+02  0.25001626875E+02  0.00000000000E+00 0. -1.
</event>
<event>
 7    1  0.6857839E-013  0.5052887E+02  0.7816164E-02  0.1300439E+00
        -11   -1    0    0    0    0  0.00000000000E+00  0.00000000000E+00  0.45593999997E+02  0.45594000000E+02  0.51100000000E-03 0.  1.
         11   -1    0    0    0    0 -0.00000000000E+00 -0.00000000000E+00 -0.45593999997E+02  0.45594000000E+02  0.51100000000E-03 0. -1.
    9900012    2    1    2    0    0  0.15546366117E+02 -0.24730765434E+02 -0.28281884291E+02  0.50528865264E+02  0.30000016458E+02 0.  0.
        -12    1    1    2    0    0 -0.15546366117E+02  0.24730765434E+02  0.28281884291E+02  0.40659134736E+02  0.00000000000E+00 0.  1.
         11    1    3    3    0    0  0.97890372514E+01  0.18402081912E+01 -0.20240859216E+01  0.10164080902E+02  0.51100000000E-03 0. -1.
        -11    1    3    3    0    0  0.95683725289E+00 -0.79561863652E+01 -0.24217148753E+00  0.80171744584E+01  0.51100000000E-03 0.  1.
         12    1    3    3    0    0  0.48004916127E+01 -0.18614787260E+02 -0.26015626882E+02  0.32347609904E+02  0.00000000000E+00 0. -1.
</event>
<event>
 7    1  0.6857839E-013  0.5052886E+02  0.7816164E-02  0.1300439E+00
        -11   -1    0    0    0    0  0.00000000000E+00  0.00000000000E+00  0.45593999997E+02  0.45594000000E+02  0.51100000000E-03 0.  1.
         11   -1    0    0    0    0 -0.00000000000E+00 -0.00000000000E+00 -0.45593999997E+02  0.45594000000E+02  0.51100000000E-03 0. -1.
    9900012    2    1    2    0    0  0.18945076619E+02  0.35045276970E+02 -0.81288555511E+01  0.50528860086E+02  0.30000000717E+02 0.  0.
        -12    1    1    2    0    0 -0.18945076619E+02 -0.35045276970E+02  0.81288555511E+01  0.40659139914E+02  0.00000000000E+00 0.  1.
         11    1    3    3    0    0  0.17617659972E+02  0.26027415913E+02 -0.46224375725E+01  0.31767518810E+02  0.51100000000E-03 0. -1.
        -11    1    3    3    0    0  0.23641004936E+01  0.12737558246E+02 -0.58817777527E+01  0.14227778148E+02  0.51100000000E-03 0.  1.
        -12    1    3    3    0    0 -0.10366838465E+01 -0.37196971893E+01  0.23753597742E+01  0.45335631279E+01  0.00000000000E+00 0.  1.
</event>
<event>
 7    1  0.6857839E-013  0.5052886E+02  0.7816164E-02  0.1300439E+00
        -11   -1    0    0    0    0  0.00000000000E+00  0.00000000000E+00  0.45593999997E+02  0.45594000000E+02  0.51100000000E-03 0. -1.
         11   -1    0    0    0    0 -0.00000000000E+00 -0.00000000000E+00 -0.45593999997E+02  0.45594000000E+02  0.51100000000E-03 0.  1.
    9900012    2    1    2    0    0  0.21719652232E+02  0.76903213253E+01  0.33500462420E+02  0.50528864280E+02  0.30000013464E+02 0.  0.
        -12    1    1    2    0    0 -0.21719652232E+02 -0.76903213253E+01 -0.33500462420E+02  0.40659135720E+02  0.00000000000E+00 0.  1.
         11    1    3    3    0    0  0.11554664498E+02  0.10881751806E+01  0.12851876568E+02  0.17316614232E+02  0.51100000000E-03 0. -1.
        -11    1    3    3    0    0  0.90344578839E+01 -0.91247917050E+00 -0.20212375390E+01  0.93026581654E+01  0.51100000000E-03 0.  1.
        -12    1    3    3    0    0  0.11305298501E+01  0.75146253151E+01  0.22669823392E+02  0.23909591882E+02  0.00000000000E+00 0.  1.
</event>
<event>
 7    1  0.6857839E-013  0.5052886E+02  0.7816164E-02  0.1300439E+00
        -11   -1    0    0    0    0  0.00000000000E+00  0.00000000000E+00  0.45593999997E+02  0.45594000000E+02  0.51100000000E-03 0. -1.
         11   -1    0    0    0    0 -0.00000000000E+00 -0.00000000000E+00 -0.45593999997E+02  0.45594000000E+02  0.51100000000E-03 0.  1.
    9900012    2    1    2    0    0 -0.37493303968E+02  0.34768689482E+01 -0.15340442033E+02  0.50528860536E+02  0.30000002087E+02 0.  0.
        -12    1    1    2    0    0  0.37493303968E+02 -0.34768689482E+01  0.15340442033E+02  0.40659139464E+02  0.00000000000E+00 0.  1.
         11    1    3    3    0    0 -0.23596043004E+02 -0.54767675496E+01 -0.64507420311E+01  0.25067514860E+02  0.51100000000E-03 0. -1.
        -11    1    3    3    0    0 -0.13872455748E+02  0.33486244971E+01 -0.12351228696E+02  0.18873557297E+02  0.51100000000E-03 0.  1.
         12    1    3    3    0    0 -0.24805216951E-01  0.56050120007E+01  0.34615286945E+01  0.65877883792E+01  0.00000000000E+00 0. -1.
</event>
<event>
 7    1  0.6857839E-013  0.5052887E+02  0.7816164E-02  0.1300439E+00
        -11   -1    0    0    0    0  0.00000000000E+00  0.00000000000E+00  0.45593999997E+02  0.45594000000E+02  0.51100000000E-03 0. -1.
         11   -1    0    0    0    0 -0.00000000000E+00 -0.00000000000E+00 -0.45593999997E+02  0.45594000000E+02  0.51100000000E-03 0.  1.
    9900012    2    1    2    0    0 -0.27153863714E+02  0.29696230799E+02  0.58280693620E+01  0.50528870266E+02  0.30000031660E+02 0.  0.
        -12    1    1    2    0    0  0.27153863714E+02 -0.29696230799E+02 -0.58280693620E+01  0.40659129734E+02  0.00000000000E+00 0.  1.
         11    1    3    3    0    0 -0.24662261105E+01  0.89083354143E+01  0.29982921303E+01  0.97175340000E+01  0.51100000000E-03 0. -1.
        -11    1    3    3    0    0 -0.10074780130E+02  0.10488116782E+02  0.13623759599E+02  0.19927584253E+02  0.51100000000E-03 0.  1.
        -12    1    3    3    0    0 -0.14612857474E+02  0.10299778603E+02 -0.10793982367E+02  0.20883752013E+02  0.00000000000E+00 0.  1.
</event>
<event>
 7    1  0.6857839E-013  0.5052888E+02  0.7816164E-02  0.1300439E+00
        -11   -1    0    0    0    0  0.00000000000E+00  0.00000000000E+00  0.45593999997E+02  0.45594000000E+02  0.51100000000E-03 0.  1.
         11   -1    0    0    0    0 -0.00000000000E+00 -0.00000000000E+00 -0.45593999997E+02  0.45594000000E+02  0.51100000000E-03 0. -1.
    9900012    2    1    2    0    0 -0.28596147336E+02 -0.28889293130E+02  0.91279072252E+00  0.50528879413E+02  0.30000059465E+02 0.  0.
        -12    1    1    2    0    0  0.28596147336E+02  0.28889293130E+02 -0.91279072252E+00  0.40659120587E+02  0.00000000000E+00 0.  1.
         11    1    3    3    0    0 -0.54818504606E+01 -0.11956644037E+01 -0.69328719934E+00  0.56534012100E+01  0.51100000000E-03 0. -1.
        -11    1    3    3    0    0 -0.97590353046E+01 -0.15480863280E+02  0.13914336803E+02  0.22989229367E+02  0.51100000000E-03 0.  1.
        -12    1    3    3    0    0 -0.13355261570E+02 -0.12212765446E+02 -0.12308258881E+02  0.21886248836E+02  0.00000000000E+00 0.  1.
</event>
<event>
 7    1  0.6857839E-013  0.5052888E+02  0.7816164E-02  0.1300439E+00
        -11   -1    0    0    0    0  0.00000000000E+00  0.00000000000E+00  0.45593999997E+02  0.45594000000E+02  0.51100000000E-03 0.  1.
         11   -1    0    0    0    0 -0.00000000000E+00 -0.00000000000E+00 -0.45593999997E+02  0.45594000000E+02  0.51100000000E-03 0. -1.
    9900012    2    1    2    0    0  0.45301101621E+01  0.84015316221E+01 -0.39522860193E+02  0.50528879135E+02  0.30000058618E+02 0.  0.
        -12    1    1    2    0    0 -0.45301101621E+01 -0.84015316221E+01  0.39522860193E+02  0.40659120865E+02  0.00000000000E+00 0.  1.
         11    1    3    3    0    0 -0.42199396264E+01  0.32595175682E+01 -0.38132354791E+01  0.65553878839E+01  0.51100000000E-03 0. -1.
        -11    1    3    3    0    0  0.10364862113E+02 -0.73869982256E+01 -0.21275631247E+02  0.24792147842E+02  0.51100000000E-03 0.  1.
         12    1    3    3    0    0 -0.16148123247E+01  0.12529012279E+02 -0.14433993467E+02  0.19181343409E+02  0.00000000000E+00 0. -1.
</event>
<event>
 7    1  0.6857839E-013  0.5052886E+02  0.7816164E-02  0.1300439E+00
        -11   -1    0    0    0    0  0.00000000000E+00  0.00000000000E+00  0.45593999997E+02  0.45594000000E+02  0.51100000000E-03 0.  1.
         11   -1    0    0    0    0 -0.00000000000E+00 -0.00000000000E+00 -0.45593999997E+02  0.45594000000E+02  0.51100000000E-03 0. -1.
    9900012    2    1    2    0    0  0.18287304632E+02 -0.92272014872E+01 -0.35122622089E+02  0.50528863998E+02  0.30000012609E+02 0.  0.
        -12    1    1    2    0    0 -0.18287304632E+02  0.92272014872E+01  0.35122622089E+02  0.40659136002E+02  0.00000000000E+00 0.  1.
         11    1    3    3    0    0  0.16824691027E+02 -0.87720836398E+01 -0.26627143351E+02  0.32695939241E+02  0.51100000000E-03 0. -1.
        -11    1    3    3    0    0  0.82889599108E+01  0.16484036438E+01 -0.36767395626E+01  0.92164258282E+01  0.51100000000E-03 0.  1.
        -12    1    3    3    0    0 -0.68263463060E+01 -0.21035214912E+01 -0.48187391760E+01  0.86164989293E+01  0.00000000000E+00 0.  1.
</event>
<event>
 7    1  0.6857839E-013  0.5052886E+02  0.7816164E-02  0.1300439E+00
        -11   -1    0    0    0    0  0.00000000000E+00  0.00000000000E+00  0.45593999997E+02  0.45594000000E+02  0.51100000000E-03 0.  1.
         11   -1    0    0    0    0 -0.00000000000E+00 -0.00000000000E+00 -0.45593999997E+02  0.45594000000E+02  0.51100000000E-03 0. -1.
    9900012    2    1    2    0    0 -0.16192458429E+02  0.13512343225E+02 -0.34761853836E+02  0.50528860665E+02  0.30000002476E+02 0.  0.
        -12    1    1    2    0    0  0.16192458429E+02 -0.13512343225E+02  0.34761853836E+02  0.40659139335E+02  0.00000000000E+00 0.  1.
         11    1    3    3    0    0 -0.11907830405E+02 -0.11585876410E+01 -0.22023972890E+02  0.25063801236E+02  0.51100000000E-03 0. -1.
        -11    1    3    3    0    0 -0.26138800361E+01 -0.23852175399E+01  0.79683454999E+00  0.36271996247E+01  0.51100000000E-03 0.  1.
         12    1    3    3    0    0 -0.16707479876E+01  0.17056148405E+02 -0.13534715496E+02  0.21837859804E+02  0.00000000000E+00 0. -1.
</event>
<event>
 7    1  0.6857839E-013  0.5052885E+02  0.7816164E-02  0.1300439E+00
        -11   -1    0    0    0    0  0.00000000000E+00  0.00000000000E+00  0.45593999997E+02  0.45594000000E+02  0.51100000000E-03 0. -1.
         11   -1    0    0    0    0 -0.00000000000E+00 -0.00000000000E+00 -0.45593999997E+02  0.45594000000E+02  0.51100000000E-03 0.  1.
    9900012    2    1    2    0    0  0.24761153128E+02 -0.25819322447E+02  0.19323940334E+02  0.50528846223E+02  0.29999958579E+02 0.  0.
        -12    1    1    2    0    0 -0.24761153128E+02  0.25819322447E+02 -0.19323940334E+02  0.40659153777E+02  0.00000000000E+00 0.  1.
         11    1    3    3    0    0 -0.13348458231E+01 -0.31224294810E+00 -0.13740507706E+01  0.19409597655E+01  0.51100000000E-03 0. -1.
        -11    1    3    3    0    0  0.16963105103E+02 -0.12944193338E+02 -0.16179278726E+01  0.21398989854E+02  0.51100000000E-03 0.  1.
         12    1    3    3    0    0  0.91328938477E+01 -0.12562886161E+02  0.22315918977E+02  0.27188896604E+02  0.00000000000E+00 0. -1.
</event>
<event>
 7    1  0.6857839E-013  0.5052885E+02  0.7816164E-02  0.1300439E+00
        -11   -1    0    0    0    0  0.00000000000E+00  0.00000000000E+00  0.45593999997E+02  0.45594000000E+02  0.51100000000E-03 0.  1.
         11   -1    0    0    0    0 -0.00000000000E+00 -0.00000000000E+00 -0.45593999997E+02  0.45594000000E+02  0.51100000000E-03 0. -1.
    9900012    2    1    2    0    0  0.19247129225E+02  0.77486667701E+01 -0.34966739556E+02  0.50528847337E+02  0.29999961965E+02 0.  0.
        -12    1    1    2    0    0 -0.19247129225E+02 -0.77486667701E+01  0.34966739556E+02  0.40659152663E+02  0.00000000000E+00 0.  1.
         11    1    3    3    0    0  0.23280041891E+01  0.97659607011E+01 -0.97773507213E+01  0.14013928047E+02  0.51100000000E-03 0. -1.
        -11    1    3    3    0    0  0.14922806643E+02  0.73269901419E+01 -0.18371569134E+02  0.24776793484E+02  0.51100000000E-03 0.  1.
         12    1    3    3    0    0  0.19963183923E+01 -0.93442840728E+01 -0.68178197005E+01  0.11738125806E+02  0.00000000000E+00 0. -1.
</event>
<event>
 7    1  0.6857839E-013  0.5052886E+02  0.7816164E-02  0.1300439E+00
        -11   -1    0    0    0    0  0.00000000000E+00  0.00000000000E+00  0.45593999997E+02  0.45594000000E+02  0.51100000000E-03 0. -1.
         11   -1    0    0    0    0 -0.00000000000E+00 -0.00000000000E+00 -0.45593999997E+02  0.45594000000E+02  0.51100000000E-03 0.  1.
    9900012    2    1    2    0    0 -0.11525376517E+02 -0.37350303795E+02 -0.11193135643E+02  0.50528858556E+02  0.29999996068E+02 0.  0.
        -12    1    1    2    0    0  0.11525376517E+02  0.37350303795E+02  0.11193135643E+02  0.40659141444E+02  0.00000000000E+00 0.  1.
         11    1    3    3    0    0  0.12435702950E+01 -0.13539874910E+01 -0.29125621914E+01  0.34442369234E+01  0.51100000000E-03 0. -1.
        -11    1    3    3    0    0 -0.39652894891E+01 -0.51369185088E+01  0.86405942195E+01  0.10806077976E+02  0.51100000000E-03 0.  1.
         12    1    3    3    0    0 -0.88036573231E+01 -0.30859397795E+02 -0.16921167671E+02  0.36278543657E+02  0.00000000000E+00 0. -1.
</event>
<event>
 7    1  0.6857839E-013  0.5052886E+02  0.7816164E-02  0.1300439E+00
        -11   -1    0    0    0    0  0.00000000000E+00  0.00000000000E+00  0.45593999997E+02  0.45594000000E+02  0.51100000000E-03 0.  1.
         11   -1    0    0    0    0 -0.00000000000E+00 -0.00000000000E+00 -0.45593999997E+02  0.45594000000E+02  0.51100000000E-03 0. -1.
    9900012    2    1    2    0    0 -0.22071275765E+02 -0.15387880279E+02 -0.30483401135E+02  0.50528858124E+02  0.29999994753E+02 0.  0.
        -12    1    1    2    0    0  0.22071275765E+02  0.15387880279E+02  0.30483401135E+02  0.40659141876E+02  0.00000000000E+00 0.  1.
         11    1    3    3    0    0 -0.21328921956E+01 -0.10166055998E+02 -0.16263472647E+02  0.19297628519E+02  0.51100000000E-03 0. -1.
        -11    1    3    3    0    0 -0.20337745021E+02 -0.93908205679E+01 -0.15015753037E+02  0.26968207634E+02  0.51100000000E-03 0.  1.
         12    1    3    3    0    0  0.39936145201E+00  0.41689962865E+01  0.79582454916E+00  0.42630219703E+01  0.00000000000E+00 0. -1.
</event>
<event>
 7    1  0.6857839E-013  0.5052887E+02  0.7816164E-02  0.1300439E+00
        -11   -1    0    0    0    0  0.00000000000E+00  0.00000000000E+00  0.45593999997E+02  0.45594000000E+02  0.51100000000E-03 0.  1.
         11   -1    0    0    0    0 -0.00000000000E+00 -0.00000000000E+00 -0.45593999997E+02  0.45594000000E+02  0.51100000000E-03 0. -1.
    9900012    2    1    2    0    0 -0.78427071237E+01  0.39478528574E+02 -0.57535131375E+01  0.50528865887E+02  0.30000018349E+02 0.  0.
        -12    1    1    2    0    0  0.78427071237E+01 -0.39478528574E+02  0.57535131375E+01  0.40659134113E+02  0.00000000000E+00 0.  1.
         11    1    3    3    0    0  0.34075040225E+01  0.16766734178E+02 -0.35453042867E+01  0.17472940262E+02  0.51100000000E-03 0. -1.
        -11    1    3    3    0    0 -0.14668864198E+02  0.21922807347E+02  0.32397627055E+01  0.26575950058E+02  0.51100000000E-03 0.  1.
         12    1    3    3    0    0  0.34186530521E+01  0.78898704871E+00 -0.54479715563E+01  0.64799755657E+01  0.00000000000E+00 0. -1.
</event>
<event>
 7    1  0.6857839E-013  0.5052886E+02  0.7816164E-02  0.1300439E+00
        -11   -1    0    0    0    0  0.00000000000E+00  0.00000000000E+00  0.45593999997E+02  0.45594000000E+02  0.51100000000E-03 0.  1.
         11   -1    0    0    0    0 -0.00000000000E+00 -0.00000000000E+00 -0.45593999997E+02  0.45594000000E+02  0.51100000000E-03 0. -1.
    9900012    2    1    2    0    0 -0.21737608802E+02  0.13669308123E+02 -0.31524472894E+02  0.50528855737E+02  0.29999987497E+02 0.  0.
        -12    1    1    2    0    0  0.21737608802E+02 -0.13669308123E+02  0.31524472894E+02  0.40659144263E+02  0.00000000000E+00 0.  1.
         11    1    3    3    0    0 -0.51151741133E+01  0.12491266421E+01 -0.18493751757E+02  0.19228733133E+02  0.51100000000E-03 0. -1.
        -11    1    3    3    0    0 -0.15823020847E+02  0.16847431824E+02 -0.13516734326E+02  0.26775101399E+02  0.51100000000E-03 0.  1.
         12    1    3    3    0    0 -0.79941384199E+00 -0.44272503429E+01  0.48601318969E+00  0.45250212055E+01  0.00000000000E+00 0. -1.
</event>
<event>
 7    1  0.6857839E-013  0.5052886E+02  0.7816164E-02  0.1300439E+00
        -11   -1    0    0    0    0  0.00000000000E+00  0.00000000000E+00  0.45593999997E+02  0.45594000000E+02  0.51100000000E-03 0.  1.
         11   -1    0    0    0    0 -0.00000000000E+00 -0.00000000000E+00 -0.45593999997E+02  0.45594000000E+02  0.51100000000E-03 0. -1.
    9900012    2    1    2    0    0 -0.90688982989E+01 -0.21401376304E+02 -0.33360184445E+02  0.50528859204E+02  0.29999998038E+02 0.  0.
        -12    1    1    2    0    0  0.90688982989E+01  0.21401376304E+02  0.33360184445E+02  0.40659140796E+02  0.00000000000E+00 0.  1.
         11    1    3    3    0    0 -0.98793645226E+01 -0.13627518727E+02 -0.10296120762E+02  0.19731224316E+02  0.51100000000E-03 0. -1.
        -11    1    3    3    0    0 -0.58731781627E+01  0.21019735541E+01 -0.19271624786E+01  0.65288950086E+01  0.51100000000E-03 0.  1.
         12    1    3    3    0    0  0.66836443863E+01 -0.98758311305E+01 -0.21136901205E+02  0.24268739879E+02  0.00000000000E+00 0. -1.
</event>
<event>
 7    1  0.6857839E-013  0.5052886E+02  0.7816164E-02  0.1300439E+00
        -11   -1    0    0    0    0  0.00000000000E+00  0.00000000000E+00  0.45593999997E+02  0.45594000000E+02  0.51100000000E-03 0.  1.
         11   -1    0    0    0    0 -0.00000000000E+00 -0.00000000000E+00 -0.45593999997E+02  0.45594000000E+02  0.51100000000E-03 0. -1.
    9900012    2    1    2    0    0 -0.26485879886E+02  0.79155273062E+01 -0.29816244666E+02  0.50528857709E+02  0.29999993492E+02 0.  0.
        -12    1    1    2    0    0  0.26485879886E+02 -0.79155273062E+01  0.29816244666E+02  0.40659142291E+02  0.00000000000E+00 0.  1.
         11    1    3    3    0    0 -0.13619418603E+02  0.36593439895E+01 -0.79449808992E+01  0.16186478408E+02  0.51100000000E-03 0. -1.
        -11    1    3    3    0    0 -0.15502894075E+02  0.53402695056E+01 -0.48714793827E+01  0.17105248164E+02  0.51100000000E-03 0.  1.
         12    1    3    3    0    0  0.26364327923E+01 -0.10840861889E+01 -0.16999784384E+02  0.17237131137E+02  0.00000000000E+00 0. -1.
</event>
<event>
 7    1  0.6857839E-013  0.5052886E+02  0.7816164E-02  0.1300439E+00
        -11   -1    0    0    0    0  0.00000000000E+00  0.00000000000E+00  0.45593999997E+02  0.45594000000E+02  0.51100000000E-03 0.  1.
         11   -1    0    0    0    0 -0.00000000000E+00 -0.00000000000E+00 -0.45593999997E+02  0.45594000000E+02  0.51100000000E-03 0. -1.
    9900012    2    1    2    0    0  0.35362090131E+02 -0.19263675797E+02 -0.56213001954E+01  0.50528860320E+02  0.30000001429E+02 0.  0.
        -12    1    1    2    0    0 -0.35362090131E+02  0.19263675797E+02  0.56213001954E+01  0.40659139680E+02  0.00000000000E+00 0.  1.
         11    1    3    3    0    0  0.17500671761E+02  0.28794922048E+01 -0.75920902964E+01  0.19292610574E+02  0.51100000000E-03 0. -1.
        -11    1    3    3    0    0  0.90314072890E+01 -0.11175690508E+02 -0.53918876421E+01  0.15347143987E+02  0.51100000000E-03 0.  1.
        -12    1    3    3    0    0  0.88300110807E+01 -0.10967477494E+02  0.73626777431E+01  0.15889105759E+02  0.00000000000E+00 0.  1.
</event>
<event>
 7    1  0.6857839E-013  0.5052887E+02  0.7816164E-02  0.1300439E+00
        -11   -1    0    0    0    0  0.00000000000E+00  0.00000000000E+00  0.45593999997E+02  0.45594000000E+02  0.51100000000E-03 0.  1.
         11   -1    0    0    0    0 -0.00000000000E+00 -0.00000000000E+00 -0.45593999997E+02  0.45594000000E+02  0.51100000000E-03 0. -1.
    9900012    2    1    2    0    0  0.26596703726E+02 -0.47175252319E+01 -0.30389562109E+02  0.50528865988E+02  0.30000018657E+02 0.  0.
        -12    1    1    2    0    0 -0.26596703726E+02  0.47175252319E+01  0.30389562109E+02  0.40659134012E+02  0.00000000000E+00 0.  1.
         11    1    3    3    0    0  0.23062871396E+02 -0.94898963397E+01 -0.16747532990E+02  0.30040539794E+02  0.51100000000E-03 0. -1.
        -11    1    3    3    0    0  0.44167848641E+00 -0.25695518167E+01  0.17615885217E+01  0.31465649215E+01  0.51100000000E-03 0.  1.
         12    1    3    3    0    0  0.30921538435E+01  0.73419229245E+01 -0.15403617641E+02  0.17341761273E+02  0.00000000000E+00 0. -1.
</event>
<event>
 7    1  0.6857839E-013  0.5052886E+02  0.7816164E-02  0.1300439E+00
        -11   -1    0    0    0    0  0.00000000000E+00  0.00000000000E+00  0.45593999997E+02  0.45594000000E+02  0.51100000000E-03 0. -1.
         11   -1    0    0    0    0 -0.00000000000E+00 -0.00000000000E+00 -0.45593999997E+02  0.45594000000E+02  0.51100000000E-03 0.  1.
    9900012    2    1    2    0    0 -0.80753118563E+01 -0.28317127526E+02  0.28037386486E+02  0.50528863095E+02  0.30000009865E+02 0.  0.
        -12    1    1    2    0    0  0.80753118563E+01  0.28317127526E+02 -0.28037386486E+02  0.40659136905E+02  0.00000000000E+00 0.  1.
         11    1    3    3    0    0 -0.66366533546E+01 -0.16362738393E+02  0.58397022487E+01  0.18598024037E+02  0.51100000000E-03 0. -1.
        -11    1    3    3    0    0 -0.97726536230E+01 -0.35223059857E+01  0.64806963658E+01  0.12243807575E+02  0.51100000000E-03 0.  1.
         12    1    3    3    0    0  0.83339951213E+01 -0.84320831473E+01  0.15716987871E+02  0.19687031484E+02  0.00000000000E+00 0. -1.
</event>
<event>
 7    1  0.6857839E-013  0.5052884E+02  0.7816164E-02  0.1300439E+00
        -11   -1    0    0    0    0  0.00000000000E+00  0.00000000000E+00  0.45593999997E+02  0.45594000000E+02  0.51100000000E-03 0.  1.
         11   -1    0    0    0    0 -0.00000000000E+00 -0.00000000000E+00 -0.45593999997E+02  0.45594000000E+02  0.51100000000E-03 0. -1.
    9900012    2    1    2    0    0  0.83192502555E+01 -0.14922105507E+02 -0.36895634902E+02  0.50528843191E+02  0.29999949364E+02 0.  0.
        -12    1    1    2    0    0 -0.83192502555E+01  0.14922105507E+02  0.36895634902E+02  0.40659156809E+02  0.00000000000E+00 0.  1.
         11    1    3    3    0    0  0.13797259090E+02 -0.84644736895E+01 -0.21498557232E+02  0.26910957556E+02  0.51100000000E-03 0. -1.
        -11    1    3    3    0    0  0.53592100526E+00 -0.10195737978E+02 -0.12025764845E+02  0.15775275104E+02  0.51100000000E-03 0.  1.
        -12    1    3    3    0    0 -0.60139298394E+01  0.37381061609E+01 -0.33713128246E+01  0.78426105312E+01  0.00000000000E+00 0.  1.
</event>
<event>
 7    1  0.6857839E-013  0.5052888E+02  0.7816164E-02  0.1300439E+00
        -11   -1    0    0    0    0  0.00000000000E+00  0.00000000000E+00  0.45593999997E+02  0.45594000000E+02  0.51100000000E-03 0.  1.
         11   -1    0    0    0    0 -0.00000000000E+00 -0.00000000000E+00 -0.45593999997E+02  0.45594000000E+02  0.51100000000E-03 0. -1.
    9900012    2    1    2    0    0  0.23227453491E+02  0.14300605899E+02 -0.30151985278E+02  0.50528878748E+02  0.30000057442E+02 0.  0.
        -12    1    1    2    0    0 -0.23227453491E+02 -0.14300605899E+02  0.30151985278E+02  0.40659121252E+02  0.00000000000E+00 0.  1.
         11    1    3    3    0    0  0.49408582942E+01  0.62685206877E+01 -0.36755294441E+01  0.87872606227E+01  0.51100000000E-03 0. -1.
        -11    1    3    3    0    0 -0.30549054599E+01  0.65583440260E+01 -0.16742444031E+02  0.18238798099E+02  0.51100000000E-03 0.  1.
        -12    1    3    3    0    0  0.21341500657E+02  0.14737411857E+01 -0.97340118033E+01  0.23502820026E+02  0.00000000000E+00 0.  1.
</event>
<event>
 7    1  0.6857839E-013  0.5052886E+02  0.7816164E-02  0.1300439E+00
        -11   -1    0    0    0    0  0.00000000000E+00  0.00000000000E+00  0.45593999997E+02  0.45594000000E+02  0.51100000000E-03 0. -1.
         11   -1    0    0    0    0 -0.00000000000E+00 -0.00000000000E+00 -0.45593999997E+02  0.45594000000E+02  0.51100000000E-03 0.  1.
    9900012    2    1    2    0    0  0.18746207911E+01 -0.39287600349E+02  0.10302211276E+02  0.50528864477E+02  0.30000014064E+02 0.  0.
        -12    1    1    2    0    0 -0.18746207911E+01  0.39287600349E+02 -0.10302211276E+02  0.40659135523E+02  0.00000000000E+00 0.  1.
         11    1    3    3    0    0  0.42601921995E+01 -0.35399520405E+02  0.13645908673E+02  0.38177036374E+02  0.51100000000E-03 0. -1.
        -11    1    3    3    0    0  0.86013775463E+00 -0.27341132888E-01  0.36382319209E+01  0.37386249165E+01  0.51100000000E-03 0.  1.
        -12    1    3    3    0    0 -0.32457091630E+01 -0.38607388109E+01 -0.69819293180E+01  0.86132031869E+01  0.00000000000E+00 0.  1.
</event>
<event>
 7    1  0.6857839E-013  0.5052886E+02  0.7816164E-02  0.1300439E+00
        -11   -1    0    0    0    0  0.00000000000E+00  0.00000000000E+00  0.45593999997E+02  0.45594000000E+02  0.51100000000E-03 0. -1.
         11   -1    0    0    0    0 -0.00000000000E+00 -0.00000000000E+00 -0.45593999997E+02  0.45594000000E+02  0.51100000000E-03 0.  1.
    9900012    2    1    2    0    0 -0.35859265429E+02 -0.12223519521E+02 -0.14760221215E+02  0.50528862320E+02  0.30000007507E+02 0.  0.
        -12    1    1    2    0    0  0.35859265429E+02  0.12223519521E+02  0.14760221215E+02  0.40659137680E+02  0.00000000000E+00 0.  1.
         11    1    3    3    0    0 -0.91543358733E+01 -0.10182231499E+02 -0.75365661981E+00  0.13713048609E+02  0.51100000000E-03 0.  1.
        -11    1    3    3    0    0 -0.23604754337E+02  0.21094266614E+01 -0.20526457390E+01  0.23787548486E+02  0.51100000000E-03 0. -1.
         12    1    3    3    0    0 -0.31001752188E+01 -0.41507146826E+01 -0.11953918856E+02  0.13028265225E+02  0.00000000000E+00 0. -1.
</event>
<event>
 7    1  0.6857839E-013  0.5052885E+02  0.7816164E-02  0.1300439E+00
        -11   -1    0    0    0    0  0.00000000000E+00  0.00000000000E+00  0.45593999997E+02  0.45594000000E+02  0.51100000000E-03 0.  1.
         11   -1    0    0    0    0 -0.00000000000E+00 -0.00000000000E+00 -0.45593999997E+02  0.45594000000E+02  0.51100000000E-03 0. -1.
    9900012    2    1    2    0    0  0.57890728380E+01  0.30635614041E+02 -0.26098125633E+02  0.50528851294E+02  0.29999973993E+02 0.  0.
        -12    1    1    2    0    0 -0.57890728380E+01 -0.30635614041E+02  0.26098125633E+02  0.40659148706E+02  0.00000000000E+00 0.  1.
         11    1    3    3    0    0  0.81555979255E+01  0.16645253830E+02 -0.94859210046E+01  0.20822126456E+02  0.51100000000E-03 0. -1.
        -11    1    3    3    0    0  0.62872912106E+01 -0.82679294987E-02 -0.10325976256E+02  0.12089494821E+02  0.51100000000E-03 0.  1.
        -12    1    3    3    0    0 -0.86538162982E+01  0.13998628140E+02 -0.62862283721E+01  0.17617230017E+02  0.00000000000E+00 0.  1.
</event>
<event>
 7    1  0.6857839E-013  0.5052886E+02  0.7816164E-02  0.1300439E+00
        -11   -1    0    0    0    0  0.00000000000E+00  0.00000000000E+00  0.45593999997E+02  0.45594000000E+02  0.51100000000E-03 0.  1.
         11   -1    0    0    0    0 -0.00000000000E+00 -0.00000000000E+00 -0.45593999997E+02  0.45594000000E+02  0.51100000000E-03 0. -1.
    9900012    2    1    2    0    0  0.23698646516E+02  0.29064466193E+02 -0.15709768508E+02  0.50528857506E+02  0.29999992876E+02 0.  0.
        -12    1    1    2    0    0 -0.23698646516E+02 -0.29064466193E+02  0.15709768508E+02  0.40659142494E+02  0.00000000000E+00 0.  1.
         11    1    3    3    0    0  0.31203653544E+01  0.78611505748E+01 -0.48521416734E+01  0.97507767580E+01  0.51100000000E-03 0. -1.
        -11    1    3    3    0    0 -0.16122627003E+01  0.89966335878E+01  0.54634141615E+01  0.10648366142E+02  0.51100000000E-03 0.  1.
         12    1    3    3    0    0  0.22190543862E+02  0.12206682031E+02 -0.16321040996E+02  0.30129714606E+02  0.00000000000E+00 0. -1.
</event>
<event>
 7    1  0.6857839E-013  0.5052886E+02  0.7816164E-02  0.1300439E+00
        -11   -1    0    0    0    0  0.00000000000E+00  0.00000000000E+00  0.45593999997E+02  0.45594000000E+02  0.51100000000E-03 0.  1.
         11   -1    0    0    0    0 -0.00000000000E+00 -0.00000000000E+00 -0.45593999997E+02  0.45594000000E+02  0.51100000000E-03 0. -1.
    9900012    2    1    2    0    0 -0.26325456932E+02  0.19700872642E+02 -0.23916763883E+02  0.50528860066E+02  0.30000000657E+02 0.  0.
        -12    1    1    2    0    0  0.26325456932E+02 -0.19700872642E+02  0.23916763883E+02  0.40659139934E+02  0.00000000000E+00 0.  1.
         11    1    3    3    0    0  0.89977593518E+00  0.13547547798E+02 -0.33651834551E+01  0.13988213181E+02  0.51100000000E-03 0. -1.
        -11    1    3    3    0    0 -0.71275173680E+01  0.37631906075E+01 -0.53928745466E+00  0.80779910002E+01  0.51100000000E-03 0.  1.
         12    1    3    3    0    0 -0.20097715499E+02  0.23901342366E+01 -0.20012292973E+02  0.28462655885E+02  0.00000000000E+00 0. -1.
</event>
<event>
 7    1  0.6857839E-013  0.5052886E+02  0.7816164E-02  0.1300439E+00
        -11   -1    0    0    0    0  0.00000000000E+00  0.00000000000E+00  0.45593999997E+02  0.45594000000E+02  0.51100000000E-03 0.  1.
         11   -1    0    0    0    0 -0.00000000000E+00 -0.00000000000E+00 -0.45593999997E+02  0.45594000000E+02  0.51100000000E-03 0. -1.
    9900012    2    1    2    0    0 -0.90907290191E+00 -0.27266374978E+02 -0.30147699760E+02  0.50528863034E+02  0.30000009678E+02 0.  0.
        -12    1    1    2    0    0  0.90907290191E+00  0.27266374978E+02  0.30147699760E+02  0.40659136966E+02  0.00000000000E+00 0.  1.
         11    1    3    3    0    0 -0.11578082218E+02 -0.12082204888E+02 -0.13489723928E+02  0.21494285630E+02  0.51100000000E-03 0. -1.
        -11    1    3    3    0    0 -0.11747580208E+01 -0.76215460786E+01 -0.65765142017E+00  0.77395430541E+01  0.51100000000E-03 0.  1.
         12    1    3    3    0    0  0.11843767337E+02 -0.75626240112E+01 -0.16000324412E+02  0.21295034350E+02  0.00000000000E+00 0. -1.
</event>
<event>
 7    1  0.6857839E-013  0.5052886E+02  0.7816164E-02  0.1300439E+00
        -11   -1    0    0    0    0  0.00000000000E+00  0.00000000000E+00  0.45593999997E+02  0.45594000000E+02  0.51100000000E-03 0.  1.
         11   -1    0    0    0    0 -0.00000000000E+00 -0.00000000000E+00 -0.45593999997E+02  0.45594000000E+02  0.51100000000E-03 0. -1.
    9900012    2    1    2    0    0  0.15205220373E+02  0.33353147263E+02 -0.17593589712E+02  0.50528861324E+02  0.30000004479E+02 0.  0.
        -12    1    1    2    0    0 -0.15205220373E+02 -0.33353147263E+02  0.17593589712E+02  0.40659138676E+02  0.00000000000E+00 0.  1.
         11    1    3    3    0    0  0.14162323690E+02  0.11374833228E+02 -0.11344335375E+01  0.18200142389E+02  0.51100000000E-03 0. -1.
        -11    1    3    3    0    0  0.50734343798E+01  0.13351977669E+02 -0.11883828634E+01  0.14332735195E+02  0.51100000000E-03 0.  1.
        -12    1    3    3    0    0 -0.40305376971E+01  0.86263363659E+01 -0.15270773311E+02  0.17995983739E+02  0.00000000000E+00 0.  1.
</event>
<event>
 7    1  0.6857839E-013  0.5052885E+02  0.7816164E-02  0.1300439E+00
        -11   -1    0    0    0    0  0.00000000000E+00  0.00000000000E+00  0.45593999997E+02  0.45594000000E+02  0.51100000000E-03 0.  1.
         11   -1    0    0    0    0 -0.00000000000E+00 -0.00000000000E+00 -0.45593999997E+02  0.45594000000E+02  0.51100000000E-03 0. -1.
    9900012    2    1    2    0    0  0.26348085777E+02  0.55937988867E+01 -0.30457422251E+02  0.50528846292E+02  0.29999958790E+02 0.  0.
        -12    1    1    2    0    0 -0.26348085777E+02 -0.55937988867E+01  0.30457422251E+02  0.40659153708E+02  0.00000000000E+00 0.  1.
         11    1    3    3    0    0  0.87673797719E+01  0.80613732496E+01 -0.45396000601E+01  0.12746005480E+02  0.51100000000E-03 0. -1.
        -11    1    3    3    0    0  0.18976129532E+02 -0.81834430692E-02 -0.96834655522E+01  0.21304062156E+02  0.51100000000E-03 0.  1.
        -12    1    3    3    0    0 -0.13954235276E+01 -0.24593909198E+01 -0.16234356638E+02  0.16478778656E+02  0.00000000000E+00 0.  1.
</event>
<event>
 7    1  0.6857839E-013  0.5052886E+02  0.7816164E-02  0.1300439E+00
        -11   -1    0    0    0    0  0.00000000000E+00  0.00000000000E+00  0.45593999997E+02  0.45594000000E+02  0.51100000000E-03 0.  1.
         11   -1    0    0    0    0 -0.00000000000E+00 -0.00000000000E+00 -0.45593999997E+02  0.45594000000E+02  0.51100000000E-03 0. -1.
    9900012    2    1    2    0    0  0.15212829684E+02  0.73355649447E+01 -0.36985473273E+02  0.50528856708E+02  0.29999990449E+02 0.  0.
        -12    1    1    2    0    0 -0.15212829684E+02 -0.73355649447E+01  0.36985473273E+02  0.40659143292E+02  0.00000000000E+00 0.  1.
         11    1    3    3    0    0  0.42603147546E+01 -0.16237383562E+01 -0.18696780175E+02  0.19244645936E+02  0.51100000000E-03 0. -1.
        -11    1    3    3    0    0  0.11017749393E+02  0.14754941688E+02 -0.17555550078E+02  0.25442021238E+02  0.51100000000E-03 0.  1.
        -12    1    3    3    0    0 -0.65234463985E-01 -0.57956383871E+01 -0.73314302072E+00  0.58421895329E+01  0.00000000000E+00 0.  1.
</event>
<event>
 7    1  0.6857839E-013  0.5052885E+02  0.7816164E-02  0.1300439E+00
        -11   -1    0    0    0    0  0.00000000000E+00  0.00000000000E+00  0.45593999997E+02  0.45594000000E+02  0.51100000000E-03 0.  1.
         11   -1    0    0    0    0 -0.00000000000E+00 -0.00000000000E+00 -0.45593999997E+02  0.45594000000E+02  0.51100000000E-03 0. -1.
    9900012    2    1    2    0    0  0.86269456128E+01  0.35933385683E+02 -0.16956823457E+02  0.50528852702E+02  0.29999978271E+02 0.  0.
        -12    1    1    2    0    0 -0.86269456128E+01 -0.35933385683E+02  0.16956823457E+02  0.40659147298E+02  0.00000000000E+00 0.  1.
         11    1    3    3    0    0  0.83335235209E+01  0.13246289181E+02 -0.19753051125E+02  0.25201087682E+02  0.51100000000E-03 0. -1.
        -11    1    3    3    0    0  0.24723012877E+01  0.14056054783E+00  0.73257314282E+00  0.25823815744E+01  0.51100000000E-03 0.  1.
         12    1    3    3    0    0 -0.21788791958E+01  0.22546535954E+02  0.20636545244E+01  0.22745383445E+02  0.00000000000E+00 0. -1.
</event>
<event>
 7    1  0.6857839E-013  0.5052884E+02  0.7816164E-02  0.1300439E+00
        -11   -1    0    0    0    0  0.00000000000E+00  0.00000000000E+00  0.45593999997E+02  0.45594000000E+02  0.51100000000E-03 0.  1.
         11   -1    0    0    0    0 -0.00000000000E+00 -0.00000000000E+00 -0.45593999997E+02  0.45594000000E+02  0.51100000000E-03 0. -1.
    9900012    2    1    2    0    0 -0.21445208198E+01 -0.37653795452E+02 -0.15190775890E+02  0.50528844160E+02  0.29999952309E+02 0.  0.
        -12    1    1    2    0    0  0.21445208198E+01  0.37653795452E+02  0.15190775890E+02  0.40659155840E+02  0.00000000000E+00 0.  1.
         11    1    3    3    0    0  0.14715865301E+01 -0.21015835478E+02 -0.74226897832E+01  0.22336679065E+02  0.51100000000E-03 0. -1.
        -11    1    3    3    0    0  0.82860083898E+01 -0.50189510583E+01 -0.61630168532E+01  0.11481749943E+02  0.51100000000E-03 0.  1.
         12    1    3    3    0    0 -0.11902115740E+02 -0.11619008915E+02 -0.16050692541E+01  0.16710415152E+02  0.00000000000E+00 0. -1.
</event>
<event>
 7    1  0.8041413E-013  0.5052886E+02  0.7816164E-02  0.1300439E+00
        -11   -1    0    0    0    0  0.00000000000E+00  0.00000000000E+00  0.45593999997E+02  0.45594000000E+02  0.51100000000E-03 0. -1.
         11   -1    0    0    0    0 -0.00000000000E+00 -0.00000000000E+00 -0.45593999997E+02  0.45594000000E+02  0.51100000000E-03 0.  1.
    9900012    2    1    2    0    0  0.23460509385E+02  0.14957417163E+01  0.33174284823E+02  0.50528856902E+02  0.29999991041E+02 0.  0.
        -12    1    1    2    0    0 -0.23460509385E+02 -0.14957417163E+01 -0.33174284823E+02  0.40659143098E+02  0.00000000000E+00 0.  1.
         11    1    3    3    0    0  0.62310937036E+01  0.61026572180E+01  0.93241280779E+01  0.12767471110E+02  0.51100000000E-03 0. -1.
        -11    1    3    3    0    0  0.15701748188E+02  0.22203821156E+01  0.34964330808E+01  0.16238843477E+02  0.51100000000E-03 0.  1.
        -12    1    3    3    0    0  0.15276674928E+01 -0.68272976173E+01  0.20353723665E+02  0.21522542316E+02  0.00000000000E+00 0.  1.
</event>
<event>
 7    1  0.6857839E-013  0.5052886E+02  0.7816164E-02  0.1300439E+00
        -11   -1    0    0    0    0  0.00000000000E+00  0.00000000000E+00  0.45593999997E+02  0.45594000000E+02  0.51100000000E-03 0.  1.
         11   -1    0    0    0    0 -0.00000000000E+00 -0.00000000000E+00 -0.45593999997E+02  0.45594000000E+02  0.51100000000E-03 0. -1.
    9900012    2    1    2    0    0  0.28362896653E+02 -0.64067804916E+01 -0.28419450765E+02  0.50528856814E+02  0.29999990773E+02 0.  0.
        -12    1    1    2    0    0 -0.28362896653E+02  0.64067804916E+01  0.28419450765E+02  0.40659143186E+02  0.00000000000E+00 0.  1.
         11    1    3    3    0    0  0.17450463216E+01  0.30963724916E+01 -0.62798421932E+01  0.72158940890E+01  0.51100000000E-03 0. -1.
        -11    1    3    3    0    0  0.29316187053E+02 -0.33358640094E+01 -0.13737349733E+02  0.32546606427E+02  0.51100000000E-03 0.  1.
         12    1    3    3    0    0 -0.26983367209E+01 -0.61672889738E+01 -0.84022588383E+01  0.10766356298E+02  0.00000000000E+00 0. -1.
</event>
<event>
 7    1  0.6857839E-013  0.5052887E+02  0.7816164E-02  0.1300439E+00
        -11   -1    0    0    0    0  0.00000000000E+00  0.00000000000E+00  0.45593999997E+02  0.45594000000E+02  0.51100000000E-03 0. -1.
         11   -1    0    0    0    0 -0.00000000000E+00 -0.00000000000E+00 -0.45593999997E+02  0.45594000000E+02  0.51100000000E-03 0.  1.
    9900012    2    1    2    0    0 -0.13387665629E+02 -0.31241971690E+02  0.22313097264E+02  0.50528871928E+02  0.30000036712E+02 0.  0.
        -12    1    1    2    0    0  0.13387665629E+02  0.31241971690E+02 -0.22313097264E+02  0.40659128072E+02  0.00000000000E+00 0.  1.
         11    1    3    3    0    0 -0.19382698165E+01  0.10144835069E+01 -0.22819450086E+01  0.31612244385E+01  0.51100000000E-03 0. -1.
        -11    1    3    3    0    0  0.58269001046E+01 -0.11040781030E+02  0.39555077860E+01  0.13095711232E+02  0.51100000000E-03 0.  1.
         12    1    3    3    0    0 -0.17276295917E+02 -0.21215674167E+02  0.20639534486E+02  0.34271936257E+02  0.00000000000E+00 0. -1.
</event>
<event>
 7    1  0.6857839E-013  0.5052885E+02  0.7816164E-02  0.1300439E+00
        -11   -1    0    0    0    0  0.00000000000E+00  0.00000000000E+00  0.45593999997E+02  0.45594000000E+02  0.51100000000E-03 0.  1.
         11   -1    0    0    0    0 -0.00000000000E+00 -0.00000000000E+00 -0.45593999997E+02  0.45594000000E+02  0.51100000000E-03 0. -1.
    9900012    2    1    2    0    0 -0.18906565442E+02 -0.21365777015E+02 -0.28969147937E+02  0.50528853717E+02  0.29999981359E+02 0.  0.
        -12    1    1    2    0    0  0.18906565442E+02  0.21365777015E+02  0.28969147937E+02  0.40659146283E+02  0.00000000000E+00 0.  1.
         11    1    3    3    0    0 -0.52507812709E+01  0.34036361513E+01 -0.12513585421E+01  0.63813275631E+01  0.51100000000E-03 0. -1.
        -11    1    3    3    0    0 -0.98459591271E+01 -0.63606739627E+01 -0.21247443534E+02  0.24266333497E+02  0.51100000000E-03 0.  1.
         12    1    3    3    0    0 -0.38098250442E+01 -0.18408739203E+02 -0.64703458604E+01  0.19881192657E+02  0.00000000000E+00 0. -1.
</event>
<event>
 7    1  0.6857839E-013  0.5052886E+02  0.7816164E-02  0.1300439E+00
        -11   -1    0    0    0    0  0.00000000000E+00  0.00000000000E+00  0.45593999997E+02  0.45594000000E+02  0.51100000000E-03 0. -1.
         11   -1    0    0    0    0 -0.00000000000E+00 -0.00000000000E+00 -0.45593999997E+02  0.45594000000E+02  0.51100000000E-03 0.  1.
    9900012    2    1    2    0    0 -0.11221796590E+02 -0.26521990842E+02  0.28702285022E+02  0.50528857333E+02  0.29999992349E+02 0.  0.
        -12    1    1    2    0    0  0.11221796590E+02  0.26521990842E+02 -0.28702285022E+02  0.40659142667E+02  0.00000000000E+00 0.  1.
         11    1    3    3    0    0 -0.46060333427E+01  0.19077634051E+01  0.86021681502E+01  0.99424545013E+01  0.51100000000E-03 0. -1.
        -11    1    3    3    0    0  0.54058918859E+01 -0.14928260435E+01  0.18786880081E+01  0.59145300381E+01  0.51100000000E-03 0.  1.
        -12    1    3    3    0    0 -0.12021655133E+02 -0.26936928204E+02  0.18221428864E+02  0.34671872794E+02  0.00000000000E+00 0.  1.
</event>
<event>
 7    1  0.6857839E-013  0.5052886E+02  0.7816164E-02  0.1300439E+00
        -11   -1    0    0    0    0  0.00000000000E+00  0.00000000000E+00  0.45593999997E+02  0.45594000000E+02  0.51100000000E-03 0. -1.
         11   -1    0    0    0    0 -0.00000000000E+00 -0.00000000000E+00 -0.45593999997E+02  0.45594000000E+02  0.51100000000E-03 0.  1.
    9900012    2    1    2    0    0  0.38214315236E+02  0.91607551307E+01  0.10436121470E+02  0.50528856442E+02  0.29999989642E+02 0.  0.
        -12    1    1    2    0    0 -0.38214315236E+02 -0.91607551307E+01 -0.10436121470E+02  0.40659143558E+02  0.00000000000E+00 0.  1.
         11    1    3    3    0    0  0.15902379783E+02  0.11851778737E+01 -0.65697346183E+01  0.17246789341E+02  0.51100000000E-03 0. -1.
        -11    1    3    3    0    0  0.23032638243E+02  0.64336865825E+01  0.97437136760E+01  0.25823142797E+02  0.51100000000E-03 0.  1.
        -12    1    3    3    0    0 -0.72070278952E+00  0.15418906745E+01  0.72621424127E+01  0.74589243048E+01  0.00000000000E+00 0.  1.
</event>
<event>
 7    1  0.6857839E-013  0.5052887E+02  0.7816164E-02  0.1300439E+00
        -11   -1    0    0    0    0  0.00000000000E+00  0.00000000000E+00  0.45593999997E+02  0.45594000000E+02  0.51100000000E-03 0.  1.
         11   -1    0    0    0    0 -0.00000000000E+00 -0.00000000000E+00 -0.45593999997E+02  0.45594000000E+02  0.51100000000E-03 0. -1.
    9900012    2    1    2    0    0 -0.27283870160E+02  0.30124093717E+02  0.11375951881E+01  0.50528871677E+02  0.30000035951E+02 0.  0.
        -12    1    1    2    0    0  0.27283870160E+02 -0.30124093717E+02 -0.11375951881E+01  0.40659128323E+02  0.00000000000E+00 0.  1.
         11    1    3    3    0    0  0.23815461579E+01  0.12613455372E+02 -0.47732128873E+01  0.13695056774E+02  0.51100000000E-03 0. -1.
        -11    1    3    3    0    0 -0.11519419170E+02  0.79330980818E+00  0.40297207989E+00  0.11553732957E+02  0.51100000000E-03 0.  1.
        -12    1    3    3    0    0 -0.18145997147E+02  0.16717328536E+02  0.55078359955E+01  0.25280081946E+02  0.00000000000E+00 0.  1.
</event>
<event>
 7    1  0.6857839E-013  0.5052887E+02  0.7816164E-02  0.1300439E+00
        -11   -1    0    0    0    0  0.00000000000E+00  0.00000000000E+00  0.45593999997E+02  0.45594000000E+02  0.51100000000E-03 0.  1.
         11   -1    0    0    0    0 -0.00000000000E+00 -0.00000000000E+00 -0.45593999997E+02  0.45594000000E+02  0.51100000000E-03 0. -1.
    9900012    2    1    2    0    0 -0.32615874707E+02 -0.88333106213E+01 -0.22612884424E+02  0.50528865707E+02  0.30000017804E+02 0.  0.
        -12    1    1    2    0    0  0.32615874707E+02  0.88333106213E+01  0.22612884424E+02  0.40659134293E+02  0.00000000000E+00 0.  1.
         11    1    3    3    0    0 -0.23159345277E+02 -0.34554427857E+01 -0.19193846518E+01  0.23494241767E+02  0.51100000000E-03 0. -1.
        -11    1    3    3    0    0 -0.83415184654E+01 -0.67360759015E+01 -0.60996769339E+01  0.12335384381E+02  0.51100000000E-03 0.  1.
         12    1    3    3    0    0 -0.11150109650E+01  0.13582080658E+01 -0.14593822838E+02  0.14699239560E+02  0.00000000000E+00 0. -1.
</event>
<event>
 7    1  0.6857839E-013  0.5052883E+02  0.7816164E-02  0.1300439E+00
        -11   -1    0    0    0    0  0.00000000000E+00  0.00000000000E+00  0.45593999997E+02  0.45594000000E+02  0.51100000000E-03 0.  1.
         11   -1    0    0    0    0 -0.00000000000E+00 -0.00000000000E+00 -0.45593999997E+02  0.45594000000E+02  0.51100000000E-03 0. -1.
    9900012    2    1    2    0    0 -0.18409069610E+02 -0.34925588365E+02 -0.97199557386E+01  0.50528829988E+02  0.29999909232E+02 0.  0.
        -12    1    1    2    0    0  0.18409069610E+02  0.34925588365E+02  0.97199557386E+01  0.40659170012E+02  0.00000000000E+00 0.  1.
         11    1    3    3    0    0 -0.11203040441E+02 -0.16860036136E+02 -0.16006096514E+01  0.20305932265E+02  0.51100000000E-03 0. -1.
        -11    1    3    3    0    0 -0.14785351309E+02 -0.10061069526E+02 -0.32720030202E+01  0.18180696834E+02  0.51100000000E-03 0.  1.
        -12    1    3    3    0    0  0.75793221407E+01 -0.80044827022E+01 -0.48473430670E+01  0.12042200889E+02  0.00000000000E+00 0.  1.
</event>
<event>
 7    1  0.6857839E-013  0.5052886E+02  0.7816164E-02  0.1300439E+00
        -11   -1    0    0    0    0  0.00000000000E+00  0.00000000000E+00  0.45593999997E+02  0.45594000000E+02  0.51100000000E-03 0.  1.
         11   -1    0    0    0    0 -0.00000000000E+00 -0.00000000000E+00 -0.45593999997E+02  0.45594000000E+02  0.51100000000E-03 0. -1.
    9900012    2    1    2    0    0 -0.18131607399E+02  0.46368901940E+01 -0.36095837629E+02  0.50528862876E+02  0.30000009198E+02 0.  0.
        -12    1    1    2    0    0  0.18131607399E+02 -0.46368901940E+01  0.36095837629E+02  0.40659137124E+02  0.00000000000E+00 0.  1.
         11    1    3    3    0    0 -0.49910621150E+01  0.76290110030E+01 -0.21043458237E+02  0.22933374038E+02  0.51100000000E-03 0.  1.
        -11    1    3    3    0    0  0.10033788107E+01  0.59431275600E+01 -0.62831633260E+01  0.87066455006E+01  0.51100000000E-03 0. -1.
        -12    1    3    3    0    0 -0.14143924095E+02 -0.89352483690E+01 -0.87692160655E+01  0.18888843337E+02  0.00000000000E+00 0.  1.
</event>
<event>
 7    1  0.6857839E-013  0.5052886E+02  0.7816164E-02  0.1300439E+00
        -11   -1    0    0    0    0  0.00000000000E+00  0.00000000000E+00  0.45593999997E+02  0.45594000000E+02  0.51100000000E-03 0.  1.
         11   -1    0    0    0    0 -0.00000000000E+00 -0.00000000000E+00 -0.45593999997E+02  0.45594000000E+02  0.51100000000E-03 0. -1.
    9900012    2    1    2    0    0  0.22680052111E+01 -0.37763144454E+02 -0.14898540347E+02  0.50528862882E+02  0.30000009217E+02 0.  0.
        -12    1    1    2    0    0 -0.22680052111E+01  0.37763144454E+02  0.14898540347E+02  0.40659137118E+02  0.00000000000E+00 0.  1.
         11    1    3    3    0    0  0.43675377112E+01 -0.26049183366E+01  0.59662666151E+00  0.51202489035E+01  0.51100000000E-03 0. -1.
        -11    1    3    3    0    0  0.54828352304E+01 -0.90923120077E+01  0.46629072718E+01  0.11596306494E+02  0.51100000000E-03 0.  1.
         12    1    3    3    0    0 -0.75823677305E+01 -0.26065914110E+02 -0.20158074280E+02  0.33812307485E+02  0.00000000000E+00 0. -1.
</event>
<event>
 7    1  0.6857839E-013  0.5052885E+02  0.7816164E-02  0.1300439E+00
        -11   -1    0    0    0    0  0.00000000000E+00  0.00000000000E+00  0.45593999997E+02  0.45594000000E+02  0.51100000000E-03 0.  1.
         11   -1    0    0    0    0 -0.00000000000E+00 -0.00000000000E+00 -0.45593999997E+02  0.45594000000E+02  0.51100000000E-03 0. -1.
    9900012    2    1    2    0    0 -0.25936776894E+02 -0.11631607378E+02 -0.29071560342E+02  0.50528852117E+02  0.29999976496E+02 0.  0.
        -12    1    1    2    0    0  0.25936776894E+02  0.11631607378E+02  0.29071560342E+02  0.40659147883E+02  0.00000000000E+00 0.  1.
         11    1    3    3    0    0 -0.54074879403E+01 -0.57963862977E+00 -0.99680986384E+01  0.11355170518E+02  0.51100000000E-03 0. -1.
        -11    1    3    3    0    0 -0.10759524550E+02  0.31767562550E+01 -0.18821606051E+02  0.21911458268E+02  0.51100000000E-03 0.  1.
        -12    1    3    3    0    0 -0.97697644037E+01 -0.14228725003E+02 -0.28185565209E+00  0.17262223331E+02  0.00000000000E+00 0.  1.
</event>
<event>
 7    1  0.6857839E-013  0.5052886E+02  0.7816164E-02  0.1300439E+00
        -11   -1    0    0    0    0  0.00000000000E+00  0.00000000000E+00  0.45593999997E+02  0.45594000000E+02  0.51100000000E-03 0.  1.
         11   -1    0    0    0    0 -0.00000000000E+00 -0.00000000000E+00 -0.45593999997E+02  0.45594000000E+02  0.51100000000E-03 0. -1.
    9900012    2    1    2    0    0  0.69052265096E+01 -0.30004728393E+02 -0.26555592318E+02  0.50528863728E+02  0.30000011787E+02 0.  0.
        -12    1    1    2    0    0 -0.69052265096E+01  0.30004728393E+02  0.26555592318E+02  0.40659136272E+02  0.00000000000E+00 0.  1.
         11    1    3    3    0    0  0.88706532972E+01 -0.18697041678E+02 -0.40644395307E+01  0.21089986401E+02  0.51100000000E-03 0. -1.
        -11    1    3    3    0    0 -0.29364072040E+01 -0.42461213046E+01  0.66984454235E+00  0.52058357036E+01  0.51100000000E-03 0.  1.
        -12    1    3    3    0    0  0.97098041638E+00 -0.70615654097E+01 -0.23160997329E+02  0.24233041623E+02  0.00000000000E+00 0.  1.
</event>
<event>
 7    1  0.6857839E-013  0.5052886E+02  0.7816164E-02  0.1300439E+00
        -11   -1    0    0    0    0  0.00000000000E+00  0.00000000000E+00  0.45593999997E+02  0.45594000000E+02  0.51100000000E-03 0.  1.
         11   -1    0    0    0    0 -0.00000000000E+00 -0.00000000000E+00 -0.45593999997E+02  0.45594000000E+02  0.51100000000E-03 0. -1.
    9900012    2    1    2    0    0  0.38868021087E+02  0.10599022510E+02 -0.54866404993E+01  0.50528861232E+02  0.30000004201E+02 0.  0.
        -12    1    1    2    0    0 -0.38868021087E+02 -0.10599022510E+02  0.54866404993E+01  0.40659138768E+02  0.00000000000E+00 0.  1.
         11    1    3    3    0    0  0.20219372362E+02  0.64909509447E+01 -0.18071647789E+00  0.21236480914E+02  0.51100000000E-03 0. -1.
        -11    1    3    3    0    0  0.18577213373E+02 -0.30118373246E+01 -0.94445766750E+01  0.21056686577E+02  0.51100000000E-03 0.  1.
        -12    1    3    3    0    0  0.71435352086E-01  0.71199088904E+01  0.41386526536E+01  0.82356937415E+01  0.00000000000E+00 0.  1.
</event>
<event>
 7    1  0.6857839E-013  0.5052886E+02  0.7816164E-02  0.1300439E+00
        -11   -1    0    0    0    0  0.00000000000E+00  0.00000000000E+00  0.45593999997E+02  0.45594000000E+02  0.51100000000E-03 0. -1.
         11   -1    0    0    0    0 -0.00000000000E+00 -0.00000000000E+00 -0.45593999997E+02  0.45594000000E+02  0.51100000000E-03 0.  1.
    9900012    2    1    2    0    0 -0.21311792864E+02 -0.23265597459E+02  0.25645377576E+02  0.50528856733E+02  0.29999990524E+02 0.  0.
        -12    1    1    2    0    0  0.21311792864E+02  0.23265597459E+02 -0.25645377576E+02  0.40659143267E+02  0.00000000000E+00 0.  1.
         11    1    3    3    0    0 -0.16033224003E+02 -0.27706169821E+02  0.16213962984E+02  0.35882986414E+02  0.51100000000E-03 0. -1.
        -11    1    3    3    0    0 -0.25583470200E+01 -0.18364415826E+00 -0.11277668299E+01  0.28019141556E+01  0.51100000000E-03 0.  1.
        -12    1    3    3    0    0 -0.27202218417E+01  0.46242165201E+01  0.10559181422E+02  0.11843956163E+02  0.00000000000E+00 0.  1.
</event>
<event>
 7    1  0.6857839E-013  0.5052886E+02  0.7816164E-02  0.1300439E+00
        -11   -1    0    0    0    0  0.00000000000E+00  0.00000000000E+00  0.45593999997E+02  0.45594000000E+02  0.51100000000E-03 0.  1.
         11   -1    0    0    0    0 -0.00000000000E+00 -0.00000000000E+00 -0.45593999997E+02  0.45594000000E+02  0.51100000000E-03 0. -1.
    9900012    2    1    2    0    0 -0.20650208032E+02 -0.30251672295E+02 -0.17651377687E+02  0.50528857084E+02  0.29999991593E+02 0.  0.
        -12    1    1    2    0    0  0.20650208032E+02  0.30251672295E+02  0.17651377687E+02  0.40659142916E+02  0.00000000000E+00 0.  1.
         11    1    3    3    0    0 -0.23991314758E+01 -0.42371821954E+01 -0.12145228268E+02  0.13084957575E+02  0.51100000000E-03 0. -1.
        -11    1    3    3    0    0 -0.47135804856E+01 -0.20978579894E+02 -0.76910792894E+01  0.22835747333E+02  0.51100000000E-03 0.  1.
        -12    1    3    3    0    0 -0.13537496070E+02 -0.50359102053E+01  0.21849298705E+01  0.14608152176E+02  0.00000000000E+00 0.  1.
</event>
<event>
 7    1  0.6857839E-013  0.5052886E+02  0.7816164E-02  0.1300439E+00
        -11   -1    0    0    0    0  0.00000000000E+00  0.00000000000E+00  0.45593999997E+02  0.45594000000E+02  0.51100000000E-03 0. -1.
         11   -1    0    0    0    0 -0.00000000000E+00 -0.00000000000E+00 -0.45593999997E+02  0.45594000000E+02  0.51100000000E-03 0.  1.
    9900012    2    1    2    0    0  0.24426983084E+02  0.28779471154E+02  0.15107279006E+02  0.50528863986E+02  0.30000012570E+02 0.  0.
        -12    1    1    2    0    0 -0.24426983084E+02 -0.28779471154E+02 -0.15107279006E+02  0.40659136014E+02  0.00000000000E+00 0.  1.
         11    1    3    3    0    0  0.36988605669E+01  0.75317170222E+01  0.69460374283E+00  0.84196677736E+01  0.51100000000E-03 0. -1.
        -11    1    3    3    0    0  0.86445018296E+01  0.47455625837E+01 -0.73080800343E+01  0.12274192852E+02  0.51100000000E-03 0.  1.
         12    1    3    3    0    0  0.12083620687E+02  0.16502191548E+02  0.21720755297E+02  0.29835003360E+02  0.00000000000E+00 0. -1.
</event>
<event>
 7    1  0.6857839E-013  0.5052888E+02  0.7816164E-02  0.1300439E+00
        -11   -1    0    0    0    0  0.00000000000E+00  0.00000000000E+00  0.45593999997E+02  0.45594000000E+02  0.51100000000E-03 0.  1.
         11   -1    0    0    0    0 -0.00000000000E+00 -0.00000000000E+00 -0.45593999997E+02  0.45594000000E+02  0.51100000000E-03 0. -1.
    9900012    2    1    2    0    0 -0.53752180581E+01  0.12683786652E+02 -0.38254312293E+02  0.50528882671E+02  0.30000069366E+02 0.  0.
        -12    1    1    2    0    0  0.53752180581E+01 -0.12683786652E+02  0.38254312293E+02  0.40659117329E+02  0.00000000000E+00 0.  1.
         11    1    3    3    0    0 -0.11721977090E+02  0.23755916834E+01 -0.37899614905E+01  0.12546393550E+02  0.51100000000E-03 0. -1.
        -11    1    3    3    0    0 -0.18403550270E+01 -0.55126125126E+00 -0.19447823469E+01  0.27336741266E+01  0.51100000000E-03 0.  1.
        -12    1    3    3    0    0  0.81871140588E+01  0.10859456220E+02 -0.32519568455E+02  0.35248814995E+02  0.00000000000E+00 0.  1.
</event>
<event>
 7    1  0.6857839E-013  0.5052886E+02  0.7816164E-02  0.1300439E+00
        -11   -1    0    0    0    0  0.00000000000E+00  0.00000000000E+00  0.45593999997E+02  0.45594000000E+02  0.51100000000E-03 0.  1.
         11   -1    0    0    0    0 -0.00000000000E+00 -0.00000000000E+00 -0.45593999997E+02  0.45594000000E+02  0.51100000000E-03 0. -1.
    9900012    2    1    2    0    0 -0.49873391369E+01 -0.25671494726E+02 -0.31133046630E+02  0.50528858524E+02  0.29999995968E+02 0.  0.
        -12    1    1    2    0    0  0.49873391369E+01  0.25671494726E+02  0.31133046630E+02  0.40659141476E+02  0.00000000000E+00 0.  1.
         11    1    3    3    0    0 -0.42375713137E+00  0.46103354960E+01 -0.82170019143E+01  0.94315366836E+01  0.51100000000E-03 0.  1.
        -11    1    3    3    0    0  0.39349764423E+01 -0.15445388771E+02 -0.59584274058E+01  0.17016078611E+02  0.51100000000E-03 0. -1.
         12    1    3    3    0    0 -0.84985584478E+01 -0.14836441451E+02 -0.16957617310E+02  0.24081243229E+02  0.00000000000E+00 0. -1.
</event>
<event>
 7    1  0.6857839E-013  0.5052885E+02  0.7816164E-02  0.1300439E+00
        -11   -1    0    0    0    0  0.00000000000E+00  0.00000000000E+00  0.45593999997E+02  0.45594000000E+02  0.51100000000E-03 0.  1.
         11   -1    0    0    0    0 -0.00000000000E+00 -0.00000000000E+00 -0.45593999997E+02  0.45594000000E+02  0.51100000000E-03 0. -1.
    9900012    2    1    2    0    0 -0.98800154343E+01  0.37830405935E+02 -0.11154016371E+02  0.50528850975E+02  0.29999973025E+02 0.  0.
        -12    1    1    2    0    0  0.98800154343E+01 -0.37830405935E+02  0.11154016371E+02  0.40659149025E+02  0.00000000000E+00 0.  1.
         11    1    3    3    0    0 -0.94840235928E+01  0.10267424402E+02 -0.58620618514E+01  0.15156862366E+02  0.51100000000E-03 0. -1.
        -11    1    3    3    0    0 -0.72751104477E+01  0.12878329007E+02  0.56238151812E+01  0.15824218385E+02  0.51100000000E-03 0.  1.
         12    1    3    3    0    0  0.68791186062E+01  0.14684652526E+02 -0.10915769701E+02  0.19547770225E+02  0.00000000000E+00 0. -1.
</event>
<event>
 7    1  0.6857839E-013  0.5052886E+02  0.7816164E-02  0.1300439E+00
        -11   -1    0    0    0    0  0.00000000000E+00  0.00000000000E+00  0.45593999997E+02  0.45594000000E+02  0.51100000000E-03 0.  1.
         11   -1    0    0    0    0 -0.00000000000E+00 -0.00000000000E+00 -0.45593999997E+02  0.45594000000E+02  0.51100000000E-03 0. -1.
    9900012    2    1    2    0    0  0.15185146981E+02  0.12066090944E+02 -0.35734951324E+02  0.50528856063E+02  0.29999988489E+02 0.  0.
        -12    1    1    2    0    0 -0.15185146981E+02 -0.12066090944E+02  0.35734951324E+02  0.40659143937E+02  0.00000000000E+00 0.  1.
         11    1    3    3    0    0  0.14310484160E+02  0.77580677290E+01 -0.23855460677E+02  0.28880106928E+02  0.51100000000E-03 0. -1.
        -11    1    3    3    0    0  0.17570530883E+01 -0.24528419499E+01 -0.14145613636E+02  0.14463818811E+02  0.51100000000E-03 0.  1.
         12    1    3    3    0    0 -0.88239026696E+00  0.67608651653E+01  0.22661229889E+01  0.71849303245E+01  0.00000000000E+00 0. -1.
</event>
<event>
 7    1  0.6857839E-013  0.5052886E+02  0.7816164E-02  0.1300439E+00
        -11   -1    0    0    0    0  0.00000000000E+00  0.00000000000E+00  0.45593999997E+02  0.45594000000E+02  0.51100000000E-03 0. -1.
         11   -1    0    0    0    0 -0.00000000000E+00 -0.00000000000E+00 -0.45593999997E+02  0.45594000000E+02  0.51100000000E-03 0.  1.
    9900012    2    1    2    0    0  0.67025906795E+01  0.16852119415E+02  0.36390201501E+02  0.50528863071E+02  0.30000009789E+02 0.  0.
        -12    1    1    2    0    0 -0.67025906795E+01 -0.16852119415E+02 -0.36390201501E+02  0.40659136929E+02  0.00000000000E+00 0.  1.
         11    1    3    3    0    0  0.12902928058E+01  0.11156119366E+02  0.14222394256E+02  0.18121819816E+02  0.51100000000E-03 0. -1.
        -11    1    3    3    0    0  0.55615658637E+01  0.96599210367E+01  0.13654370089E+01  0.11229848965E+02  0.51100000000E-03 0.  1.
         12    1    3    3    0    0 -0.14926799009E+00 -0.39639209876E+01  0.20802370236E+02  0.21177194289E+02  0.00000000000E+00 0. -1.
</event>
<event>
 7    1  0.6857839E-013  0.5052886E+02  0.7816164E-02  0.1300439E+00
        -11   -1    0    0    0    0  0.00000000000E+00  0.00000000000E+00  0.45593999997E+02  0.45594000000E+02  0.51100000000E-03 0.  1.
         11   -1    0    0    0    0 -0.00000000000E+00 -0.00000000000E+00 -0.45593999997E+02  0.45594000000E+02  0.51100000000E-03 0. -1.
    9900012    2    1    2    0    0  0.32345492991E+02  0.12602550010E+02 -0.21168612104E+02  0.50528864225E+02  0.30000013297E+02 0.  0.
        -12    1    1    2    0    0 -0.32345492991E+02 -0.12602550010E+02  0.21168612104E+02  0.40659135775E+02  0.00000000000E+00 0.  1.
         11    1    3    3    0    0  0.18763347646E+00 -0.37844840932E+01  0.61832133778E+00  0.38392509310E+01  0.51100000000E-03 0. -1.
        -11    1    3    3    0    0  0.51558805829E+01  0.13109792710E+02 -0.78515579193E+01  0.16127514734E+02  0.51100000000E-03 0.  1.
         12    1    3    3    0    0  0.27001978932E+02  0.32772413929E+01 -0.13935375523E+02  0.30562098559E+02  0.00000000000E+00 0. -1.
</event>
<event>
 7    1  0.6857839E-013  0.5052887E+02  0.7816164E-02  0.1300439E+00
        -11   -1    0    0    0    0  0.00000000000E+00  0.00000000000E+00  0.45593999997E+02  0.45594000000E+02  0.51100000000E-03 0.  1.
         11   -1    0    0    0    0 -0.00000000000E+00 -0.00000000000E+00 -0.45593999997E+02  0.45594000000E+02  0.51100000000E-03 0. -1.
    9900012    2    1    2    0    0  0.26797936526E+02  0.24117347794E+02 -0.18798647665E+02  0.50528867930E+02  0.30000024559E+02 0.  0.
        -12    1    1    2    0    0 -0.26797936526E+02 -0.24117347794E+02  0.18798647665E+02  0.40659132070E+02  0.00000000000E+00 0.  1.
         11    1    3    3    0    0  0.21097971122E+02  0.10283276907E+02 -0.88023601700E+01  0.25066944653E+02  0.51100000000E-03 0. -1.
        -11    1    3    3    0    0  0.60881831662E+01 -0.21756959204E+01 -0.62984263968E+01  0.90260623940E+01  0.51100000000E-03 0.  1.
         12    1    3    3    0    0 -0.38821776256E+00  0.16009766807E+02 -0.36978610984E+01  0.16435860882E+02  0.00000000000E+00 0. -1.
</event>
<event>
 7    1  0.6857839E-013  0.5052886E+02  0.7816164E-02  0.1300439E+00
        -11   -1    0    0    0    0  0.00000000000E+00  0.00000000000E+00  0.45593999997E+02  0.45594000000E+02  0.51100000000E-03 0. -1.
         11   -1    0    0    0    0 -0.00000000000E+00 -0.00000000000E+00 -0.45593999997E+02  0.45594000000E+02  0.51100000000E-03 0.  1.
    9900012    2    1    2    0    0 -0.32343655211E+02  0.14947918654E+02  0.19586058222E+02  0.50528856119E+02  0.29999988659E+02 0.  0.
        -12    1    1    2    0    0  0.32343655211E+02 -0.14947918654E+02 -0.19586058222E+02  0.40659143881E+02  0.00000000000E+00 0.  1.
         11    1    3    3    0    0  0.41164395075E+00  0.65518685065E+01  0.78379892007E+01  0.10224016170E+02  0.51100000000E-03 0. -1.
        -11    1    3    3    0    0 -0.29514958552E+02  0.39257450471E+00  0.65808718430E+01  0.30242267897E+02  0.51100000000E-03 0.  1.
         12    1    3    3    0    0 -0.32403406094E+01  0.80034756424E+01  0.51671971785E+01  0.10062572052E+02  0.00000000000E+00 0. -1.
</event>
<event>
 7    1  0.6857839E-013  0.5052886E+02  0.7816164E-02  0.1300439E+00
        -11   -1    0    0    0    0  0.00000000000E+00  0.00000000000E+00  0.45593999997E+02  0.45594000000E+02  0.51100000000E-03 0.  1.
         11   -1    0    0    0    0 -0.00000000000E+00 -0.00000000000E+00 -0.45593999997E+02  0.45594000000E+02  0.51100000000E-03 0. -1.
    9900012    2    1    2    0    0  0.29181358863E+01 -0.37890390476E+02 -0.14455739206E+02  0.50528860764E+02  0.30000002777E+02 0.  0.
        -12    1    1    2    0    0 -0.29181358863E+01  0.37890390476E+02  0.14455739206E+02  0.40659139236E+02  0.00000000000E+00 0.  1.
         11    1    3    3    0    0  0.21983781358E+00 -0.25154311407E+02 -0.10878737592E+02  0.27406835696E+02  0.51100000000E-03 0. -1.
        -11    1    3    3    0    0  0.97474598759E+01 -0.59874908129E+01 -0.62070815199E+01  0.13015025222E+02  0.51100000000E-03 0.  1.
        -12    1    3    3    0    0 -0.70491618032E+01 -0.67485882560E+01  0.26300799055E+01  0.10106999846E+02  0.00000000000E+00 0.  1.
</event>
<event>
 7    1  0.6857839E-013  0.5052884E+02  0.7816164E-02  0.1300439E+00
        -11   -1    0    0    0    0  0.00000000000E+00  0.00000000000E+00  0.45593999997E+02  0.45594000000E+02  0.51100000000E-03 0.  1.
         11   -1    0    0    0    0 -0.00000000000E+00 -0.00000000000E+00 -0.45593999997E+02  0.45594000000E+02  0.51100000000E-03 0. -1.
    9900012    2    1    2    0    0 -0.82468550475E+01  0.18830137563E+01 -0.39769474695E+02  0.50528837730E+02  0.29999932765E+02 0.  0.
        -12    1    1    2    0    0  0.82468550475E+01 -0.18830137563E+01  0.39769474695E+02  0.40659162270E+02  0.00000000000E+00 0.  1.
         11    1    3    3    0    0 -0.43661505211E+01 -0.88925931929E+01 -0.10969636971E+02  0.14780880204E+02  0.51100000000E-03 0. -1.
        -11    1    3    3    0    0 -0.46868385247E+01 -0.36002450191E+01 -0.13507809810E+02  0.14744122411E+02  0.51100000000E-03 0.  1.
        -12    1    3    3    0    0  0.80613399826E+00  0.14375851968E+02 -0.15292027914E+02  0.21003835115E+02  0.00000000000E+00 0.  1.
</event>
<event>
 7    1  0.6857839E-013  0.5052886E+02  0.7816164E-02  0.1300439E+00
        -11   -1    0    0    0    0  0.00000000000E+00  0.00000000000E+00  0.45593999997E+02  0.45594000000E+02  0.51100000000E-03 0.  1.
         11   -1    0    0    0    0 -0.00000000000E+00 -0.00000000000E+00 -0.45593999997E+02  0.45594000000E+02  0.51100000000E-03 0. -1.
    9900012    2    1    2    0    0 -0.22910836265E+01 -0.33808944469E+01 -0.40453508894E+02  0.50528857199E+02  0.29999991943E+02 0.  0.
        -12    1    1    2    0    0  0.22910836265E+01  0.33808944469E+01  0.40453508894E+02  0.40659142801E+02  0.00000000000E+00 0.  1.
         11    1    3    3    0    0 -0.84465679187E+00 -0.65383042742E+01 -0.28360581447E+02  0.29116755453E+02  0.51100000000E-03 0. -1.
        -11    1    3    3    0    0  0.70360019490E+01 -0.19809768334E+01 -0.75335606146E+01  0.10496862790E+02  0.51100000000E-03 0.  1.
         12    1    3    3    0    0 -0.84824287836E+01  0.51383866607E+01 -0.45593668330E+01  0.10915238956E+02  0.00000000000E+00 0. -1.
</event>
<event>
 7    1  0.6857839E-013  0.5052886E+02  0.7816164E-02  0.1300439E+00
        -11   -1    0    0    0    0  0.00000000000E+00  0.00000000000E+00  0.45593999997E+02  0.45594000000E+02  0.51100000000E-03 0. -1.
         11   -1    0    0    0    0 -0.00000000000E+00 -0.00000000000E+00 -0.45593999997E+02  0.45594000000E+02  0.51100000000E-03 0.  1.
    9900012    2    1    2    0    0 -0.40283924544E+02 -0.55103869450E+01  0.84104668564E-01  0.50528855708E+02  0.29999987410E+02 0.  0.
        -12    1    1    2    0    0  0.40283924544E+02  0.55103869450E+01 -0.84104668564E-01  0.40659144292E+02  0.00000000000E+00 0.  1.
         11    1    3    3    0    0 -0.14429766515E+02 -0.67512876328E+01  0.62687773789E+01  0.17120035527E+02  0.51100000000E-03 0. -1.
        -11    1    3    3    0    0  0.63449777908E+00 -0.45049566551E+01 -0.42654300664E+01  0.62362741929E+01  0.51100000000E-03 0.  1.
        -12    1    3    3    0    0 -0.26488655808E+02  0.57458573429E+01 -0.19192426439E+01  0.27172545988E+02  0.00000000000E+00 0.  1.
</event>
<event>
 7    1  0.6857839E-013  0.5052885E+02  0.7816164E-02  0.1300439E+00
        -11   -1    0    0    0    0  0.00000000000E+00  0.00000000000E+00  0.45593999997E+02  0.45594000000E+02  0.51100000000E-03 0.  1.
         11   -1    0    0    0    0 -0.00000000000E+00 -0.00000000000E+00 -0.45593999997E+02  0.45594000000E+02  0.51100000000E-03 0. -1.
    9900012    2    1    2    0    0  0.49040873947E+01  0.11890437860E+02 -0.38571157698E+02  0.50528846149E+02  0.29999958356E+02 0.  0.
        -12    1    1    2    0    0 -0.49040873947E+01 -0.11890437860E+02  0.38571157698E+02  0.40659153851E+02  0.00000000000E+00 0.  1.
         11    1    3    3    0    0  0.75857138199E+01 -0.15106398766E+01 -0.10845548884E+02  0.13321074200E+02  0.51100000000E-03 0. -1.
        -11    1    3    3    0    0  0.53555757819E+01  0.13462937648E+02 -0.96020976453E+01  0.17381978067E+02  0.51100000000E-03 0.  1.
        -12    1    3    3    0    0 -0.80372022071E+01 -0.61859911789E-01 -0.18123511169E+02  0.19825793882E+02  0.00000000000E+00 0.  1.
</event>
<event>
 7    1  0.6857839E-013  0.5052883E+02  0.7816164E-02  0.1300439E+00
        -11   -1    0    0    0    0  0.00000000000E+00  0.00000000000E+00  0.45593999997E+02  0.45594000000E+02  0.51100000000E-03 0. -1.
         11   -1    0    0    0    0 -0.00000000000E+00 -0.00000000000E+00 -0.45593999997E+02  0.45594000000E+02  0.51100000000E-03 0.  1.
    9900012    2    1    2    0    0  0.17106391415E+02  0.30974154919E+02 -0.20028505381E+02  0.50528832178E+02  0.29999915888E+02 0.  0.
        -12    1    1    2    0    0 -0.17106391415E+02 -0.30974154919E+02  0.20028505381E+02  0.40659167822E+02  0.00000000000E+00 0.  1.
         11    1    3    3    0    0  0.13184455800E+02  0.22244841002E+02 -0.10995698417E+01  0.25881883240E+02  0.51100000000E-03 0. -1.
        -11    1    3    3    0    0  0.13223293155E+01  0.16327062329E+01  0.16837111099E+01  0.26924278680E+01  0.51100000000E-03 0.  1.
        -12    1    3    3    0    0  0.25996062999E+01  0.70966076834E+01 -0.20612646649E+02  0.21954521070E+02  0.00000000000E+00 0.  1.
</event>
<event>
 7    1  0.6857839E-013  0.5052884E+02  0.7816164E-02  0.1300439E+00
        -11   -1    0    0    0    0  0.00000000000E+00  0.00000000000E+00  0.45593999997E+02  0.45594000000E+02  0.51100000000E-03 0. -1.
         11   -1    0    0    0    0 -0.00000000000E+00 -0.00000000000E+00 -0.45593999997E+02  0.45594000000E+02  0.51100000000E-03 0.  1.
    9900012    2    1    2    0    0  0.22227502614E+02 -0.31437001038E+02 -0.13069819300E+02  0.50528842566E+02  0.29999947465E+02 0.  0.
        -12    1    1    2    0    0 -0.22227502614E+02  0.31437001038E+02  0.13069819300E+02  0.40659157434E+02  0.00000000000E+00 0.  1.
         11    1    3    3    0    0  0.10583112106E+02 -0.17947457912E+02 -0.86787602811E+01  0.22570653239E+02  0.51100000000E-03 0. -1.
        -11    1    3    3    0    0 -0.14188443074E+01 -0.88819573003E+01 -0.96035628087E+01  0.13157914103E+02  0.51100000000E-03 0.  1.
        -12    1    3    3    0    0  0.13063234815E+02 -0.46075858249E+01  0.52125037894E+01  0.14800275225E+02  0.00000000000E+00 0.  1.
</event>
<event>
 7    1  0.6857839E-013  0.5052888E+02  0.7816164E-02  0.1300439E+00
        -11   -1    0    0    0    0  0.00000000000E+00  0.00000000000E+00  0.45593999997E+02  0.45594000000E+02  0.51100000000E-03 0.  1.
         11   -1    0    0    0    0 -0.00000000000E+00 -0.00000000000E+00 -0.45593999997E+02  0.45594000000E+02  0.51100000000E-03 0. -1.
    9900012    2    1    2    0    0 -0.28017345034E+02 -0.29153545505E+02 -0.42735270884E+01  0.50528882055E+02  0.30000067495E+02 0.  0.
        -12    1    1    2    0    0  0.28017345034E+02  0.29153545505E+02  0.42735270884E+01  0.40659117945E+02  0.00000000000E+00 0.  1.
         11    1    3    3    0    0 -0.32483579006E+01 -0.85897870387E+01 -0.88413130342E+01  0.12747748305E+02  0.51100000000E-03 0. -1.
        -11    1    3    3    0    0 -0.12271935305E+01 -0.12445451385E+01 -0.54486891714E+01  0.57221596020E+01  0.51100000000E-03 0.  1.
        -12    1    3    3    0    0 -0.23541793603E+02 -0.19319213328E+02  0.10016475117E+02  0.32058974148E+02  0.00000000000E+00 0.  1.
</event>
<event>
 7    1  0.6857839E-013  0.5052888E+02  0.7816164E-02  0.1300439E+00
        -11   -1    0    0    0    0  0.00000000000E+00  0.00000000000E+00  0.45593999997E+02  0.45594000000E+02  0.51100000000E-03 0.  1.
         11   -1    0    0    0    0 -0.00000000000E+00 -0.00000000000E+00 -0.45593999997E+02  0.45594000000E+02  0.51100000000E-03 0. -1.
    9900012    2    1    2    0    0 -0.36605549773E+02 -0.57589715998E+01  0.16734151678E+02  0.50528882198E+02  0.30000067928E+02 0.  0.
        -12    1    1    2    0    0  0.36605549773E+02  0.57589715998E+01 -0.16734151678E+02  0.40659117802E+02  0.00000000000E+00 0.  1.
         11    1    3    3    0    0 -0.12760769709E+02 -0.39110849425E+01 -0.45758911875E+01  0.14109309318E+02  0.51100000000E-03 0. -1.
        -11    1    3    3    0    0 -0.17629097146E+01 -0.31059107250E+01  0.11827382260E+02  0.12354817015E+02  0.51100000000E-03 0.  1.
         12    1    3    3    0    0 -0.22081870349E+02  0.12580240677E+01  0.94826606057E+01  0.24064755865E+02  0.00000000000E+00 0. -1.
</event>
<event>
 7    1  0.6857839E-013  0.5052885E+02  0.7816164E-02  0.1300439E+00
        -11   -1    0    0    0    0  0.00000000000E+00  0.00000000000E+00  0.45593999997E+02  0.45594000000E+02  0.51100000000E-03 0.  1.
         11   -1    0    0    0    0 -0.00000000000E+00 -0.00000000000E+00 -0.45593999997E+02  0.45594000000E+02  0.51100000000E-03 0. -1.
    9900012    2    1    2    0    0  0.15875730378E+02 -0.21563928967E+01 -0.37369470234E+02  0.50528854031E+02  0.29999982312E+02 0.  0.
        -12    1    1    2    0    0 -0.15875730378E+02  0.21563928967E+01  0.37369470234E+02  0.40659145969E+02  0.00000000000E+00 0.  1.
         11    1    3    3    0    0  0.27437365470E+01 -0.60935974134E+00 -0.16639946665E+01  0.32662345361E+01  0.51100000000E-03 0. -1.
        -11    1    3    3    0    0 -0.45641548176E+01  0.85165401423E+01 -0.17313948226E+02  0.19827651616E+02  0.51100000000E-03 0.  1.
        -12    1    3    3    0    0  0.17696148649E+02 -0.10063573298E+02 -0.18391527342E+02  0.27434967878E+02  0.00000000000E+00 0.  1.
</event>
<event>
 7    1  0.6857839E-013  0.5052886E+02  0.7816164E-02  0.1300439E+00
        -11   -1    0    0    0    0  0.00000000000E+00  0.00000000000E+00  0.45593999997E+02  0.45594000000E+02  0.51100000000E-03 0. -1.
         11   -1    0    0    0    0 -0.00000000000E+00 -0.00000000000E+00 -0.45593999997E+02  0.45594000000E+02  0.51100000000E-03 0.  1.
    9900012    2    1    2    0    0  0.10124637169E+01  0.32433217556E+02  0.24499523086E+02  0.50528864308E+02  0.30000013550E+02 0.  0.
        -12    1    1    2    0    0 -0.10124637169E+01 -0.32433217556E+02 -0.24499523086E+02  0.40659135692E+02  0.00000000000E+00 0.  1.
         11    1    3    3    0    0 -0.34658905322E+01  0.14855811102E+02 -0.39883170438E+00  0.15259966830E+02  0.51100000000E-03 0.  1.
        -11    1    3    3    0    0 -0.22359562534E+01 -0.24364151915E+01  0.63861613753E+01  0.71915698373E+01  0.51100000000E-03 0. -1.
         12    1    3    3    0    0  0.67143105025E+01  0.20013821645E+02  0.18512193415E+02  0.28077327640E+02  0.00000000000E+00 0. -1.
</event>
<event>
 7    1  0.6857839E-013  0.5052888E+02  0.7816164E-02  0.1300439E+00
        -11   -1    0    0    0    0  0.00000000000E+00  0.00000000000E+00  0.45593999997E+02  0.45594000000E+02  0.51100000000E-03 0. -1.
         11   -1    0    0    0    0 -0.00000000000E+00 -0.00000000000E+00 -0.45593999997E+02  0.45594000000E+02  0.51100000000E-03 0.  1.
    9900012    2    1    2    0    0 -0.38909370697E+02 -0.11048446513E+02  0.41421150358E+01  0.50528875374E+02  0.30000047187E+02 0.  0.
        -12    1    1    2    0    0  0.38909370697E+02  0.11048446513E+02 -0.41421150358E+01  0.40659124626E+02  0.00000000000E+00 0.  1.
         11    1    3    3    0    0 -0.17334528697E+02 -0.26654155491E+01  0.79561449694E+01  0.19258519368E+02  0.51100000000E-03 0. -1.
        -11    1    3    3    0    0 -0.31374884644E+01 -0.72345542091E+01  0.64050629926E+01  0.10159106293E+02  0.51100000000E-03 0.  1.
        -12    1    3    3    0    0 -0.18437353535E+02 -0.11484767550E+01 -0.10219092926E+02  0.21111249714E+02  0.00000000000E+00 0.  1.
</event>
<event>
 7    1  0.6857839E-013  0.5052886E+02  0.7816164E-02  0.1300439E+00
        -11   -1    0    0    0    0  0.00000000000E+00  0.00000000000E+00  0.45593999997E+02  0.45594000000E+02  0.51100000000E-03 0. -1.
         11   -1    0    0    0    0 -0.00000000000E+00 -0.00000000000E+00 -0.45593999997E+02  0.45594000000E+02  0.51100000000E-03 0.  1.
    9900012    2    1    2    0    0  0.14257564228E+01  0.13677475075E+02  0.38263029326E+02  0.50528861802E+02  0.30000005933E+02 0.  0.
        -12    1    1    2    0    0 -0.14257564228E+01 -0.13677475075E+02 -0.38263029326E+02  0.40659138198E+02  0.00000000000E+00 0.  1.
         11    1    3    3    0    0  0.15891040621E+01  0.79904876135E+01  0.18191629266E+02  0.19932599420E+02  0.51100000000E-03 0. -1.
        -11    1    3    3    0    0  0.10518978106E+02  0.62843213427E+01  0.12387597381E+02  0.17423953750E+02  0.51100000000E-03 0.  1.
         12    1    3    3    0    0 -0.10682325745E+02 -0.59733388104E+00  0.76838026796E+01  0.13172308633E+02  0.00000000000E+00 0. -1.
</event>
<event>
 7    1  0.6857839E-013  0.5052885E+02  0.7816164E-02  0.1300439E+00
        -11   -1    0    0    0    0  0.00000000000E+00  0.00000000000E+00  0.45593999997E+02  0.45594000000E+02  0.51100000000E-03 0. -1.
         11   -1    0    0    0    0 -0.00000000000E+00 -0.00000000000E+00 -0.45593999997E+02  0.45594000000E+02  0.51100000000E-03 0.  1.
    9900012    2    1    2    0    0  0.11533180158E+02  0.37900526155E+02  0.91488767706E+01  0.50528854983E+02  0.29999985206E+02 0.  0.
        -12    1    1    2    0    0 -0.11533180158E+02 -0.37900526155E+02 -0.91488767706E+01  0.40659145017E+02  0.00000000000E+00 0.  1.
         11    1    3    3    0    0  0.13915873372E+02  0.21951820733E+02  0.12262613935E+02  0.28738574530E+02  0.51100000000E-03 0. -1.
        -11    1    3    3    0    0  0.52778898640E+01  0.10405902137E+02 -0.38992831273E+01  0.12302167690E+02  0.51100000000E-03 0.  1.
         12    1    3    3    0    0 -0.76605830781E+01  0.55428032844E+01  0.78554596291E+00  0.94881127631E+01  0.00000000000E+00 0. -1.
</event>
<event>
 7    1  0.6857839E-013  0.5052886E+02  0.7816164E-02  0.1300439E+00
        -11   -1    0    0    0    0  0.00000000000E+00  0.00000000000E+00  0.45593999997E+02  0.45594000000E+02  0.51100000000E-03 0.  1.
         11   -1    0    0    0    0 -0.00000000000E+00 -0.00000000000E+00 -0.45593999997E+02  0.45594000000E+02  0.51100000000E-03 0. -1.
    9900012    2    1    2    0    0  0.51316215639E+01  0.14364781909E+02 -0.37689319831E+02  0.50528864145E+02  0.30000013056E+02 0.  0.
        -12    1    1    2    0    0 -0.51316215639E+01 -0.14364781909E+02  0.37689319831E+02  0.40659135855E+02  0.00000000000E+00 0.  1.
         11    1    3    3    0    0 -0.38181395123E+01  0.11999733735E+02 -0.90825626467E+01  0.15526259806E+02  0.51100000000E-03 0. -1.
        -11    1    3    3    0    0  0.32491458026E+01 -0.77804158035E+01 -0.13770559621E+02  0.16146830372E+02  0.51100000000E-03 0.  1.
         12    1    3    3    0    0  0.57006152736E+01  0.10145463977E+02 -0.14836197563E+02  0.18855773968E+02  0.00000000000E+00 0. -1.
</event>
<event>
 7    1  0.6857839E-013  0.5052882E+02  0.7816164E-02  0.1300439E+00
        -11   -1    0    0    0    0  0.00000000000E+00  0.00000000000E+00  0.45593999997E+02  0.45594000000E+02  0.51100000000E-03 0.  1.
         11   -1    0    0    0    0 -0.00000000000E+00 -0.00000000000E+00 -0.45593999997E+02  0.45594000000E+02  0.51100000000E-03 0. -1.
    9900012    2    1    2    0    0  0.69102296483E+01  0.61872570259E+01 -0.39587059292E+02  0.50528822848E+02  0.29999887529E+02 0.  0.
        -12    1    1    2    0    0 -0.69102296483E+01 -0.61872570259E+01  0.39587059292E+02  0.40659177152E+02  0.00000000000E+00 0.  1.
         11    1    3    3    0    0  0.56798900002E+01 -0.61775798024E+01 -0.74781069533E+01  0.11240361493E+02  0.51100000000E-03 0. -1.
        -11    1    3    3    0    0 -0.25970687537E+01 -0.12194683063E+01 -0.21350163315E+02  0.21542083068E+02  0.51100000000E-03 0.  1.
        -12    1    3    3    0    0  0.38274084018E+01  0.13584305135E+02 -0.10758789023E+02  0.17746378287E+02  0.00000000000E+00 0.  1.
</event>
<event>
 7    1  0.6857839E-013  0.5052887E+02  0.7816164E-02  0.1300439E+00
        -11   -1    0    0    0    0  0.00000000000E+00  0.00000000000E+00  0.45593999997E+02  0.45594000000E+02  0.51100000000E-03 0. -1.
         11   -1    0    0    0    0 -0.00000000000E+00 -0.00000000000E+00 -0.45593999997E+02  0.45594000000E+02  0.51100000000E-03 0.  1.
    9900012    2    1    2    0    0 -0.28174548177E+02 -0.28189309873E+02  0.80450516718E+01  0.50528865571E+02  0.30000017390E+02 0.  0.
        -12    1    1    2    0    0  0.28174548177E+02  0.28189309873E+02 -0.80450516718E+01  0.40659134429E+02  0.00000000000E+00 0.  1.
         11    1    3    3    0    0 -0.80082686912E+01 -0.10187306886E+02 -0.35857718186E+01  0.13445123607E+02  0.51100000000E-03 0. -1.
        -11    1    3    3    0    0 -0.67112782708E+01  0.38461706917E+01 -0.20543910728E+01  0.80034247643E+01  0.51100000000E-03 0.  1.
        -12    1    3    3    0    0 -0.13455001215E+02 -0.21848173678E+02  0.13685214563E+02  0.29080317200E+02  0.00000000000E+00 0.  1.
</event>
<event>
 7    1  0.6857839E-013  0.5052886E+02  0.7816164E-02  0.1300439E+00
        -11   -1    0    0    0    0  0.00000000000E+00  0.00000000000E+00  0.45593999997E+02  0.45594000000E+02  0.51100000000E-03 0. -1.
         11   -1    0    0    0    0 -0.00000000000E+00 -0.00000000000E+00 -0.45593999997E+02  0.45594000000E+02  0.51100000000E-03 0.  1.
    9900012    2    1    2    0    0 -0.38213565728E+02  0.10047318593E+02 -0.95885544218E+01  0.50528860898E+02  0.30000003187E+02 0.  0.
        -12    1    1    2    0    0  0.38213565728E+02 -0.10047318593E+02  0.95885544218E+01  0.40659139102E+02  0.00000000000E+00 0.  1.
         11    1    3    3    0    0 -0.45895852202E+00 -0.34932219660E+00 -0.35269652176E+01  0.35738148846E+01  0.51100000000E-03 0. -1.
        -11    1    3    3    0    0 -0.26146157166E+02 -0.49574452384E+01 -0.75122559696E+01  0.27651976202E+02  0.51100000000E-03 0.  1.
         12    1    3    3    0    0 -0.11608450040E+02  0.15354086028E+02  0.14506667655E+01  0.19303069812E+02  0.00000000000E+00 0. -1.
</event>
<event>
 7    1  0.6857839E-013  0.5052891E+02  0.7816164E-02  0.1300439E+00
        -11   -1    0    0    0    0  0.00000000000E+00  0.00000000000E+00  0.45593999997E+02  0.45594000000E+02  0.51100000000E-03 0. -1.
         11   -1    0    0    0    0 -0.00000000000E+00 -0.00000000000E+00 -0.45593999997E+02  0.45594000000E+02  0.51100000000E-03 0.  1.
    9900012    2    1    2    0    0 -0.19360579131E+02  0.84513328416E+01  0.34740531169E+02  0.50528910524E+02  0.30000154028E+02 0.  0.
        -12    1    1    2    0    0  0.19360579131E+02 -0.84513328416E+01 -0.34740531169E+02  0.40659089476E+02  0.00000000000E+00 0.  1.
         11    1    3    3    0    0 -0.12769679436E+01 -0.22341873181E+01  0.96300970010E+01  0.99679992280E+01  0.51100000000E-03 0. -1.
        -11    1    3    3    0    0  0.10337436563E+01  0.63063365137E+01  0.18957890285E+02  0.20006001862E+02  0.51100000000E-03 0.  1.
        -12    1    3    3    0    0 -0.19117354843E+02  0.43791836460E+01  0.61525438836E+01  0.20554909434E+02  0.00000000000E+00 0.  1.
</event>
<event>
 7    1  0.6857839E-013  0.5052886E+02  0.7816164E-02  0.1300439E+00
        -11   -1    0    0    0    0  0.00000000000E+00  0.00000000000E+00  0.45593999997E+02  0.45594000000E+02  0.51100000000E-03 0.  1.
         11   -1    0    0    0    0 -0.00000000000E+00 -0.00000000000E+00 -0.45593999997E+02  0.45594000000E+02  0.51100000000E-03 0. -1.
    9900012    2    1    2    0    0 -0.19497165573E+02 -0.32952341567E+02 -0.13680972277E+02  0.50528864710E+02  0.30000014771E+02 0.  0.
        -12    1    1    2    0    0  0.19497165573E+02  0.32952341567E+02  0.13680972277E+02  0.40659135290E+02  0.00000000000E+00 0.  1.
         11    1    3    3    0    0 -0.10346589306E+02 -0.49632323708E+01 -0.11267562626E+02  0.16082398876E+02  0.51100000000E-03 0. -1.
        -11    1    3    3    0    0  0.52611068716E+01 -0.64777505233E+01 -0.18494065160E+01  0.85475611772E+01  0.51100000000E-03 0.  1.
        -12    1    3    3    0    0 -0.14411683139E+02 -0.21511358673E+02 -0.56400313483E+00  0.25898904656E+02  0.00000000000E+00 0.  1.
</event>
<event>
 7    1  0.6857839E-013  0.5052886E+02  0.7816164E-02  0.1300439E+00
        -11   -1    0    0    0    0  0.00000000000E+00  0.00000000000E+00  0.45593999997E+02  0.45594000000E+02  0.51100000000E-03 0. -1.
         11   -1    0    0    0    0 -0.00000000000E+00 -0.00000000000E+00 -0.45593999997E+02  0.45594000000E+02  0.51100000000E-03 0.  1.
    9900012    2    1    2    0    0 -0.27991058171E+02 -0.27956502058E+02 -0.93861733847E+01  0.50528860859E+02  0.30000003068E+02 0.  0.
        -12    1    1    2    0    0  0.27991058171E+02  0.27956502058E+02  0.93861733847E+01  0.40659139141E+02  0.00000000000E+00 0.  1.
         11    1    3    3    0    0  0.55705834705E+00  0.23188417038E+01 -0.29523958654E+01  0.37952578906E+01  0.51100000000E-03 0. -1.
        -11    1    3    3    0    0 -0.22471195358E+02 -0.18993596495E+02 -0.13193544030E+02  0.32245634324E+02  0.51100000000E-03 0.  1.
         12    1    3    3    0    0 -0.60769211604E+01 -0.11281747266E+02  0.67597665108E+01  0.14487968644E+02  0.00000000000E+00 0. -1.
</event>
<event>
 7    1  0.6857839E-013  0.5052886E+02  0.7816164E-02  0.1300439E+00
        -11   -1    0    0    0    0  0.00000000000E+00  0.00000000000E+00  0.45593999997E+02  0.45594000000E+02  0.51100000000E-03 0.  1.
         11   -1    0    0    0    0 -0.00000000000E+00 -0.00000000000E+00 -0.45593999997E+02  0.45594000000E+02  0.51100000000E-03 0. -1.
    9900012    2    1    2    0    0  0.26617571743E+02  0.15579017458E+02 -0.26494624067E+02  0.50528855704E+02  0.29999987398E+02 0.  0.
        -12    1    1    2    0    0 -0.26617571743E+02 -0.15579017458E+02  0.26494624067E+02  0.40659144296E+02  0.00000000000E+00 0.  1.
         11    1    3    3    0    0  0.45271510782E+01  0.11136682287E+02 -0.53184170373E+01  0.13145582881E+02  0.51100000000E-03 0. -1.
        -11    1    3    3    0    0  0.26095876412E+02  0.43583047234E+01 -0.16312383689E+02  0.31081882949E+02  0.51100000000E-03 0.  1.
         12    1    3    3    0    0 -0.40054557470E+01  0.84030447263E-01 -0.48638233401E+01  0.63013898737E+01  0.00000000000E+00 0. -1.
</event>
<event>
 7    1  0.6857839E-013  0.5052888E+02  0.7816164E-02  0.1300439E+00
        -11   -1    0    0    0    0  0.00000000000E+00  0.00000000000E+00  0.45593999997E+02  0.45594000000E+02  0.51100000000E-03 0.  1.
         11   -1    0    0    0    0 -0.00000000000E+00 -0.00000000000E+00 -0.45593999997E+02  0.45594000000E+02  0.51100000000E-03 0. -1.
    9900012    2    1    2    0    0  0.14522580250E+02  0.20825637287E+02 -0.31757704359E+02  0.50528876894E+02  0.30000051808E+02 0.  0.
        -12    1    1    2    0    0 -0.14522580250E+02 -0.20825637287E+02  0.31757704359E+02  0.40659123106E+02  0.00000000000E+00 0.  1.
         11    1    3    3    0    0  0.16128950553E+02  0.17833587358E+02 -0.36002550618E+02  0.43293920304E+02  0.51100000000E-03 0. -1.
        -11    1    3    3    0    0  0.10346751717E+01  0.36951519636E+00  0.31788716996E+01  0.33633792137E+01  0.51100000000E-03 0.  1.
        -12    1    3    3    0    0 -0.26410454745E+01  0.26225347330E+01  0.10659745594E+01  0.38715773769E+01  0.00000000000E+00 0.  1.
</event>
<event>
 7    1  0.6857839E-013  0.5052888E+02  0.7816164E-02  0.1300439E+00
        -11   -1    0    0    0    0  0.00000000000E+00  0.00000000000E+00  0.45593999997E+02  0.45594000000E+02  0.51100000000E-03 0.  1.
         11   -1    0    0    0    0 -0.00000000000E+00 -0.00000000000E+00 -0.45593999997E+02  0.45594000000E+02  0.51100000000E-03 0. -1.
    9900012    2    1    2    0    0  0.18128835833E+02 -0.35725755568E+02 -0.69411418972E+01  0.50528883552E+02  0.30000072043E+02 0.  0.
        -12    1    1    2    0    0 -0.18128835833E+02  0.35725755568E+02  0.69411418972E+01  0.40659116448E+02  0.00000000000E+00 0.  1.
         11    1    3    3    0    0  0.12553579427E+02 -0.16748531899E+02  0.10342458754E+02  0.23346779875E+02  0.51100000000E-03 0. -1.
        -11    1    3    3    0    0 -0.15164143397E+01 -0.16649109113E+01 -0.15094789141E+01  0.27110823752E+01  0.51100000000E-03 0.  1.
         12    1    3    3    0    0  0.70916707457E+01 -0.17312312757E+02 -0.15774121737E+02  0.24471021301E+02  0.00000000000E+00 0. -1.
</event>
<event>
 7    1  0.6857839E-013  0.5052889E+02  0.7816164E-02  0.1300439E+00
        -11   -1    0    0    0    0  0.00000000000E+00  0.00000000000E+00  0.45593999997E+02  0.45594000000E+02  0.51100000000E-03 0.  1.
         11   -1    0    0    0    0 -0.00000000000E+00 -0.00000000000E+00 -0.45593999997E+02  0.45594000000E+02  0.51100000000E-03 0. -1.
    9900012    2    1    2    0    0  0.16159925071E+02 -0.20366281541E+02 -0.31260754694E+02  0.50528888031E+02  0.30000085658E+02 0.  0.
        -12    1    1    2    0    0 -0.16159925071E+02  0.20366281541E+02  0.31260754694E+02  0.40659111969E+02  0.00000000000E+00 0.  1.
         11    1    3    3    0    0  0.10390595229E+02  0.22691460130E+01 -0.62224487929E+01  0.12322027515E+02  0.51100000000E-03 0. -1.
        -11    1    3    3    0    0  0.66597876066E+01 -0.52215581423E+00 -0.67546279830E+01  0.95000219531E+01  0.51100000000E-03 0.  1.
        -12    1    3    3    0    0 -0.89045776398E+00 -0.22113271740E+02 -0.18283677918E+02  0.28706838563E+02  0.00000000000E+00 0.  1.
</event>
<event>
 7    1  0.6857839E-013  0.5052886E+02  0.7816164E-02  0.1300439E+00
        -11   -1    0    0    0    0  0.00000000000E+00  0.00000000000E+00  0.45593999997E+02  0.45594000000E+02  0.51100000000E-03 0.  1.
         11   -1    0    0    0    0 -0.00000000000E+00 -0.00000000000E+00 -0.45593999997E+02  0.45594000000E+02  0.51100000000E-03 0. -1.
    9900012    2    1    2    0    0  0.97479243764E+00 -0.28492982832E+02 -0.28989054331E+02  0.50528861274E+02  0.30000004327E+02 0.  0.
        -12    1    1    2    0    0 -0.97479243764E+00  0.28492982832E+02  0.28989054331E+02  0.40659138726E+02  0.00000000000E+00 0.  1.
         11    1    3    3    0    0 -0.53428643616E+01 -0.48150010294E+01 -0.12932283733E+02  0.14797783527E+02  0.51100000000E-03 0. -1.
        -11    1    3    3    0    0  0.14573259546E+01  0.35744792702E+01 -0.39307979300E+01  0.55092534538E+01  0.51100000000E-03 0.  1.
        -12    1    3    3    0    0  0.48603308446E+01 -0.27252461073E+02 -0.12125972669E+02  0.30221824293E+02  0.00000000000E+00 0.  1.
</event>
<event>
 7    1  0.6857839E-013  0.5052887E+02  0.7816164E-02  0.1300439E+00
        -11   -1    0    0    0    0  0.00000000000E+00  0.00000000000E+00  0.45593999997E+02  0.45594000000E+02  0.51100000000E-03 0.  1.
         11   -1    0    0    0    0 -0.00000000000E+00 -0.00000000000E+00 -0.45593999997E+02  0.45594000000E+02  0.51100000000E-03 0. -1.
    9900012    2    1    2    0    0 -0.30647622235E+02  0.23705746826E+02 -0.12325804147E+02  0.50528872745E+02  0.30000039196E+02 0.  0.
        -12    1    1    2    0    0  0.30647622235E+02 -0.23705746826E+02  0.12325804147E+02  0.40659127255E+02  0.00000000000E+00 0.  1.
         11    1    3    3    0    0  0.34538491093E+01  0.12409491315E+01 -0.28913514266E+01  0.46721453049E+01  0.51100000000E-03 0. -1.
        -11    1    3    3    0    0 -0.24314290029E+02  0.49517046945E+01 -0.52100451294E+01  0.25354460150E+02  0.51100000000E-03 0.  1.
         12    1    3    3    0    0 -0.97871813153E+01  0.17513093000E+02 -0.42244075914E+01  0.20502267290E+02  0.00000000000E+00 0. -1.
</event>
<event>
 7    1  0.6857839E-013  0.5052885E+02  0.7816164E-02  0.1300439E+00
        -11   -1    0    0    0    0  0.00000000000E+00  0.00000000000E+00  0.45593999997E+02  0.45594000000E+02  0.51100000000E-03 0.  1.
         11   -1    0    0    0    0 -0.00000000000E+00 -0.00000000000E+00 -0.45593999997E+02  0.45594000000E+02  0.51100000000E-03 0. -1.
    9900012    2    1    2    0    0 -0.95863482588E+01 -0.19724207472E+02 -0.34237762117E+02  0.50528846195E+02  0.29999958495E+02 0.  0.
        -12    1    1    2    0    0  0.95863482588E+01  0.19724207472E+02  0.34237762117E+02  0.40659153805E+02  0.00000000000E+00 0.  1.
         11    1    3    3    0    0  0.40447625167E+01 -0.93073283214E+01 -0.70495404271E+01  0.12356475420E+02  0.51100000000E-03 0. -1.
        -11    1    3    3    0    0 -0.50345407440E+01  0.24758007200E+01  0.12849683535E+01  0.57556349466E+01  0.51100000000E-03 0.  1.
         12    1    3    3    0    0 -0.85965700315E+01 -0.12892679870E+02 -0.28473190044E+02  0.32416735829E+02  0.00000000000E+00 0. -1.
</event>
<event>
 7    1  0.6857839E-013  0.5052886E+02  0.7816164E-02  0.1300439E+00
        -11   -1    0    0    0    0  0.00000000000E+00  0.00000000000E+00  0.45593999997E+02  0.45594000000E+02  0.51100000000E-03 0.  1.
         11   -1    0    0    0    0 -0.00000000000E+00 -0.00000000000E+00 -0.45593999997E+02  0.45594000000E+02  0.51100000000E-03 0. -1.
    9900012    2    1    2    0    0 -0.40284572690E+02  0.36736403826E+01 -0.41015729316E+01  0.50528864114E+02  0.30000012961E+02 0.  0.
        -12    1    1    2    0    0  0.40284572690E+02 -0.36736403826E+01  0.41015729316E+01  0.40659135886E+02  0.00000000000E+00 0.  1.
         11    1    3    3    0    0 -0.49245826493E+01  0.10565237530E+01 -0.64113853728E+01  0.81531355545E+01  0.51100000000E-03 0.  1.
        -11    1    3    3    0    0 -0.14451937276E+02 -0.10290538447E+02  0.98924913480E+00  0.17768857213E+02  0.51100000000E-03 0. -1.
         12    1    3    3    0    0 -0.20908052765E+02  0.12907655077E+02  0.13205633064E+01  0.24606871346E+02  0.00000000000E+00 0. -1.
</event>
<event>
 7    1  0.6857839E-013  0.5052885E+02  0.7816164E-02  0.1300439E+00
        -11   -1    0    0    0    0  0.00000000000E+00  0.00000000000E+00  0.45593999997E+02  0.45594000000E+02  0.51100000000E-03 0.  1.
         11   -1    0    0    0    0 -0.00000000000E+00 -0.00000000000E+00 -0.45593999997E+02  0.45594000000E+02  0.51100000000E-03 0. -1.
    9900012    2    1    2    0    0 -0.22890134878E+02 -0.27856196903E+02 -0.18794684780E+02  0.50528853961E+02  0.29999982101E+02 0.  0.
        -12    1    1    2    0    0  0.22890134878E+02  0.27856196903E+02  0.18794684780E+02  0.40659146039E+02  0.00000000000E+00 0.  1.
         11    1    3    3    0    0 -0.11769108651E+02 -0.19071324278E+02 -0.24075461402E+02  0.32891566855E+02  0.51100000000E-03 0. -1.
        -11    1    3    3    0    0  0.16198139674E+00  0.14664972806E+01  0.10678160686E+01  0.18212862665E+01  0.51100000000E-03 0.  1.
        -12    1    3    3    0    0 -0.11283007623E+02 -0.10251369906E+02  0.42129605533E+01  0.15816000840E+02  0.00000000000E+00 0.  1.
</event>
<event>
 7    1  0.6857839E-013  0.5052888E+02  0.7816164E-02  0.1300439E+00
        -11   -1    0    0    0    0  0.00000000000E+00  0.00000000000E+00  0.45593999997E+02  0.45594000000E+02  0.51100000000E-03 0.  1.
         11   -1    0    0    0    0 -0.00000000000E+00 -0.00000000000E+00 -0.45593999997E+02  0.45594000000E+02  0.51100000000E-03 0. -1.
    9900012    2    1    2    0    0  0.38817511372E+02 -0.11673025110E+02  0.31789186158E+01  0.50528877679E+02  0.30000054193E+02 0.  0.
        -12    1    1    2    0    0 -0.38817511372E+02  0.11673025110E+02 -0.31789186158E+01  0.40659122321E+02  0.00000000000E+00 0.  1.
         11    1    3    3    0    0  0.18243773219E+02 -0.10687426204E+02  0.79610560587E+01  0.22592803145E+02  0.51100000000E-03 0. -1.
        -11    1    3    3    0    0  0.50748761741E+01  0.97265023616E+00  0.67628242472E+01  0.85109464059E+01  0.51100000000E-03 0.  1.
         12    1    3    3    0    0  0.15498861979E+02 -0.19582491425E+01 -0.11544961690E+02  0.19425128128E+02  0.00000000000E+00 0. -1.
</event>
<event>
 7    1  0.6857839E-013  0.5052885E+02  0.7816164E-02  0.1300439E+00
        -11   -1    0    0    0    0  0.00000000000E+00  0.00000000000E+00  0.45593999997E+02  0.45594000000E+02  0.51100000000E-03 0. -1.
         11   -1    0    0    0    0 -0.00000000000E+00 -0.00000000000E+00 -0.45593999997E+02  0.45594000000E+02  0.51100000000E-03 0.  1.
    9900012    2    1    2    0    0  0.98590624138E+01 -0.98016269001E+01  0.38208552486E+02  0.50528849927E+02  0.29999969838E+02 0.  0.
        -12    1    1    2    0    0 -0.98590624138E+01  0.98016269001E+01 -0.38208552486E+02  0.40659150073E+02  0.00000000000E+00 0.  1.
         11    1    3    3    0    0  0.88447710354E+01  0.45489594430E+01  0.25610121448E+02  0.27473647875E+02  0.51100000000E-03 0. -1.
        -11    1    3    3    0    0  0.18055002466E+01  0.23506900987E+00  0.72891939652E+01  0.75131509703E+01  0.51100000000E-03 0.  1.
        -12    1    3    3    0    0 -0.79120886820E+00 -0.14585655353E+02  0.53092370727E+01  0.15542051082E+02  0.00000000000E+00 0.  1.
</event>
<event>
 7    1  0.6857839E-013  0.5052886E+02  0.7816164E-02  0.1300439E+00
        -11   -1    0    0    0    0  0.00000000000E+00  0.00000000000E+00  0.45593999997E+02  0.45594000000E+02  0.51100000000E-03 0. -1.
         11   -1    0    0    0    0 -0.00000000000E+00 -0.00000000000E+00 -0.45593999997E+02  0.45594000000E+02  0.51100000000E-03 0.  1.
    9900012    2    1    2    0    0 -0.24900376587E+02  0.24397947041E+02  0.20925515600E+02  0.50528858628E+02  0.29999996286E+02 0.  0.
        -12    1    1    2    0    0  0.24900376587E+02 -0.24397947041E+02 -0.20925515600E+02  0.40659141372E+02  0.00000000000E+00 0.  1.
         11    1    3    3    0    0 -0.20483511500E+02  0.14174357337E+02  0.19186328322E+02  0.31442039438E+02  0.51100000000E-03 0. -1.
        -11    1    3    3    0    0 -0.80439792939E+01  0.77560275968E+01  0.62427759781E+01  0.12799758558E+02  0.51100000000E-03 0.  1.
        -12    1    3    3    0    0  0.36271142065E+01  0.24675621069E+01 -0.45035887002E+01  0.62870606327E+01  0.00000000000E+00 0.  1.
</event>
<event>
 7    1  0.6857839E-013  0.5052886E+02  0.7816164E-02  0.1300439E+00
        -11   -1    0    0    0    0  0.00000000000E+00  0.00000000000E+00  0.45593999997E+02  0.45594000000E+02  0.51100000000E-03 0.  1.
         11   -1    0    0    0    0 -0.00000000000E+00 -0.00000000000E+00 -0.45593999997E+02  0.45594000000E+02  0.51100000000E-03 0. -1.
    9900012    2    1    2    0    0 -0.28010047797E+02 -0.19454463410E+02 -0.22138806442E+02  0.50528859885E+02  0.30000000108E+02 0.  0.
        -12    1    1    2    0    0  0.28010047797E+02  0.19454463410E+02  0.22138806442E+02  0.40659140115E+02  0.00000000000E+00 0.  1.
         11    1    3    3    0    0 -0.94288667903E+01 -0.11050579763E+01 -0.13551314068E+02  0.16545778777E+02  0.51100000000E-03 0. -1.
        -11    1    3    3    0    0  0.34914890179E+01 -0.23796542459E+01 -0.49327702606E+01  0.64950344570E+01  0.51100000000E-03 0.  1.
        -12    1    3    3    0    0 -0.22072670025E+02 -0.15969751188E+02 -0.36547221132E+01  0.27488046652E+02  0.00000000000E+00 0.  1.
</event>
<event>
 7    1  0.6857839E-013  0.5052887E+02  0.7816164E-02  0.1300439E+00
        -11   -1    0    0    0    0  0.00000000000E+00  0.00000000000E+00  0.45593999997E+02  0.45594000000E+02  0.51100000000E-03 0.  1.
         11   -1    0    0    0    0 -0.00000000000E+00 -0.00000000000E+00 -0.45593999997E+02  0.45594000000E+02  0.51100000000E-03 0. -1.
    9900012    2    1    2    0    0 -0.38890341188E+02  0.32379973620E+01  0.11411479191E+02  0.50528866685E+02  0.30000020774E+02 0.  0.
        -12    1    1    2    0    0  0.38890341188E+02 -0.32379973620E+01 -0.11411479191E+02  0.40659133315E+02  0.00000000000E+00 0.  1.
         11    1    3    3    0    0 -0.19364597697E+02 -0.13216966902E+01 -0.34123870444E+01  0.19707331420E+02  0.51100000000E-03 0. -1.
        -11    1    3    3    0    0 -0.18013913902E+02  0.74638299174E+01  0.45282529082E+01  0.20017865165E+02  0.51100000000E-03 0.  1.
        -12    1    3    3    0    0 -0.15118295892E+01 -0.29041358652E+01  0.10295613327E+02  0.10803670099E+02  0.00000000000E+00 0.  1.
</event>
<event>
 7    1  0.6857839E-013  0.5052886E+02  0.7816164E-02  0.1300439E+00
        -11   -1    0    0    0    0  0.00000000000E+00  0.00000000000E+00  0.45593999997E+02  0.45594000000E+02  0.51100000000E-03 0. -1.
         11   -1    0    0    0    0 -0.00000000000E+00 -0.00000000000E+00 -0.45593999997E+02  0.45594000000E+02  0.51100000000E-03 0.  1.
    9900012    2    1    2    0    0 -0.39188923140E+02 -0.10343226424E+02  0.32267029634E+01  0.50528860292E+02  0.30000001345E+02 0.  0.
        -12    1    1    2    0    0  0.39188923140E+02  0.10343226424E+02 -0.32267029634E+01  0.40659139708E+02  0.00000000000E+00 0.  1.
         11    1    3    3    0    0 -0.11700036144E+02 -0.13047010780E+02  0.27202585001E+01  0.17734574780E+02  0.51100000000E-03 0. -1.
        -11    1    3    3    0    0 -0.97797531687E+01 -0.73792833514E+01  0.17605344351E+01  0.12377272582E+02  0.51100000000E-03 0.  1.
        -12    1    3    3    0    0 -0.17709133827E+02  0.10083067707E+02 -0.12540899718E+01  0.20417012929E+02  0.00000000000E+00 0.  1.
</event>
<event>
 7    1  0.6857839E-013  0.5052886E+02  0.7816164E-02  0.1300439E+00
        -11   -1    0    0    0    0  0.00000000000E+00  0.00000000000E+00  0.45593999997E+02  0.45594000000E+02  0.51100000000E-03 0. -1.
         11   -1    0    0    0    0 -0.00000000000E+00 -0.00000000000E+00 -0.45593999997E+02  0.45594000000E+02  0.51100000000E-03 0.  1.
    9900012    2    1    2    0    0  0.18879765833E+02 -0.35300084155E+02  0.71150890694E+01  0.50528855989E+02  0.29999988263E+02 0.  0.
        -12    1    1    2    0    0 -0.18879765833E+02  0.35300084155E+02 -0.71150890694E+01  0.40659144011E+02  0.00000000000E+00 0.  1.
         11    1    3    3    0    0  0.19285442500E+01 -0.96647973690E+01 -0.30557040557E+01  0.10318183883E+02  0.51100000000E-03 0. -1.
        -11    1    3    3    0    0  0.85061369292E+01 -0.26453507453E+02  0.13748430335E+02  0.31002608906E+02  0.51100000000E-03 0.  1.
        -12    1    3    3    0    0  0.84450846542E+01  0.81822066713E+00 -0.35776372103E+01  0.92080631995E+01  0.00000000000E+00 0.  1.
</event>
<event>
 7    1  0.6857839E-013  0.5052884E+02  0.7816164E-02  0.1300439E+00
        -11   -1    0    0    0    0  0.00000000000E+00  0.00000000000E+00  0.45593999997E+02  0.45594000000E+02  0.51100000000E-03 0.  1.
         11   -1    0    0    0    0 -0.00000000000E+00 -0.00000000000E+00 -0.45593999997E+02  0.45594000000E+02  0.51100000000E-03 0. -1.
    9900012    2    1    2    0    0 -0.75484370183E+01 -0.20728542244E+02 -0.34154295663E+02  0.50528840180E+02  0.29999940212E+02 0.  0.
        -12    1    1    2    0    0  0.75484370183E+01  0.20728542244E+02  0.34154295663E+02  0.40659159820E+02  0.00000000000E+00 0.  1.
         11    1    3    3    0    0 -0.74318856124E+01 -0.24379307141E+02 -0.23742741967E+02  0.34832475318E+02  0.51100000000E-03 0. -1.
        -11    1    3    3    0    0  0.16741343080E+01 -0.28984748583E+01 -0.98127284542E-01  0.33486581508E+01  0.51100000000E-03 0.  1.
        -12    1    3    3    0    0 -0.17906857140E+01  0.65492397547E+01 -0.10313426411E+02  0.12347706711E+02  0.00000000000E+00 0.  1.
</event>
<event>
 7    1  0.6857839E-013  0.5052885E+02  0.7816164E-02  0.1300439E+00
        -11   -1    0    0    0    0  0.00000000000E+00  0.00000000000E+00  0.45593999997E+02  0.45594000000E+02  0.51100000000E-03 0.  1.
         11   -1    0    0    0    0 -0.00000000000E+00 -0.00000000000E+00 -0.45593999997E+02  0.45594000000E+02  0.51100000000E-03 0. -1.
    9900012    2    1    2    0    0 -0.21346070257E+02 -0.75527181714E+01 -0.33770814947E+02  0.50528853312E+02  0.29999980128E+02 0.  0.
        -12    1    1    2    0    0  0.21346070257E+02  0.75527181714E+01  0.33770814947E+02  0.40659146688E+02  0.00000000000E+00 0.  1.
         11    1    3    3    0    0 -0.10726624330E+02 -0.29774077197E+01 -0.20100904507E+02  0.22977636704E+02  0.51100000000E-03 0. -1.
        -11    1    3    3    0    0 -0.81462302336E+01 -0.10207292660E+02 -0.56171726649E+00  0.13071549909E+02  0.51100000000E-03 0.  1.
         12    1    3    3    0    0 -0.24732156935E+01  0.56319822082E+01 -0.13108193173E+02  0.14479666700E+02  0.00000000000E+00 0. -1.
</event>
<event>
 7    1  0.6857839E-013  0.5052886E+02  0.7816164E-02  0.1300439E+00
        -11   -1    0    0    0    0  0.00000000000E+00  0.00000000000E+00  0.45593999997E+02  0.45594000000E+02  0.51100000000E-03 0.  1.
         11   -1    0    0    0    0 -0.00000000000E+00 -0.00000000000E+00 -0.45593999997E+02  0.45594000000E+02  0.51100000000E-03 0. -1.
    9900012    2    1    2    0    0 -0.25982099597E+02  0.71366218561E+01 -0.30449383534E+02  0.50528857995E+02  0.29999994363E+02 0.  0.
        -12    1    1    2    0    0  0.25982099597E+02 -0.71366218561E+01  0.30449383534E+02  0.40659142005E+02  0.00000000000E+00 0.  1.
         11    1    3    3    0    0 -0.14208777138E+02  0.37858821714E+01 -0.22608852967E+02  0.26970029372E+02  0.51100000000E-03 0. -1.
        -11    1    3    3    0    0 -0.13356249586E+02  0.82817140989E+01 -0.91923719069E+01  0.18206479423E+02  0.51100000000E-03 0.  1.
        -12    1    3    3    0    0  0.15829271280E+01 -0.49309744141E+01  0.13518413395E+01  0.53523492012E+01  0.00000000000E+00 0.  1.
</event>
<event>
 7    1  0.6857839E-013  0.5052886E+02  0.7816164E-02  0.1300439E+00
        -11   -1    0    0    0    0  0.00000000000E+00  0.00000000000E+00  0.45593999997E+02  0.45594000000E+02  0.51100000000E-03 0.  1.
         11   -1    0    0    0    0 -0.00000000000E+00 -0.00000000000E+00 -0.45593999997E+02  0.45594000000E+02  0.51100000000E-03 0. -1.
    9900012    2    1    2    0    0  0.28867293553E+02  0.94210988968E+01 -0.27038644392E+02  0.50528855493E+02  0.29999986756E+02 0.  0.
        -12    1    1    2    0    0 -0.28867293553E+02 -0.94210988968E+01  0.27038644392E+02  0.40659144507E+02  0.00000000000E+00 0.  1.
         11    1    3    3    0    0  0.12518814678E+02  0.27555628662E+01 -0.96429199980E+01  0.16040565888E+02  0.51100000000E-03 0. -1.
        -11    1    3    3    0    0  0.40794195863E+01  0.12633269023E+02 -0.15974840049E+02  0.20771053542E+02  0.51100000000E-03 0.  1.
        -12    1    3    3    0    0  0.12269059289E+02 -0.59677329927E+01 -0.14208843449E+01  0.13717236063E+02  0.00000000000E+00 0.  1.
</event>
<event>
 7    1  0.6857839E-013  0.5052890E+02  0.7816164E-02  0.1300439E+00
        -11   -1    0    0    0    0  0.00000000000E+00  0.00000000000E+00  0.45593999997E+02  0.45594000000E+02  0.51100000000E-03 0.  1.
         11   -1    0    0    0    0 -0.00000000000E+00 -0.00000000000E+00 -0.45593999997E+02  0.45594000000E+02  0.51100000000E-03 0. -1.
    9900012    2    1    2    0    0  0.17085765215E+02 -0.91193460509E+01 -0.35750191869E+02  0.50528904288E+02  0.30000135075E+02 0.  0.
        -12    1    1    2    0    0 -0.17085765215E+02  0.91193460509E+01  0.35750191869E+02  0.40659095712E+02  0.00000000000E+00 0.  1.
         11    1    3    3    0    0 -0.50497571151E+00 -0.43950429119E+01 -0.11820909654E+02  0.12621620656E+02  0.51100000000E-03 0. -1.
        -11    1    3    3    0    0 -0.41927092025E+01 -0.11467267244E+01  0.11501309308E+01  0.44962866964E+01  0.51100000000E-03 0.  1.
         12    1    3    3    0    0  0.21783450129E+02 -0.35775764147E+01 -0.25079413146E+02  0.33410996936E+02  0.00000000000E+00 0. -1.
</event>
<event>
 7    1  0.6857839E-013  0.5052886E+02  0.7816164E-02  0.1300439E+00
        -11   -1    0    0    0    0  0.00000000000E+00  0.00000000000E+00  0.45593999997E+02  0.45594000000E+02  0.51100000000E-03 0.  1.
         11   -1    0    0    0    0 -0.00000000000E+00 -0.00000000000E+00 -0.45593999997E+02  0.45594000000E+02  0.51100000000E-03 0. -1.
    9900012    2    1    2    0    0  0.19065651599E+02 -0.31268537865E+02 -0.17661963742E+02  0.50528862106E+02  0.30000006857E+02 0.  0.
        -12    1    1    2    0    0 -0.19065651599E+02  0.31268537865E+02  0.17661963742E+02  0.40659137894E+02  0.00000000000E+00 0.  1.
         11    1    3    3    0    0  0.32658361254E+01 -0.95042136891E+01 -0.10049401987E+02  0.14212186461E+02  0.51100000000E-03 0. -1.
        -11    1    3    3    0    0  0.86468769157E+00 -0.20339243131E+02 -0.27336024433E+01  0.20540328102E+02  0.51100000000E-03 0.  1.
         12    1    3    3    0    0  0.14935127782E+02 -0.14250810443E+01 -0.48789593115E+01  0.15776347543E+02  0.00000000000E+00 0. -1.
</event>
<event>
 7    1  0.6857839E-013  0.5052886E+02  0.7816164E-02  0.1300439E+00
        -11   -1    0    0    0    0  0.00000000000E+00  0.00000000000E+00  0.45593999997E+02  0.45594000000E+02  0.51100000000E-03 0. -1.
         11   -1    0    0    0    0 -0.00000000000E+00 -0.00000000000E+00 -0.45593999997E+02  0.45594000000E+02  0.51100000000E-03 0.  1.
    9900012    2    1    2    0    0 -0.29270857578E+01 -0.22459895385E+02  0.33766123002E+02  0.50528858416E+02  0.29999995641E+02 0.  0.
        -12    1    1    2    0    0  0.29270857578E+01  0.22459895385E+02 -0.33766123002E+02  0.40659141584E+02  0.00000000000E+00 0.  1.
         11    1    3    3    0    0 -0.10015131656E+02 -0.81293361699E+01  0.14186975629E+02  0.19174442531E+02  0.51100000000E-03 0. -1.
        -11    1    3    3    0    0 -0.11633353950E+01 -0.97727505858E+01  0.24511873286E+00  0.98447999831E+01  0.51100000000E-03 0.  1.
         12    1    3    3    0    0  0.82513812929E+01 -0.45578086297E+01  0.19334028641E+02  0.21509615901E+02  0.00000000000E+00 0. -1.
</event>
<event>
 7    1  0.6857839E-013  0.5052886E+02  0.7816164E-02  0.1300439E+00
        -11   -1    0    0    0    0  0.00000000000E+00  0.00000000000E+00  0.45593999997E+02  0.45594000000E+02  0.51100000000E-03 0.  1.
         11   -1    0    0    0    0 -0.00000000000E+00 -0.00000000000E+00 -0.45593999997E+02  0.45594000000E+02  0.51100000000E-03 0. -1.
    9900012    2    1    2    0    0 -0.10192443670E+02 -0.12683273492E+02 -0.37261430158E+02  0.50528861890E+02  0.30000006200E+02 0.  0.
        -12    1    1    2    0    0  0.10192443670E+02  0.12683273492E+02  0.37261430158E+02  0.40659138110E+02  0.00000000000E+00 0.  1.
         11    1    3    3    0    0  0.22237104063E+01 -0.25472075776E+01 -0.19838553671E+02  0.20124645747E+02  0.51100000000E-03 0. -1.
        -11    1    3    3    0    0  0.19648653395E+01 -0.88689208456E+01 -0.20444293708E+01  0.93111838389E+01  0.51100000000E-03 0.  1.
         12    1    3    3    0    0 -0.14381019416E+02 -0.12671450685E+01 -0.15378447116E+02  0.21093032304E+02  0.00000000000E+00 0. -1.
</event>
<event>
 7    1  0.6857839E-013  0.5052890E+02  0.7816164E-02  0.1300439E+00
        -11   -1    0    0    0    0  0.00000000000E+00  0.00000000000E+00  0.45593999997E+02  0.45594000000E+02  0.51100000000E-03 0. -1.
         11   -1    0    0    0    0 -0.00000000000E+00 -0.00000000000E+00 -0.45593999997E+02  0.45594000000E+02  0.51100000000E-03 0.  1.
    9900012    2    1    2    0    0  0.36339289936E+02  0.25291092733E+01  0.18061610686E+02  0.50528903019E+02  0.30000131216E+02 0.  0.
        -12    1    1    2    0    0 -0.36339289936E+02 -0.25291092733E+01 -0.18061610686E+02  0.40659096981E+02  0.00000000000E+00 0.  1.
         11    1    3    3    0    0  0.11523181610E+02  0.12444085856E+02  0.15185185237E+02  0.22764640084E+02  0.51100000000E-03 0. -1.
        -11    1    3    3    0    0  0.21779396126E+01 -0.60949835910E+00 -0.17439283258E+01  0.28559053682E+01  0.51100000000E-03 0.  1.
        -12    1    3    3    0    0  0.22638168714E+02 -0.93054782235E+01  0.46203537748E+01  0.24908357567E+02  0.00000000000E+00 0.  1.
</event>
<event>
 7    1  0.6857839E-013  0.5052886E+02  0.7816164E-02  0.1300439E+00
        -11   -1    0    0    0    0  0.00000000000E+00  0.00000000000E+00  0.45593999997E+02  0.45594000000E+02  0.51100000000E-03 0.  1.
         11   -1    0    0    0    0 -0.00000000000E+00 -0.00000000000E+00 -0.45593999997E+02  0.45594000000E+02  0.51100000000E-03 0. -1.
    9900012    2    1    2    0    0  0.30864109385E+02 -0.97127241742E+00 -0.26450508053E+02  0.50528855955E+02  0.29999988162E+02 0.  0.
        -12    1    1    2    0    0 -0.30864109385E+02  0.97127241742E+00  0.26450508053E+02  0.40659144045E+02  0.00000000000E+00 0.  1.
         11    1    3    3    0    0  0.20228866836E+02  0.65067684785E+01 -0.29445752913E+02  0.36312497220E+02  0.51100000000E-03 0. -1.
        -11    1    3    3    0    0  0.13366796058E+01 -0.34239575062E+01  0.14688749278E+01  0.39582560791E+01  0.51100000000E-03 0.  1.
        -12    1    3    3    0    0  0.92985629428E+01 -0.40540833897E+01  0.15263699325E+01  0.10258102656E+02  0.00000000000E+00 0.  1.
</event>
<event>
 7    1  0.6857839E-013  0.5052886E+02  0.7816164E-02  0.1300439E+00
        -11   -1    0    0    0    0  0.00000000000E+00  0.00000000000E+00  0.45593999997E+02  0.45594000000E+02  0.51100000000E-03 0.  1.
         11   -1    0    0    0    0 -0.00000000000E+00 -0.00000000000E+00 -0.45593999997E+02  0.45594000000E+02  0.51100000000E-03 0. -1.
    9900012    2    1    2    0    0 -0.60687701359E+01  0.17601330179E+02 -0.36145942553E+02  0.50528856403E+02  0.29999989523E+02 0.  0.
        -12    1    1    2    0    0  0.60687701359E+01 -0.17601330179E+02  0.36145942553E+02  0.40659143597E+02  0.00000000000E+00 0.  1.
         11    1    3    3    0    0 -0.40343602397E+01 -0.31145788902E+01 -0.61605645057E+01  0.79955749948E+01  0.51100000000E-03 0. -1.
        -11    1    3    3    0    0 -0.11535720946E+02  0.91223321054E+01 -0.11118315469E+02  0.18436559872E+02  0.51100000000E-03 0.  1.
         12    1    3    3    0    0  0.95013110499E+01  0.11593576963E+02 -0.18867062578E+02  0.24096721536E+02  0.00000000000E+00 0. -1.
</event>
<event>
 7    1  0.7808041E-013  0.5052888E+02  0.7816164E-02  0.1300439E+00
        -11   -1    0    0    0    0  0.00000000000E+00  0.00000000000E+00  0.45593999997E+02  0.45594000000E+02  0.51100000000E-03 0.  1.
         11   -1    0    0    0    0 -0.00000000000E+00 -0.00000000000E+00 -0.45593999997E+02  0.45594000000E+02  0.51100000000E-03 0. -1.
    9900012    2    1    2    0    0 -0.35358170073E+02 -0.18493169325E+01 -0.19988603124E+02  0.50528875331E+02  0.30000047057E+02 0.  0.
        -12    1    1    2    0    0  0.35358170073E+02  0.18493169325E+01  0.19988603124E+02  0.40659124669E+02  0.00000000000E+00 0.  1.
         11    1    3    3    0    0 -0.11987268307E+02 -0.22325827029E+01 -0.18732033209E+02  0.22351020008E+02  0.51100000000E-03 0. -1.
        -11    1    3    3    0    0  0.22005385874E+01 -0.39465371388E+00  0.10899654737E+01  0.24871965389E+01  0.51100000000E-03 0.  1.
        -12    1    3    3    0    0 -0.25571440353E+02  0.77791948436E+00 -0.23465353885E+01  0.25690658784E+02  0.00000000000E+00 0.  1.
</event>
<event>
 7    1  0.6857839E-013  0.5052886E+02  0.7816164E-02  0.1300439E+00
        -11   -1    0    0    0    0  0.00000000000E+00  0.00000000000E+00  0.45593999997E+02  0.45594000000E+02  0.51100000000E-03 0.  1.
         11   -1    0    0    0    0 -0.00000000000E+00 -0.00000000000E+00 -0.45593999997E+02  0.45594000000E+02  0.51100000000E-03 0. -1.
    9900012    2    1    2    0    0  0.33045472222E+02 -0.23388414118E+02 -0.37609160631E+01  0.50528860327E+02  0.30000001449E+02 0.  0.
        -12    1    1    2    0    0 -0.33045472222E+02  0.23388414118E+02  0.37609160631E+01  0.40659139673E+02  0.00000000000E+00 0.  1.
         11    1    3    3    0    0  0.23795492361E+02 -0.25132537650E+02  0.67175744749E+01  0.35256144323E+02  0.51100000000E-03 0. -1.
        -11    1    3    3    0    0 -0.84367732710E+00  0.22989302096E+00 -0.11555137328E+01  0.14490874650E+01  0.51100000000E-03 0.  1.
         12    1    3    3    0    0  0.10093657188E+02  0.15142305107E+01 -0.93229768052E+01  0.13823628539E+02  0.00000000000E+00 0. -1.
</event>
<event>
 7    1  0.6857839E-013  0.5052886E+02  0.7816164E-02  0.1300439E+00
        -11   -1    0    0    0    0  0.00000000000E+00  0.00000000000E+00  0.45593999997E+02  0.45594000000E+02  0.51100000000E-03 0. -1.
         11   -1    0    0    0    0 -0.00000000000E+00 -0.00000000000E+00 -0.45593999997E+02  0.45594000000E+02  0.51100000000E-03 0.  1.
    9900012    2    1    2    0    0  0.54476950752E+01  0.15153499514E+02  0.37334428726E+02  0.50528862067E+02  0.30000006739E+02 0.  0.
        -12    1    1    2    0    0 -0.54476950752E+01 -0.15153499514E+02 -0.37334428726E+02  0.40659137933E+02  0.00000000000E+00 0.  1.
         11    1    3    3    0    0  0.26556379034E+01  0.27864735677E-01  0.18175691177E+02  0.18368694541E+02  0.51100000000E-03 0. -1.
        -11    1    3    3    0    0  0.10225490857E+02  0.21772209457E+01  0.50196950779E+01  0.11597339921E+02  0.51100000000E-03 0.  1.
         12    1    3    3    0    0 -0.74334336849E+01  0.12948413833E+02  0.14139042471E+02  0.20562827606E+02  0.00000000000E+00 0. -1.
</event>
<event>
 7    1  0.6857839E-013  0.5052887E+02  0.7816164E-02  0.1300439E+00
        -11   -1    0    0    0    0  0.00000000000E+00  0.00000000000E+00  0.45593999997E+02  0.45594000000E+02  0.51100000000E-03 0.  1.
         11   -1    0    0    0    0 -0.00000000000E+00 -0.00000000000E+00 -0.45593999997E+02  0.45594000000E+02  0.51100000000E-03 0. -1.
    9900012    2    1    2    0    0  0.96316646452E+01  0.65322569060E+01 -0.38957993712E+02  0.50528872880E+02  0.30000039605E+02 0.  0.
        -12    1    1    2    0    0 -0.96316646452E+01 -0.65322569060E+01  0.38957993712E+02  0.40659127120E+02  0.00000000000E+00 0.  1.
         11    1    3    3    0    0  0.61280266532E+01 -0.59645204057E+01 -0.84982939949E+01  0.12056086240E+02  0.51100000000E-03 0. -1.
        -11    1    3    3    0    0 -0.62284317054E+01  0.75610928788E+01 -0.55058229468E+01  0.11237329470E+02  0.51100000000E-03 0.  1.
         12    1    3    3    0    0  0.97320696974E+01  0.49356844329E+01 -0.24953876770E+02  0.27235457170E+02  0.00000000000E+00 0. -1.
</event>
<event>
 7    1  0.6857839E-013  0.5052886E+02  0.7816164E-02  0.1300439E+00
        -11   -1    0    0    0    0  0.00000000000E+00  0.00000000000E+00  0.45593999997E+02  0.45594000000E+02  0.51100000000E-03 0.  1.
         11   -1    0    0    0    0 -0.00000000000E+00 -0.00000000000E+00 -0.45593999997E+02  0.45594000000E+02  0.51100000000E-03 0. -1.
    9900012    2    1    2    0    0  0.14747315876E+02  0.32384338715E+02 -0.19670712934E+02  0.50528859984E+02  0.30000000406E+02 0.  0.
        -12    1    1    2    0    0 -0.14747315876E+02 -0.32384338715E+02  0.19670712934E+02  0.40659140016E+02  0.00000000000E+00 0.  1.
         11    1    3    3    0    0  0.21735712755E+02  0.18693924116E+02 -0.10130776378E+02  0.30406194074E+02  0.51100000000E-03 0. -1.
        -11    1    3    3    0    0  0.36499612787E+00  0.89319875475E+01 -0.52891216194E+01  0.10386935616E+02  0.51100000000E-03 0.  1.
        -12    1    3    3    0    0 -0.73533930069E+01  0.47584270513E+01 -0.42508149368E+01  0.97357302933E+01  0.00000000000E+00 0.  1.
</event>
<event>
 7    1  0.6857839E-013  0.5052886E+02  0.7816164E-02  0.1300439E+00
        -11   -1    0    0    0    0  0.00000000000E+00  0.00000000000E+00  0.45593999997E+02  0.45594000000E+02  0.51100000000E-03 0.  1.
         11   -1    0    0    0    0 -0.00000000000E+00 -0.00000000000E+00 -0.45593999997E+02  0.45594000000E+02  0.51100000000E-03 0. -1.
    9900012    2    1    2    0    0  0.30909595110E+02  0.32337020734E+01 -0.26216524545E+02  0.50528855172E+02  0.29999985780E+02 0.  0.
        -12    1    1    2    0    0 -0.30909595110E+02 -0.32337020734E+01  0.26216524545E+02  0.40659144828E+02  0.00000000000E+00 0.  1.
         11    1    3    3    0    0  0.97804231806E+01 -0.21184399088E+01 -0.18461527862E+02  0.20999344668E+02  0.51100000000E-03 0. -1.
        -11    1    3    3    0    0  0.45009868442E+01  0.10219201153E+02 -0.31377696112E+01  0.11598989317E+02  0.51100000000E-03 0.  1.
        -12    1    3    3    0    0  0.16628185085E+02 -0.48670591709E+01 -0.46172270724E+01  0.17930521187E+02  0.00000000000E+00 0.  1.
</event>
<event>
 7    1  0.6857839E-013  0.5052885E+02  0.7816164E-02  0.1300439E+00
        -11   -1    0    0    0    0  0.00000000000E+00  0.00000000000E+00  0.45593999997E+02  0.45594000000E+02  0.51100000000E-03 0.  1.
         11   -1    0    0    0    0 -0.00000000000E+00 -0.00000000000E+00 -0.45593999997E+02  0.45594000000E+02  0.51100000000E-03 0. -1.
    9900012    2    1    2    0    0  0.11927150432E+02 -0.35209824873E+02  0.16467465678E+02  0.50528854524E+02  0.29999983811E+02 0.  0.
        -12    1    1    2    0    0 -0.11927150432E+02  0.35209824873E+02 -0.16467465678E+02  0.40659145476E+02  0.00000000000E+00 0.  1.
         11    1    3    3    0    0  0.81868637697E+01 -0.24421006751E+02  0.81930222745E+00  0.25769780083E+02  0.51100000000E-03 0. -1.
        -11    1    3    3    0    0  0.81788425584E+01 -0.40421481200E+01  0.27274159018E+01  0.95221439173E+01  0.51100000000E-03 0.  1.
         12    1    3    3    0    0 -0.44385558966E+01 -0.67466700014E+01  0.12920747549E+02  0.15236930524E+02  0.00000000000E+00 0. -1.
</event>
<event>
 7    1  0.6857839E-013  0.5052884E+02  0.7816164E-02  0.1300439E+00
        -11   -1    0    0    0    0  0.00000000000E+00  0.00000000000E+00  0.45593999997E+02  0.45594000000E+02  0.51100000000E-03 0.  1.
         11   -1    0    0    0    0 -0.00000000000E+00 -0.00000000000E+00 -0.45593999997E+02  0.45594000000E+02  0.51100000000E-03 0. -1.
    9900012    2    1    2    0    0 -0.24821279156E+02 -0.76772529565E+01 -0.31275090425E+02  0.50528838757E+02  0.29999935886E+02 0.  0.
        -12    1    1    2    0    0  0.24821279156E+02  0.76772529565E+01  0.31275090425E+02  0.40659161243E+02  0.00000000000E+00 0.  1.
         11    1    3    3    0    0 -0.13026072963E+02  0.19731868736E+01 -0.54433814916E+01  0.14254909526E+02  0.51100000000E-03 0. -1.
        -11    1    3    3    0    0 -0.83361486488E+01 -0.44143926480E+01  0.26174932899E+00  0.94364585369E+01  0.51100000000E-03 0.  1.
         12    1    3    3    0    0 -0.34590575445E+01 -0.52360471820E+01 -0.26093458262E+02  0.26837470694E+02  0.00000000000E+00 0. -1.
</event>
<event>
 7    1  0.6857839E-013  0.5052890E+02  0.7816164E-02  0.1300439E+00
        -11   -1    0    0    0    0  0.00000000000E+00  0.00000000000E+00  0.45593999997E+02  0.45594000000E+02  0.51100000000E-03 0.  1.
         11   -1    0    0    0    0 -0.00000000000E+00 -0.00000000000E+00 -0.45593999997E+02  0.45594000000E+02  0.51100000000E-03 0. -1.
    9900012    2    1    2    0    0 -0.30127603022E+02 -0.13281841451E+02 -0.23855457944E+02  0.50528897084E+02  0.30000113177E+02 0.  0.
        -12    1    1    2    0    0  0.30127603022E+02  0.13281841451E+02  0.23855457944E+02  0.40659102916E+02  0.00000000000E+00 0.  1.
         11    1    3    3    0    0 -0.20290878970E+02 -0.29098881564E+01 -0.10025453218E+02  0.22818784607E+02  0.51100000000E-03 0. -1.
        -11    1    3    3    0    0 -0.25912104574E+01 -0.84149021845E+00  0.48267316215E+01  0.55425459700E+01  0.51100000000E-03 0.  1.
         12    1    3    3    0    0 -0.72455135943E+01 -0.95304630766E+01 -0.18656736348E+02  0.22167566507E+02  0.00000000000E+00 0. -1.
</event>
<event>
 7    1  0.6857839E-013  0.5052886E+02  0.7816164E-02  0.1300439E+00
        -11   -1    0    0    0    0  0.00000000000E+00  0.00000000000E+00  0.45593999997E+02  0.45594000000E+02  0.51100000000E-03 0.  1.
         11   -1    0    0    0    0 -0.00000000000E+00 -0.00000000000E+00 -0.45593999997E+02  0.45594000000E+02  0.51100000000E-03 0. -1.
    9900012    2    1    2    0    0 -0.28120832362E+01  0.15860958668E+02 -0.37332133057E+02  0.50528856126E+02  0.29999988680E+02 0.  0.
        -12    1    1    2    0    0  0.28120832362E+01 -0.15860958668E+02  0.37332133057E+02  0.40659143874E+02  0.00000000000E+00 0.  1.
         11    1    3    3    0    0 -0.27074801087E+01  0.63571644956E+01  0.38420350821E+01  0.79060244621E+01  0.51100000000E-03 0.  1.
        -11    1    3    3    0    0 -0.14795480827E+01  0.44516982104E+00 -0.10384371775E+02  0.10498686400E+02  0.51100000000E-03 0. -1.
        -12    1    3    3    0    0  0.13749449553E+01  0.90586243512E+01 -0.30789796365E+02  0.32124145264E+02  0.00000000000E+00 0.  1.
</event>
<event>
 7    1  0.6857839E-013  0.5052887E+02  0.7816164E-02  0.1300439E+00
        -11   -1    0    0    0    0  0.00000000000E+00  0.00000000000E+00  0.45593999997E+02  0.45594000000E+02  0.51100000000E-03 0.  1.
         11   -1    0    0    0    0 -0.00000000000E+00 -0.00000000000E+00 -0.45593999997E+02  0.45594000000E+02  0.51100000000E-03 0. -1.
    9900012    2    1    2    0    0 -0.21229072628E+02 -0.13362583118E+02 -0.31998953966E+02  0.50528865637E+02  0.30000017591E+02 0.  0.
        -12    1    1    2    0    0  0.21229072628E+02  0.13362583118E+02  0.31998953966E+02  0.40659134363E+02  0.00000000000E+00 0.  1.
         11    1    3    3    0    0 -0.83105303867E+01 -0.55831017596E+00 -0.17727121321E+02  0.19586409986E+02  0.51100000000E-03 0. -1.
        -11    1    3    3    0    0 -0.52337519521E+00  0.47236442020E+01  0.65179930300E+00  0.47970385379E+01  0.51100000000E-03 0.  1.
         12    1    3    3    0    0 -0.12395167046E+02 -0.17527917144E+02 -0.14923631948E+02  0.26145417113E+02  0.00000000000E+00 0. -1.
</event>
<event>
 7    1  0.6857839E-013  0.5052884E+02  0.7816164E-02  0.1300439E+00
        -11   -1    0    0    0    0  0.00000000000E+00  0.00000000000E+00  0.45593999997E+02  0.45594000000E+02  0.51100000000E-03 0.  1.
         11   -1    0    0    0    0 -0.00000000000E+00 -0.00000000000E+00 -0.45593999997E+02  0.45594000000E+02  0.51100000000E-03 0. -1.
    9900012    2    1    2    0    0  0.32217393620E+02  0.19149881551E+02 -0.15763530587E+02  0.50528839757E+02  0.29999938925E+02 0.  0.
        -12    1    1    2    0    0 -0.32217393620E+02 -0.19149881551E+02  0.15763530587E+02  0.40659160243E+02  0.00000000000E+00 0.  1.
         11    1    3    3    0    0  0.18931591984E+02 -0.89079217995E+00 -0.14309396071E+02  0.23747789412E+02  0.51100000000E-03 0. -1.
        -11    1    3    3    0    0 -0.76107368414E+00  0.58585010392E+01 -0.32439854131E+01  0.67397855456E+01  0.51100000000E-03 0.  1.
        -12    1    3    3    0    0  0.14046875320E+02  0.14182172692E+02  0.17898508969E+01  0.20041264800E+02  0.00000000000E+00 0.  1.
</event>
<event>
 7    1  0.6857839E-013  0.5052886E+02  0.7816164E-02  0.1300439E+00
        -11   -1    0    0    0    0  0.00000000000E+00  0.00000000000E+00  0.45593999997E+02  0.45594000000E+02  0.51100000000E-03 0.  1.
         11   -1    0    0    0    0 -0.00000000000E+00 -0.00000000000E+00 -0.45593999997E+02  0.45594000000E+02  0.51100000000E-03 0. -1.
    9900012    2    1    2    0    0  0.29507625843E+02  0.97180699386E+01 -0.26230222213E+02  0.50528862976E+02  0.30000009502E+02 0.  0.
        -12    1    1    2    0    0 -0.29507625843E+02 -0.97180699386E+01  0.26230222213E+02  0.40659137024E+02  0.00000000000E+00 0.  1.
         11    1    3    3    0    0  0.16130631109E+02  0.31198241663E+01 -0.22654469357E+02  0.27984916382E+02  0.51100000000E-03 0. -1.
        -11    1    3    3    0    0 -0.22357570421E+01 -0.45831315508E+00 -0.48531582985E+01  0.53630034711E+01  0.51100000000E-03 0.  1.
         12    1    3    3    0    0  0.15612751776E+02  0.70565589273E+01  0.12774054429E+01  0.17180943123E+02  0.00000000000E+00 0. -1.
</event>
<event>
 7    1  0.6857839E-013  0.5052890E+02  0.7816164E-02  0.1300439E+00
        -11   -1    0    0    0    0  0.00000000000E+00  0.00000000000E+00  0.45593999997E+02  0.45594000000E+02  0.51100000000E-03 0.  1.
         11   -1    0    0    0    0 -0.00000000000E+00 -0.00000000000E+00 -0.45593999997E+02  0.45594000000E+02  0.51100000000E-03 0. -1.
    9900012    2    1    2    0    0 -0.17354236791E+02 -0.17429858045E+02 -0.32375803086E+02  0.50528903705E+02  0.30000133300E+02 0.  0.
        -12    1    1    2    0    0  0.17354236791E+02  0.17429858045E+02  0.32375803086E+02  0.40659096295E+02  0.00000000000E+00 0.  1.
         11    1    3    3    0    0 -0.45067229504E+01 -0.11203251113E+02 -0.77591208614E+01  0.14353652638E+02  0.51100000000E-03 0. -1.
        -11    1    3    3    0    0  0.42735233584E+01 -0.51289033933E+01 -0.15207307472E+02  0.16608156211E+02  0.51100000000E-03 0.  1.
        -12    1    3    3    0    0 -0.17121037199E+02 -0.10977035387E+01 -0.94093747524E+01  0.19567094855E+02  0.00000000000E+00 0.  1.
</event>
<event>
 7    1  0.6857839E-013  0.5052885E+02  0.7816164E-02  0.1300439E+00
        -11   -1    0    0    0    0  0.00000000000E+00  0.00000000000E+00  0.45593999997E+02  0.45594000000E+02  0.51100000000E-03 0.  1.
         11   -1    0    0    0    0 -0.00000000000E+00 -0.00000000000E+00 -0.45593999997E+02  0.45594000000E+02  0.51100000000E-03 0. -1.
    9900012    2    1    2    0    0 -0.31078789017E+02 -0.23354350933E+02 -0.11910055267E+02  0.50528852804E+02  0.29999978582E+02 0.  0.
        -12    1    1    2    0    0  0.31078789017E+02  0.23354350933E+02  0.11910055267E+02  0.40659147196E+02  0.00000000000E+00 0.  1.
         11    1    3    3    0    0 -0.13248861544E+02 -0.12013922734E+02 -0.69227002701E+01  0.19177863566E+02  0.51100000000E-03 0. -1.
        -11    1    3    3    0    0 -0.19840347763E+01 -0.14058200878E+02 -0.56000639664E+01  0.15262048441E+02  0.51100000000E-03 0.  1.
         12    1    3    3    0    0 -0.15845892696E+02  0.27177726789E+01  0.61270896935E+00  0.16088940797E+02  0.00000000000E+00 0. -1.
</event>
<event>
 7    1  0.6857839E-013  0.5052886E+02  0.7816164E-02  0.1300439E+00
        -11   -1    0    0    0    0  0.00000000000E+00  0.00000000000E+00  0.45593999997E+02  0.45594000000E+02  0.51100000000E-03 0.  1.
         11   -1    0    0    0    0 -0.00000000000E+00 -0.00000000000E+00 -0.45593999997E+02  0.45594000000E+02  0.51100000000E-03 0. -1.
    9900012    2    1    2    0    0 -0.34280771984E+02  0.17610900747E+02 -0.12955710850E+02  0.50528860848E+02  0.30000003034E+02 0.  0.
        -12    1    1    2    0    0  0.34280771984E+02 -0.17610900747E+02  0.12955710850E+02  0.40659139152E+02  0.00000000000E+00 0.  1.
         11    1    3    3    0    0 -0.10551942794E+02  0.10683175270E+02 -0.75878496545E+01  0.16824065894E+02  0.51100000000E-03 0. -1.
        -11    1    3    3    0    0 -0.16901457554E+02 -0.18124392290E+01 -0.11977106869E+02  0.20794116779E+02  0.51100000000E-03 0.  1.
         12    1    3    3    0    0 -0.68273716366E+01  0.87401647063E+01  0.66092456739E+01  0.12910678175E+02  0.00000000000E+00 0. -1.
</event>
<event>
 7    1  0.6857839E-013  0.5052886E+02  0.7816164E-02  0.1300439E+00
        -11   -1    0    0    0    0  0.00000000000E+00  0.00000000000E+00  0.45593999997E+02  0.45594000000E+02  0.51100000000E-03 0.  1.
         11   -1    0    0    0    0 -0.00000000000E+00 -0.00000000000E+00 -0.45593999997E+02  0.45594000000E+02  0.51100000000E-03 0. -1.
    9900012    2    1    2    0    0 -0.72091242543E+01 -0.89053494468E+01 -0.39011399781E+02  0.50528855467E+02  0.29999986677E+02 0.  0.
        -12    1    1    2    0    0  0.72091242543E+01  0.89053494468E+01  0.39011399781E+02  0.40659144533E+02  0.00000000000E+00 0.  1.
         11    1    3    3    0    0 -0.32247095087E+01  0.27585183210E+01 -0.95256661493E+00  0.43492020141E+01  0.51100000000E-03 0.  1.
        -11    1    3    3    0    0 -0.86522710565E+00 -0.10896806624E+02 -0.35085423103E+01  0.11480369417E+02  0.51100000000E-03 0. -1.
        -12    1    3    3    0    0 -0.31191876400E+01 -0.76706114337E+00 -0.34550290856E+02  0.34699284035E+02  0.00000000000E+00 0.  1.
</event>
<event>
 7    1  0.6857839E-013  0.5052886E+02  0.7816164E-02  0.1300439E+00
        -11   -1    0    0    0    0  0.00000000000E+00  0.00000000000E+00  0.45593999997E+02  0.45594000000E+02  0.51100000000E-03 0.  1.
         11   -1    0    0    0    0 -0.00000000000E+00 -0.00000000000E+00 -0.45593999997E+02  0.45594000000E+02  0.51100000000E-03 0. -1.
    9900012    2    1    2    0    0 -0.17997906506E+02  0.24961739840E+02 -0.26573535298E+02  0.50528857453E+02  0.29999992714E+02 0.  0.
        -12    1    1    2    0    0  0.17997906506E+02 -0.24961739840E+02  0.26573535298E+02  0.40659142547E+02  0.00000000000E+00 0.  1.
         11    1    3    3    0    0 -0.10857458864E+02  0.85746297270E+01 -0.93879691399E+01  0.16719529084E+02  0.51100000000E-03 0.  1.
        -11    1    3    3    0    0  0.36866867266E+01  0.16527602561E+02 -0.53292318816E+01  0.17752577788E+02  0.51100000000E-03 0. -1.
         12    1    3    3    0    0 -0.10827134368E+02 -0.14049244776E+00 -0.11856334276E+02  0.16056750581E+02  0.00000000000E+00 0. -1.
</event>
<event>
 7    1  0.6857839E-013  0.5052886E+02  0.7816164E-02  0.1300439E+00
        -11   -1    0    0    0    0  0.00000000000E+00  0.00000000000E+00  0.45593999997E+02  0.45594000000E+02  0.51100000000E-03 0.  1.
         11   -1    0    0    0    0 -0.00000000000E+00 -0.00000000000E+00 -0.45593999997E+02  0.45594000000E+02  0.51100000000E-03 0. -1.
    9900012    2    1    2    0    0 -0.36821135873E+02 -0.14456482083E+02 -0.94010316012E+01  0.50528864294E+02  0.30000013508E+02 0.  0.
        -12    1    1    2    0    0  0.36821135873E+02  0.14456482083E+02  0.94010316012E+01  0.40659135706E+02  0.00000000000E+00 0.  1.
         11    1    3    3    0    0 -0.52948700530E+01  0.34485936903E+01  0.34870744653E+01  0.72172110893E+01  0.51100000000E-03 0. -1.
        -11    1    3    3    0    0 -0.23637572289E+02 -0.24366736107E+01 -0.52168823916E+01  0.24328749745E+02  0.51100000000E-03 0.  1.
        -12    1    3    3    0    0 -0.78886935314E+01 -0.15468402163E+02 -0.76712236749E+01  0.18982903460E+02  0.00000000000E+00 0.  1.
</event>
<event>
 7    1  0.6857839E-013  0.5052886E+02  0.7816164E-02  0.1300439E+00
        -11   -1    0    0    0    0  0.00000000000E+00  0.00000000000E+00  0.45593999997E+02  0.45594000000E+02  0.51100000000E-03 0.  1.
         11   -1    0    0    0    0 -0.00000000000E+00 -0.00000000000E+00 -0.45593999997E+02  0.45594000000E+02  0.51100000000E-03 0. -1.
    9900012    2    1    2    0    0 -0.87812123868E+01  0.20118245096E+02 -0.34224438273E+02  0.50528860168E+02  0.30000000968E+02 0.  0.
        -12    1    1    2    0    0  0.87812123868E+01 -0.20118245096E+02  0.34224438273E+02  0.40659139832E+02  0.00000000000E+00 0.  1.
         11    1    3    3    0    0 -0.60846457421E+01  0.15838254899E+02 -0.27132189406E+02  0.32000452095E+02  0.51100000000E-03 0.  1.
        -11    1    3    3    0    0 -0.72359205981E+01  0.82359696891E+01 -0.56652310502E+01  0.12340364125E+02  0.51100000000E-03 0. -1.
        -12    1    3    3    0    0  0.45393539534E+01 -0.39559794923E+01 -0.14270178168E+01  0.61880439484E+01  0.00000000000E+00 0.  1.
</event>
<event>
 7    1  0.7302522E-013  0.5052886E+02  0.7816164E-02  0.1300439E+00
        -11   -1    0    0    0    0  0.00000000000E+00  0.00000000000E+00  0.45593999997E+02  0.45594000000E+02  0.51100000000E-03 0. -1.
         11   -1    0    0    0    0 -0.00000000000E+00 -0.00000000000E+00 -0.45593999997E+02  0.45594000000E+02  0.51100000000E-03 0.  1.
    9900012    2    1    2    0    0  0.20113570993E+02  0.35194946226E+02  0.31504796310E+01  0.50528862037E+02  0.30000006649E+02 0.  0.
        -12    1    1    2    0    0 -0.20113570993E+02 -0.35194946226E+02 -0.31504796310E+01  0.40659137963E+02  0.00000000000E+00 0.  1.
         11    1    3    3    0    0  0.92162162693E+01  0.29802231114E+02  0.47654936254E+01  0.31556640370E+02  0.51100000000E-03 0.  1.
        -11    1    3    3    0    0  0.95270859137E+01  0.10054059517E+02 -0.23794664885E+01  0.14053872769E+02  0.51100000000E-03 0. -1.
        -12    1    3    3    0    0  0.13702688101E+01 -0.46613444046E+01  0.76445249413E+00  0.49183488984E+01  0.00000000000E+00 0.  1.
</event>
<event>
 7    1  0.6857839E-013  0.5052886E+02  0.7816164E-02  0.1300439E+00
        -11   -1    0    0    0    0  0.00000000000E+00  0.00000000000E+00  0.45593999997E+02  0.45594000000E+02  0.51100000000E-03 0. -1.
         11   -1    0    0    0    0 -0.00000000000E+00 -0.00000000000E+00 -0.45593999997E+02  0.45594000000E+02  0.51100000000E-03 0.  1.
    9900012    2    1    2    0    0  0.38812043310E+02 -0.12016796245E+02  0.15452233162E+01  0.50528858187E+02  0.29999994945E+02 0.  0.
        -12    1    1    2    0    0 -0.38812043310E+02  0.12016796245E+02 -0.15452233162E+01  0.40659141813E+02  0.00000000000E+00 0.  1.
         11    1    3    3    0    0  0.30133177715E+02 -0.85033788198E+00  0.90240575473E+01  0.31466888766E+02  0.51100000000E-03 0. -1.
        -11    1    3    3    0    0  0.89573420387E+00 -0.28950691425E+01  0.25114450906E+01  0.39358762440E+01  0.51100000000E-03 0.  1.
        -12    1    3    3    0    0  0.77831313913E+01 -0.82713892202E+01 -0.99902793217E+01  0.15126093177E+02  0.00000000000E+00 0.  1.
</event>
<event>
 7    1  0.6857839E-013  0.5052886E+02  0.7816164E-02  0.1300439E+00
        -11   -1    0    0    0    0  0.00000000000E+00  0.00000000000E+00  0.45593999997E+02  0.45594000000E+02  0.51100000000E-03 0. -1.
         11   -1    0    0    0    0 -0.00000000000E+00 -0.00000000000E+00 -0.45593999997E+02  0.45594000000E+02  0.51100000000E-03 0.  1.
    9900012    2    1    2    0    0 -0.31615882525E+02 -0.14378585509E+02  0.21139018489E+02  0.50528857710E+02  0.29999993496E+02 0.  0.
        -12    1    1    2    0    0  0.31615882525E+02  0.14378585509E+02 -0.21139018489E+02  0.40659142290E+02  0.00000000000E+00 0.  1.
         11    1    3    3    0    0 -0.90952344216E+01 -0.14594843679E+02  0.66099843437E+01  0.18423480791E+02  0.51100000000E-03 0. -1.
        -11    1    3    3    0    0 -0.39219638900E+01 -0.59765514647E+01 -0.83792871546E+00  0.71974365546E+01  0.51100000000E-03 0.  1.
        -12    1    3    3    0    0 -0.18598684213E+02  0.61928096340E+01  0.15366962861E+02  0.24907940364E+02  0.00000000000E+00 0.  1.
</event>
<event>
 7    1  0.6857839E-013  0.5052886E+02  0.7816164E-02  0.1300439E+00
        -11   -1    0    0    0    0  0.00000000000E+00  0.00000000000E+00  0.45593999997E+02  0.45594000000E+02  0.51100000000E-03 0.  1.
         11   -1    0    0    0    0 -0.00000000000E+00 -0.00000000000E+00 -0.45593999997E+02  0.45594000000E+02  0.51100000000E-03 0. -1.
    9900012    2    1    2    0    0 -0.22430147850E+02  0.33017117826E+02 -0.77410504106E+01  0.50528862484E+02  0.30000008006E+02 0.  0.
        -12    1    1    2    0    0  0.22430147850E+02 -0.33017117826E+02  0.77410504106E+01  0.40659137516E+02  0.00000000000E+00 0.  1.
         11    1    3    3    0    0 -0.14120529321E+02  0.10989009070E+02 -0.11828435605E+02  0.21448998992E+02  0.51100000000E-03 0. -1.
        -11    1    3    3    0    0  0.13389906855E+01  0.14547655257E+02 -0.30693893708E+01  0.14928105067E+02  0.51100000000E-03 0.  1.
         12    1    3    3    0    0 -0.96486092144E+01  0.74804534993E+01  0.71567745652E+01  0.14151758424E+02  0.00000000000E+00 0. -1.
</event>
<event>
 7    1  0.6857839E-013  0.5052885E+02  0.7816164E-02  0.1300439E+00
        -11   -1    0    0    0    0  0.00000000000E+00  0.00000000000E+00  0.45593999997E+02  0.45594000000E+02  0.51100000000E-03 0. -1.
         11   -1    0    0    0    0 -0.00000000000E+00 -0.00000000000E+00 -0.45593999997E+02  0.45594000000E+02  0.51100000000E-03 0.  1.
    9900012    2    1    2    0    0 -0.26722613230E+02  0.30494517374E+02  0.30254149614E+01  0.50528846253E+02  0.29999958672E+02 0.  0.
        -12    1    1    2    0    0  0.26722613230E+02 -0.30494517374E+02 -0.30254149614E+01  0.40659153747E+02  0.00000000000E+00 0.  1.
         11    1    3    3    0    0 -0.63376024998E+01  0.10331626725E+02  0.86055288651E+01  0.14864818988E+02  0.51100000000E-03 0. -1.
        -11    1    3    3    0    0  0.28254253945E+01  0.46606357263E+01 -0.55134376871E+01  0.77525834032E+01  0.51100000000E-03 0.  1.
        -12    1    3    3    0    0 -0.23210436124E+02  0.15502254923E+02 -0.66676216616E-01  0.27911443863E+02  0.00000000000E+00 0.  1.
</event>
<event>
 7    1  0.6857839E-013  0.5052886E+02  0.7816164E-02  0.1300439E+00
        -11   -1    0    0    0    0  0.00000000000E+00  0.00000000000E+00  0.45593999997E+02  0.45594000000E+02  0.51100000000E-03 0.  1.
         11   -1    0    0    0    0 -0.00000000000E+00 -0.00000000000E+00 -0.45593999997E+02  0.45594000000E+02  0.51100000000E-03 0. -1.
    9900012    2    1    2    0    0  0.30548765489E+02 -0.15285469002E+02 -0.22052050498E+02  0.50528861215E+02  0.30000004150E+02 0.  0.
        -12    1    1    2    0    0 -0.30548765489E+02  0.15285469002E+02  0.22052050498E+02  0.40659138785E+02  0.00000000000E+00 0.  1.
         11    1    3    3    0    0  0.69377293576E+01 -0.15257401465E+02 -0.89661265030E+01  0.19008203830E+02  0.51100000000E-03 0. -1.
        -11    1    3    3    0    0  0.86826768945E+01 -0.46559852378E+01  0.17090469222E+01  0.99993958934E+01  0.51100000000E-03 0.  1.
        -12    1    3    3    0    0  0.14928359237E+02  0.46279177010E+01 -0.14794970917E+02  0.21521261492E+02  0.00000000000E+00 0.  1.
</event>
<event>
 7    1  0.6857839E-013  0.5052886E+02  0.7816164E-02  0.1300439E+00
        -11   -1    0    0    0    0  0.00000000000E+00  0.00000000000E+00  0.45593999997E+02  0.45594000000E+02  0.51100000000E-03 0.  1.
         11   -1    0    0    0    0 -0.00000000000E+00 -0.00000000000E+00 -0.45593999997E+02  0.45594000000E+02  0.51100000000E-03 0. -1.
    9900012    2    1    2    0    0 -0.34227242821E+02  0.20616897204E+02 -0.75236374570E+01  0.50528859306E+02  0.29999998345E+02 0.  0.
        -12    1    1    2    0    0  0.34227242821E+02 -0.20616897204E+02  0.75236374570E+01  0.40659140694E+02  0.00000000000E+00 0.  1.
         11    1    3    3    0    0 -0.20962081187E+02  0.46975707453E+01 -0.74529924728E+00  0.21494917767E+02  0.51100000000E-03 0. -1.
        -11    1    3    3    0    0 -0.61479374871E+01  0.98986929791E+01  0.60867059062E+01  0.13146453784E+02  0.51100000000E-03 0.  1.
         12    1    3    3    0    0 -0.71172241471E+01  0.60206334790E+01 -0.12865044116E+02  0.15887487755E+02  0.00000000000E+00 0. -1.
</event>
<event>
 7    1  0.6857839E-013  0.5052886E+02  0.7816164E-02  0.1300439E+00
        -11   -1    0    0    0    0  0.00000000000E+00  0.00000000000E+00  0.45593999997E+02  0.45594000000E+02  0.51100000000E-03 0. -1.
         11   -1    0    0    0    0 -0.00000000000E+00 -0.00000000000E+00 -0.45593999997E+02  0.45594000000E+02  0.51100000000E-03 0.  1.
    9900012    2    1    2    0    0  0.11975828853E+02  0.10739046057E+01  0.38840598966E+02  0.50528857414E+02  0.29999992594E+02 0.  0.
        -12    1    1    2    0    0 -0.11975828853E+02 -0.10739046057E+01 -0.38840598966E+02  0.40659142586E+02  0.00000000000E+00 0.  1.
         11    1    3    3    0    0  0.13115041662E+02 -0.48263620618E+01  0.13477970447E+02  0.19415297479E+02  0.51100000000E-03 0. -1.
        -11    1    3    3    0    0 -0.71454800686E+00 -0.57349679418E+01  0.49294832434E+01  0.75960674994E+01  0.51100000000E-03 0.  1.
         12    1    3    3    0    0 -0.42466480230E+00  0.11635234609E+02  0.20433145275E+02  0.23517492436E+02  0.00000000000E+00 0. -1.
</event>
<event>
 7    1  0.6857839E-013  0.5052883E+02  0.7816164E-02  0.1300439E+00
        -11   -1    0    0    0    0  0.00000000000E+00  0.00000000000E+00  0.45593999997E+02  0.45594000000E+02  0.51100000000E-03 0.  1.
         11   -1    0    0    0    0 -0.00000000000E+00 -0.00000000000E+00 -0.45593999997E+02  0.45594000000E+02  0.51100000000E-03 0. -1.
    9900012    2    1    2    0    0  0.13930985952E+01 -0.38149673947E+02 -0.13993910765E+02  0.50528832713E+02  0.29999917513E+02 0.  0.
        -12    1    1    2    0    0 -0.13930985952E+01  0.38149673947E+02  0.13993910765E+02  0.40659167287E+02  0.00000000000E+00 0.  1.
         11    1    3    3    0    0  0.58351807392E+01  0.11816451595E+01  0.14124109832E+01  0.61188662830E+01  0.51100000000E-03 0. -1.
        -11    1    3    3    0    0 -0.51649532567E+01 -0.63636877031E+01 -0.46998393769E+00  0.82093939173E+01  0.51100000000E-03 0.  1.
        -12    1    3    3    0    0  0.72287111261E+00 -0.32967631404E+02 -0.14936337811E+02  0.36200572512E+02  0.00000000000E+00 0.  1.
</event>
<event>
 7    1  0.6857839E-013  0.5052886E+02  0.7816164E-02  0.1300439E+00
        -11   -1    0    0    0    0  0.00000000000E+00  0.00000000000E+00  0.45593999997E+02  0.45594000000E+02  0.51100000000E-03 0.  1.
         11   -1    0    0    0    0 -0.00000000000E+00 -0.00000000000E+00 -0.45593999997E+02  0.45594000000E+02  0.51100000000E-03 0. -1.
    9900012    2    1    2    0    0  0.19018396936E+02  0.36425852610E+01 -0.35751894376E+02  0.50528858336E+02  0.29999995399E+02 0.  0.
        -12    1    1    2    0    0 -0.19018396936E+02 -0.36425852610E+01  0.35751894376E+02  0.40659141664E+02  0.00000000000E+00 0.  1.
         11    1    3    3    0    0  0.10198623151E+02 -0.93069412346E+00 -0.22729846191E+02  0.24930383347E+02  0.51100000000E-03 0. -1.
        -11    1    3    3    0    0  0.55695538504E+01 -0.55417394118E+01 -0.12742952685E+02  0.14970425819E+02  0.51100000000E-03 0.  1.
        -12    1    3    3    0    0  0.32502199344E+01  0.10115018796E+02 -0.27909549988E+00  0.10628049170E+02  0.00000000000E+00 0.  1.
</event>
<event>
 7    1  0.6857839E-013  0.5052884E+02  0.7816164E-02  0.1300439E+00
        -11   -1    0    0    0    0  0.00000000000E+00  0.00000000000E+00  0.45593999997E+02  0.45594000000E+02  0.51100000000E-03 0.  1.
         11   -1    0    0    0    0 -0.00000000000E+00 -0.00000000000E+00 -0.45593999997E+02  0.45594000000E+02  0.51100000000E-03 0. -1.
    9900012    2    1    2    0    0 -0.14298022229E+02 -0.11323594585E+02 -0.36338820335E+02  0.50528842393E+02  0.29999946937E+02 0.  0.
        -12    1    1    2    0    0  0.14298022229E+02  0.11323594585E+02  0.36338820335E+02  0.40659157607E+02  0.00000000000E+00 0.  1.
         11    1    3    3    0    0 -0.10283986275E+02 -0.12550739308E+02 -0.23737425679E+02  0.28753205196E+02  0.51100000000E-03 0. -1.
        -11    1    3    3    0    0 -0.26945597146E+01  0.33812164822E+01  0.34471106853E+01  0.55295433169E+01  0.51100000000E-03 0.  1.
         12    1    3    3    0    0 -0.13194762397E+01 -0.21540717588E+01 -0.16048505341E+02  0.16246093880E+02  0.00000000000E+00 0. -1.
</event>
<event>
 7    1  0.6857839E-013  0.5052885E+02  0.7816164E-02  0.1300439E+00
        -11   -1    0    0    0    0  0.00000000000E+00  0.00000000000E+00  0.45593999997E+02  0.45594000000E+02  0.51100000000E-03 0. -1.
         11   -1    0    0    0    0 -0.00000000000E+00 -0.00000000000E+00 -0.45593999997E+02  0.45594000000E+02  0.51100000000E-03 0.  1.
    9900012    2    1    2    0    0  0.27405251621E+02  0.93880703784E+01  0.28530381086E+02  0.50528851869E+02  0.29999975741E+02 0.  0.
        -12    1    1    2    0    0 -0.27405251621E+02 -0.93880703784E+01 -0.28530381086E+02  0.40659148131E+02  0.00000000000E+00 0.  1.
         11    1    3    3    0    0  0.52866895680E+01 -0.41419303245E+01  0.44448197911E+01  0.80536387203E+01  0.51100000000E-03 0. -1.
        -11    1    3    3    0    0  0.17692328768E+02  0.35684679463E+01  0.24044517103E+01  0.18208070986E+02  0.51100000000E-03 0.  1.
        -12    1    3    3    0    0  0.44262332850E+01  0.99615327566E+01  0.21681109584E+02  0.24267142163E+02  0.00000000000E+00 0.  1.
</event>
<event>
 7    1  0.6857839E-013  0.5052886E+02  0.7816164E-02  0.1300439E+00
        -11   -1    0    0    0    0  0.00000000000E+00  0.00000000000E+00  0.45593999997E+02  0.45594000000E+02  0.51100000000E-03 0.  1.
         11   -1    0    0    0    0 -0.00000000000E+00 -0.00000000000E+00 -0.45593999997E+02  0.45594000000E+02  0.51100000000E-03 0. -1.
    9900012    2    1    2    0    0  0.28764027044E+02  0.94474344539E+01 -0.27139309944E+02  0.50528863096E+02  0.30000009866E+02 0.  0.
        -12    1    1    2    0    0 -0.28764027044E+02 -0.94474344539E+01  0.27139309944E+02  0.40659136904E+02  0.00000000000E+00 0.  1.
         11    1    3    3    0    0  0.15631583605E+02  0.36778605443E+01 -0.18823628235E+02  0.24742716997E+02  0.51100000000E-03 0. -1.
        -11    1    3    3    0    0  0.63475365729E+01  0.91084542656E+01  0.36020669613E+01  0.11671762776E+02  0.51100000000E-03 0.  1.
         12    1    3    3    0    0  0.67849068658E+01 -0.33388803560E+01 -0.11917748670E+02  0.14114383323E+02  0.00000000000E+00 0. -1.
</event>
<event>
 7    1  0.8954568E-013  0.5052886E+02  0.7816164E-02  0.1300439E+00
        -11   -1    0    0    0    0  0.00000000000E+00  0.00000000000E+00  0.45593999997E+02  0.45594000000E+02  0.51100000000E-03 0. -1.
         11   -1    0    0    0    0 -0.00000000000E+00 -0.00000000000E+00 -0.45593999997E+02  0.45594000000E+02  0.51100000000E-03 0.  1.
    9900012    2    1    2    0    0 -0.29236415183E+02  0.19008780782E+02  0.20906079275E+02  0.50528857483E+02  0.29999992806E+02 0.  0.
        -12    1    1    2    0    0  0.29236415183E+02 -0.19008780782E+02 -0.20906079275E+02  0.40659142517E+02  0.00000000000E+00 0.  1.
         11    1    3    3    0    0 -0.84256540207E+01  0.14992388592E+02  0.34216355335E+01  0.17534849625E+02  0.51100000000E-03 0. -1.
        -11    1    3    3    0    0  0.32557414255E+01  0.65949948160E-01  0.38878164634E+01  0.50714217671E+01  0.51100000000E-03 0.  1.
         12    1    3    3    0    0 -0.24066502588E+02  0.39504422412E+01  0.13596627278E+02  0.27922586091E+02  0.00000000000E+00 0. -1.
</event>
<event>
 7    1  0.6857839E-013  0.5052887E+02  0.7816164E-02  0.1300439E+00
        -11   -1    0    0    0    0  0.00000000000E+00  0.00000000000E+00  0.45593999997E+02  0.45594000000E+02  0.51100000000E-03 0.  1.
         11   -1    0    0    0    0 -0.00000000000E+00 -0.00000000000E+00 -0.45593999997E+02  0.45594000000E+02  0.51100000000E-03 0. -1.
    9900012    2    1    2    0    0  0.30429391804E+02  0.51336766055E+01 -0.26473804391E+02  0.50528870152E+02  0.30000031314E+02 0.  0.
        -12    1    1    2    0    0 -0.30429391804E+02 -0.51336766055E+01  0.26473804391E+02  0.40659129848E+02  0.00000000000E+00 0.  1.
         11    1    3    3    0    0  0.88619545650E+01 -0.60559155109E+01  0.20987239316E+01  0.10936772549E+02  0.51100000000E-03 0.  1.
        -11    1    3    3    0    0  0.73398109492E+01 -0.18755783378E+01 -0.11732404494E+02  0.13965669850E+02  0.51100000000E-03 0. -1.
        -12    1    3    3    0    0  0.14227626290E+02  0.13065170454E+02 -0.16840123828E+02  0.25626427753E+02  0.00000000000E+00 0.  1.
</event>
<event>
 7    1  0.6857839E-013  0.5052886E+02  0.7816164E-02  0.1300439E+00
        -11   -1    0    0    0    0  0.00000000000E+00  0.00000000000E+00  0.45593999997E+02  0.45594000000E+02  0.51100000000E-03 0. -1.
         11   -1    0    0    0    0 -0.00000000000E+00 -0.00000000000E+00 -0.45593999997E+02  0.45594000000E+02  0.51100000000E-03 0.  1.
    9900012    2    1    2    0    0  0.37049503689E+02  0.16387843234E+02 -0.34551814909E+01  0.50528863160E+02  0.30000010061E+02 0.  0.
        -12    1    1    2    0    0 -0.37049503689E+02 -0.16387843234E+02  0.34551814909E+01  0.40659136840E+02  0.00000000000E+00 0.  1.
         11    1    3    3    0    0  0.56334735868E+01  0.11781643366E+02  0.81048624492E+00  0.13084343058E+02  0.51100000000E-03 0. -1.
        -11    1    3    3    0    0  0.49751726388E+00 -0.15049326306E+01 -0.56791286324E+01  0.58961723122E+01  0.51100000000E-03 0.  1.
         12    1    3    3    0    0  0.30918512838E+02  0.61111324993E+01  0.14134608967E+01  0.31548347790E+02  0.00000000000E+00 0. -1.
</event>
<event>
 7    1  0.6857839E-013  0.5052883E+02  0.7816164E-02  0.1300439E+00
        -11   -1    0    0    0    0  0.00000000000E+00  0.00000000000E+00  0.45593999997E+02  0.45594000000E+02  0.51100000000E-03 0.  1.
         11   -1    0    0    0    0 -0.00000000000E+00 -0.00000000000E+00 -0.45593999997E+02  0.45594000000E+02  0.51100000000E-03 0. -1.
    9900012    2    1    2    0    0  0.28826284545E+02 -0.28636429133E+02  0.14724535674E+01  0.50528832847E+02  0.29999917920E+02 0.  0.
        -12    1    1    2    0    0 -0.28826284545E+02  0.28636429133E+02 -0.14724535674E+01  0.40659167153E+02  0.00000000000E+00 0.  1.
         11    1    3    3    0    0  0.11359817183E+02 -0.16488765880E+02 -0.11977075109E+01  0.20058897034E+02  0.51100000000E-03 0. -1.
        -11    1    3    3    0    0  0.12013391387E+02 -0.10778584239E+01 -0.77348253643E+01  0.14328673179E+02  0.51100000000E-03 0.  1.
        -12    1    3    3    0    0  0.54530759747E+01 -0.11069804829E+02  0.10404986443E+02  0.16141262633E+02  0.00000000000E+00 0.  1.
</event>
<event>
 7    1  0.6857839E-013  0.5052891E+02  0.7816164E-02  0.1300439E+00
        -11   -1    0    0    0    0  0.00000000000E+00  0.00000000000E+00  0.45593999997E+02  0.45594000000E+02  0.51100000000E-03 0. -1.
         11   -1    0    0    0    0 -0.00000000000E+00 -0.00000000000E+00 -0.45593999997E+02  0.45594000000E+02  0.51100000000E-03 0.  1.
    9900012    2    1    2    0    0  0.39367957264E+02  0.90037189952E+01  0.47178838846E+01  0.50528911923E+02  0.30000158281E+02 0.  0.
        -12    1    1    2    0    0 -0.39367957264E+02 -0.90037189952E+01 -0.47178838846E+01  0.40659088077E+02  0.00000000000E+00 0.  1.
         11    1    3    3    0    0  0.77915892083E+01  0.16177326095E+01 -0.69335123058E+01  0.10554596835E+02  0.51100000000E-03 0. -1.
        -11    1    3    3    0    0  0.13029465340E+02  0.12959569311E+02  0.88822473742E+01  0.20411068626E+02  0.51100000000E-03 0.  1.
         12    1    3    3    0    0  0.18546902716E+02 -0.55735829253E+01  0.27691488162E+01  0.19563246463E+02  0.00000000000E+00 0. -1.
</event>
<event>
 7    1  0.6857839E-013  0.5052885E+02  0.7816164E-02  0.1300439E+00
        -11   -1    0    0    0    0  0.00000000000E+00  0.00000000000E+00  0.45593999997E+02  0.45594000000E+02  0.51100000000E-03 0. -1.
         11   -1    0    0    0    0 -0.00000000000E+00 -0.00000000000E+00 -0.45593999997E+02  0.45594000000E+02  0.51100000000E-03 0.  1.
    9900012    2    1    2    0    0  0.17920712098E+02 -0.12937778705E+02  0.34126654870E+02  0.50528848354E+02  0.29999965058E+02 0.  0.
        -12    1    1    2    0    0 -0.17920712098E+02  0.12937778705E+02 -0.34126654870E+02  0.40659151646E+02  0.00000000000E+00 0.  1.
         11    1    3    3    0    0  0.98047766098E+01 -0.12891308910E+02  0.10136167814E+02  0.19106579704E+02  0.51100000000E-03 0. -1.
        -11    1    3    3    0    0  0.61341809027E+01 -0.47390136632E+00 -0.10999911879E+01  0.62500190981E+01  0.51100000000E-03 0.  1.
        -12    1    3    3    0    0  0.19817545856E+01  0.42743157130E+00  0.25090478244E+02  0.25172249552E+02  0.00000000000E+00 0.  1.
</event>
<event>
 7    1  0.6857839E-013  0.5052886E+02  0.7816164E-02  0.1300439E+00
        -11   -1    0    0    0    0  0.00000000000E+00  0.00000000000E+00  0.45593999997E+02  0.45594000000E+02  0.51100000000E-03 0.  1.
         11   -1    0    0    0    0 -0.00000000000E+00 -0.00000000000E+00 -0.45593999997E+02  0.45594000000E+02  0.51100000000E-03 0. -1.
    9900012    2    1    2    0    0 -0.24661179023E+01  0.36464157028E+01 -0.40420138990E+02  0.50528859318E+02  0.29999998383E+02 0.  0.
        -12    1    1    2    0    0  0.24661179023E+01 -0.36464157028E+01  0.40420138990E+02  0.40659140682E+02  0.00000000000E+00 0.  1.
         11    1    3    3    0    0 -0.82712018407E+01  0.13941533067E+01 -0.13191762582E+02  0.15632627534E+02  0.51100000000E-03 0. -1.
        -11    1    3    3    0    0  0.93150489514E+00 -0.80986889030E+01 -0.19372559608E+02  0.21017909728E+02  0.51100000000E-03 0.  1.
        -12    1    3    3    0    0  0.48735790432E+01  0.10350951299E+02 -0.78558168004E+01  0.13878322056E+02  0.00000000000E+00 0.  1.
</event>
<event>
 7    1  0.6857839E-013  0.5052879E+02  0.7816164E-02  0.1300439E+00
        -11   -1    0    0    0    0  0.00000000000E+00  0.00000000000E+00  0.45593999997E+02  0.45594000000E+02  0.51100000000E-03 0.  1.
         11   -1    0    0    0    0 -0.00000000000E+00 -0.00000000000E+00 -0.45593999997E+02  0.45594000000E+02  0.51100000000E-03 0. -1.
    9900012    2    1    2    0    0 -0.30802925401E+02 -0.25302416484E+02 -0.80086988262E+01  0.50528785176E+02  0.29999773021E+02 0.  0.
        -12    1    1    2    0    0  0.30802925401E+02  0.25302416484E+02  0.80086988262E+01  0.40659214824E+02  0.00000000000E+00 0.  1.
         11    1    3    3    0    0 -0.13200533611E+02 -0.89337202547E+01 -0.11585356668E+02  0.19704972331E+02  0.51100000000E-03 0. -1.
        -11    1    3    3    0    0 -0.19277690924E+02 -0.79235858751E+01  0.63333621478E+01  0.21783573096E+02  0.51100000000E-03 0.  1.
         12    1    3    3    0    0  0.16752991340E+01 -0.84451103541E+01 -0.27567043059E+01  0.90402397485E+01  0.00000000000E+00 0. -1.
</event>
<event>
 7    1  0.6857839E-013  0.5052886E+02  0.7816164E-02  0.1300439E+00
        -11   -1    0    0    0    0  0.00000000000E+00  0.00000000000E+00  0.45593999997E+02  0.45594000000E+02  0.51100000000E-03 0.  1.
         11   -1    0    0    0    0 -0.00000000000E+00 -0.00000000000E+00 -0.45593999997E+02  0.45594000000E+02  0.51100000000E-03 0. -1.
    9900012    2    1    2    0    0  0.18821406498E+02  0.16765638665E+02 -0.31903501868E+02  0.50528863095E+02  0.30000009865E+02 0.  0.
        -12    1    1    2    0    0 -0.18821406498E+02 -0.16765638665E+02  0.31903501868E+02  0.40659136905E+02  0.00000000000E+00 0.  1.
         11    1    3    3    0    0  0.92832014398E+01  0.71741669631E+01 -0.11208235985E+02  0.16225629564E+02  0.51100000000E-03 0. -1.
        -11    1    3    3    0    0  0.85844981840E+01  0.65840810494E+01  0.23267402030E+01  0.11066049547E+02  0.51100000000E-03 0.  1.
         12    1    3    3    0    0  0.95370687436E+00  0.30073906527E+01 -0.23022006086E+02  0.23237183985E+02  0.00000000000E+00 0. -1.
</event>
<event>
 7    1  0.6857839E-013  0.5052887E+02  0.7816164E-02  0.1300439E+00
        -11   -1    0    0    0    0  0.00000000000E+00  0.00000000000E+00  0.45593999997E+02  0.45594000000E+02  0.51100000000E-03 0. -1.
         11   -1    0    0    0    0 -0.00000000000E+00 -0.00000000000E+00 -0.45593999997E+02  0.45594000000E+02  0.51100000000E-03 0.  1.
    9900012    2    1    2    0    0  0.23805595482E+02  0.31603701222E+02  0.93629286739E+01  0.50528871376E+02  0.30000035033E+02 0.  0.
        -12    1    1    2    0    0 -0.23805595482E+02 -0.31603701222E+02 -0.93629286739E+01  0.40659128624E+02  0.00000000000E+00 0.  1.
         11    1    3    3    0    0  0.10834341176E+02  0.49213796275E+01  0.56682092215E+01  0.13180725405E+02  0.51100000000E-03 0. -1.
        -11    1    3    3    0    0 -0.18016172618E+01  0.10573604251E+02  0.99324289782E+01  0.14618484097E+02  0.51100000000E-03 0.  1.
         12    1    3    3    0    0  0.14772871568E+02  0.16108717343E+02 -0.62377095258E+01  0.22729661874E+02  0.00000000000E+00 0. -1.
</event>
<event>
 7    1  0.6857839E-013  0.5052886E+02  0.7816164E-02  0.1300439E+00
        -11   -1    0    0    0    0  0.00000000000E+00  0.00000000000E+00  0.45593999997E+02  0.45594000000E+02  0.51100000000E-03 0. -1.
         11   -1    0    0    0    0 -0.00000000000E+00 -0.00000000000E+00 -0.45593999997E+02  0.45594000000E+02  0.51100000000E-03 0.  1.
    9900012    2    1    2    0    0  0.12420817666E+01 -0.27082482558E+01  0.40549828560E+02  0.50528856231E+02  0.29999989001E+02 0.  0.
        -12    1    1    2    0    0 -0.12420817666E+01  0.27082482558E+01 -0.40549828560E+02  0.40659143769E+02  0.00000000000E+00 0.  1.
         11    1    3    3    0    0  0.63501055838E+01 -0.65281978711E+01  0.75310647697E+01  0.11817704735E+02  0.51100000000E-03 0. -1.
        -11    1    3    3    0    0  0.47818225146E+00  0.10332540568E+02  0.11097482070E+02  0.15170503004E+02  0.51100000000E-03 0.  1.
        -12    1    3    3    0    0 -0.55862060687E+01 -0.65125909526E+01  0.21921281721E+02  0.23540648492E+02  0.00000000000E+00 0.  1.
</event>
<event>
 7    1  0.6857839E-013  0.5052877E+02  0.7816164E-02  0.1300439E+00
        -11   -1    0    0    0    0  0.00000000000E+00  0.00000000000E+00  0.45593999997E+02  0.45594000000E+02  0.51100000000E-03 0.  1.
         11   -1    0    0    0    0 -0.00000000000E+00 -0.00000000000E+00 -0.45593999997E+02  0.45594000000E+02  0.51100000000E-03 0. -1.
    9900012    2    1    2    0    0  0.36472564079E+02 -0.11245604552E+02 -0.14016476092E+02  0.50528767908E+02  0.29999720532E+02 0.  0.
        -12    1    1    2    0    0 -0.36472564079E+02  0.11245604552E+02  0.14016476092E+02  0.40659232092E+02  0.00000000000E+00 0.  1.
         11    1    3    3    0    0  0.14449078273E+02  0.38053060062E+00  0.43092747212E+00  0.14460510545E+02  0.51100000000E-03 0. -1.
        -11    1    3    3    0    0  0.21352127427E+02 -0.13315718882E+02 -0.40193148765E+01  0.25482868899E+02  0.51100000000E-03 0.  1.
        -12    1    3    3    0    0  0.67135837939E+00  0.16895837297E+01 -0.10428088687E+02  0.10585388464E+02  0.00000000000E+00 0.  1.
</event>
<event>
 7    1  0.6857839E-013  0.5052883E+02  0.7816164E-02  0.1300439E+00
        -11   -1    0    0    0    0  0.00000000000E+00  0.00000000000E+00  0.45593999997E+02  0.45594000000E+02  0.51100000000E-03 0.  1.
         11   -1    0    0    0    0 -0.00000000000E+00 -0.00000000000E+00 -0.45593999997E+02  0.45594000000E+02  0.51100000000E-03 0. -1.
    9900012    2    1    2    0    0 -0.19553368871E+02  0.21610963084E+02 -0.28351364752E+02  0.50528833224E+02  0.29999919067E+02 0.  0.
        -12    1    1    2    0    0  0.19553368871E+02 -0.21610963084E+02  0.28351364752E+02  0.40659166776E+02  0.00000000000E+00 0.  1.
         11    1    3    3    0    0 -0.24051994394E+01  0.70246607425E+01 -0.12347420513E+02  0.14407971282E+02  0.51100000000E-03 0. -1.
        -11    1    3    3    0    0  0.54456479581E+01  0.87094526209E+00 -0.64757197217E+00  0.55527450016E+01  0.51100000000E-03 0.  1.
         12    1    3    3    0    0 -0.22593817390E+02  0.13715357079E+02 -0.15356372267E+02  0.30568116940E+02  0.00000000000E+00 0. -1.
</event>
<event>
 7    1  0.6857839E-013  0.5052886E+02  0.7816164E-02  0.1300439E+00
        -11   -1    0    0    0    0  0.00000000000E+00  0.00000000000E+00  0.45593999997E+02  0.45594000000E+02  0.51100000000E-03 0.  1.
         11   -1    0    0    0    0 -0.00000000000E+00 -0.00000000000E+00 -0.45593999997E+02  0.45594000000E+02  0.51100000000E-03 0. -1.
    9900012    2    1    2    0    0  0.30441125346E+02  0.70934630023E+01 -0.26003583748E+02  0.50528859608E+02  0.29999999264E+02 0.  0.
        -12    1    1    2    0    0 -0.30441125346E+02 -0.70934630023E+01  0.26003583748E+02  0.40659140392E+02  0.00000000000E+00 0.  1.
         11    1    3    3    0    0  0.17002625744E+02  0.11172888946E+02 -0.24998861366E+02  0.32231441163E+02  0.51100000000E-03 0. -1.
        -11    1    3    3    0    0  0.90338450804E+01  0.32898730486E+01 -0.13308583859E+01  0.97059160267E+01  0.51100000000E-03 0.  1.
        -12    1    3    3    0    0  0.44046545218E+01 -0.73692989928E+01  0.32613600423E+00  0.85915024178E+01  0.00000000000E+00 0.  1.
</event>
<event>
 7    1  0.6857839E-013  0.5052890E+02  0.7816164E-02  0.1300439E+00
        -11   -1    0    0    0    0  0.00000000000E+00  0.00000000000E+00  0.45593999997E+02  0.45594000000E+02  0.51100000000E-03 0. -1.
         11   -1    0    0    0    0 -0.00000000000E+00 -0.00000000000E+00 -0.45593999997E+02  0.45594000000E+02  0.51100000000E-03 0.  1.
    9900012    2    1    2    0    0  0.28452291249E+02  0.16681479593E+02  0.23777248865E+02  0.50528902588E+02  0.30000129907E+02 0.  0.
        -12    1    1    2    0    0 -0.28452291249E+02 -0.16681479593E+02 -0.23777248865E+02  0.40659097412E+02  0.00000000000E+00 0.  1.
         11    1    3    3    0    0  0.13594868038E+02  0.12176173807E+02  0.17977482220E+02  0.25617757762E+02  0.51100000000E-03 0. -1.
        -11    1    3    3    0    0  0.49317060891E+01  0.31595765415E+01  0.11843442143E+02  0.13212561104E+02  0.51100000000E-03 0.  1.
        -12    1    3    3    0    0  0.99257171222E+01  0.13457292442E+01 -0.60436754975E+01  0.11698583722E+02  0.00000000000E+00 0.  1.
</event>
<event>
 7    1  0.6857839E-013  0.5052886E+02  0.7816164E-02  0.1300439E+00
        -11   -1    0    0    0    0  0.00000000000E+00  0.00000000000E+00  0.45593999997E+02  0.45594000000E+02  0.51100000000E-03 0.  1.
         11   -1    0    0    0    0 -0.00000000000E+00 -0.00000000000E+00 -0.45593999997E+02  0.45594000000E+02  0.51100000000E-03 0. -1.
    9900012    2    1    2    0    0  0.16637252860E+01  0.67013765912E+01 -0.40068561733E+02  0.50528855034E+02  0.29999985360E+02 0.  0.
        -12    1    1    2    0    0 -0.16637252860E+01 -0.67013765912E+01  0.40068561733E+02  0.40659144966E+02  0.00000000000E+00 0.  1.
         11    1    3    3    0    0 -0.59997144927E+01  0.26812162289E+00 -0.30194781793E+02  0.30786251981E+02  0.51100000000E-03 0. -1.
        -11    1    3    3    0    0  0.78170409968E+00 -0.34903940658E+01  0.75432949683E+00  0.36555335158E+01  0.51100000000E-03 0.  1.
        -12    1    3    3    0    0  0.68817356790E+01  0.99236490341E+01 -0.10628109436E+02  0.16087069537E+02  0.00000000000E+00 0.  1.
</event>
<event>
 7    1  0.6857839E-013  0.5052886E+02  0.7816164E-02  0.1300439E+00
        -11   -1    0    0    0    0  0.00000000000E+00  0.00000000000E+00  0.45593999997E+02  0.45594000000E+02  0.51100000000E-03 0. -1.
         11   -1    0    0    0    0 -0.00000000000E+00 -0.00000000000E+00 -0.45593999997E+02  0.45594000000E+02  0.51100000000E-03 0.  1.
    9900012    2    1    2    0    0 -0.34754255535E+02 -0.20848649453E+02  0.32621300239E+01  0.50528856451E+02  0.29999989670E+02 0.  0.
        -12    1    1    2    0    0  0.34754255535E+02  0.20848649453E+02 -0.32621300239E+01  0.40659143549E+02  0.00000000000E+00 0.  1.
         11    1    3    3    0    0 -0.60572895087E+01 -0.15355730838E+02  0.31947078047E+01  0.16813547632E+02  0.51100000000E-03 0. -1.
        -11    1    3    3    0    0 -0.20973903241E+02 -0.10912997890E+02 -0.29098165319E+01  0.23821527504E+02  0.51100000000E-03 0.  1.
        -12    1    3    3    0    0 -0.77230627852E+01  0.54200792752E+01  0.29772387511E+01  0.98937813153E+01  0.00000000000E+00 0.  1.
</event>
<event>
 7    1  0.6857839E-013  0.5052886E+02  0.7816164E-02  0.1300439E+00
        -11   -1    0    0    0    0  0.00000000000E+00  0.00000000000E+00  0.45593999997E+02  0.45594000000E+02  0.51100000000E-03 0.  1.
         11   -1    0    0    0    0 -0.00000000000E+00 -0.00000000000E+00 -0.45593999997E+02  0.45594000000E+02  0.51100000000E-03 0. -1.
    9900012    2    1    2    0    0  0.66959206562E+01 -0.16544977235E+02 -0.36532099026E+02  0.50528857309E+02  0.29999992275E+02 0.  0.
        -12    1    1    2    0    0 -0.66959206562E+01  0.16544977235E+02  0.36532099026E+02  0.40659142691E+02  0.00000000000E+00 0.  1.
         11    1    3    3    0    0 -0.19621858533E+01  0.37801204141E+01 -0.22718890733E+02  0.23114659420E+02  0.51100000000E-03 0. -1.
        -11    1    3    3    0    0  0.64108314172E+00 -0.12357707346E+02 -0.74276323009E+01  0.14432381658E+02  0.51100000000E-03 0.  1.
        -12    1    3    3    0    0  0.80170233678E+01 -0.79673903031E+01 -0.63855759916E+01  0.12981816231E+02  0.00000000000E+00 0.  1.
</event>
<event>
 7    1  0.6857839E-013  0.5052886E+02  0.7816164E-02  0.1300439E+00
        -11   -1    0    0    0    0  0.00000000000E+00  0.00000000000E+00  0.45593999997E+02  0.45594000000E+02  0.51100000000E-03 0. -1.
         11   -1    0    0    0    0 -0.00000000000E+00 -0.00000000000E+00 -0.45593999997E+02  0.45594000000E+02  0.51100000000E-03 0.  1.
    9900012    2    1    2    0    0 -0.28437495799E+02  0.18936790247E+02  0.22042521174E+02  0.50528856725E+02  0.29999990501E+02 0.  0.
        -12    1    1    2    0    0  0.28437495799E+02 -0.18936790247E+02 -0.22042521174E+02  0.40659143275E+02  0.00000000000E+00 0.  1.
         11    1    3    3    0    0 -0.21783301734E+02  0.20242754374E+02  0.18793350061E+02  0.35177710924E+02  0.51100000000E-03 0. -1.
        -11    1    3    3    0    0 -0.10103816031E+02 -0.36423681410E+01  0.15498214917E+01  0.10851538645E+02  0.51100000000E-03 0.  1.
        -12    1    3    3    0    0  0.34496219655E+01  0.23364040135E+01  0.16993496214E+01  0.44996071556E+01  0.00000000000E+00 0.  1.
</event>
<event>
 7    1  0.6857839E-013  0.5052885E+02  0.7816164E-02  0.1300439E+00
        -11   -1    0    0    0    0  0.00000000000E+00  0.00000000000E+00  0.45593999997E+02  0.45594000000E+02  0.51100000000E-03 0.  1.
         11   -1    0    0    0    0 -0.00000000000E+00 -0.00000000000E+00 -0.45593999997E+02  0.45594000000E+02  0.51100000000E-03 0. -1.
    9900012    2    1    2    0    0 -0.31307239486E+02 -0.20644830529E+02 -0.15710310892E+02  0.50528854164E+02  0.29999982718E+02 0.  0.
        -12    1    1    2    0    0  0.31307239486E+02  0.20644830529E+02  0.15710310892E+02  0.40659145836E+02  0.00000000000E+00 0.  1.
         11    1    3    3    0    0 -0.11125172257E+02 -0.23497855705E+01 -0.56659053777E+01  0.12704071552E+02  0.51100000000E-03 0. -1.
        -11    1    3    3    0    0 -0.23518284341E+02 -0.15856876802E+02 -0.14408820791E+02  0.31814530597E+02  0.51100000000E-03 0.  1.
        -12    1    3    3    0    0  0.33362171128E+01 -0.24381681564E+01  0.43644152769E+01  0.60102520157E+01  0.00000000000E+00 0.  1.
</event>
<event>
 7    1  0.6857839E-013  0.5052886E+02  0.7816164E-02  0.1300439E+00
        -11   -1    0    0    0    0  0.00000000000E+00  0.00000000000E+00  0.45593999997E+02  0.45594000000E+02  0.51100000000E-03 0.  1.
         11   -1    0    0    0    0 -0.00000000000E+00 -0.00000000000E+00 -0.45593999997E+02  0.45594000000E+02  0.51100000000E-03 0. -1.
    9900012    2    1    2    0    0 -0.66198969782E+01  0.33540715486E+02 -0.22008251446E+02  0.50528858801E+02  0.29999996810E+02 0.  0.
        -12    1    1    2    0    0  0.66198969782E+01 -0.33540715486E+02  0.22008251446E+02  0.40659141199E+02  0.00000000000E+00 0.  1.
         11    1    3    3    0    0  0.27371367194E+01  0.18864716720E+02 -0.60752009725E+01  0.20006936834E+02  0.51100000000E-03 0. -1.
        -11    1    3    3    0    0  0.44457421836E+01  0.19563835872E+01  0.13136262368E+01  0.50316671645E+01  0.51100000000E-03 0.  1.
         12    1    3    3    0    0 -0.13802775881E+02  0.12719615179E+02 -0.17246676711E+02  0.25490254803E+02  0.00000000000E+00 0. -1.
</event>
<event>
 7    1  0.6857839E-013  0.5052886E+02  0.7816164E-02  0.1300439E+00
        -11   -1    0    0    0    0  0.00000000000E+00  0.00000000000E+00  0.45593999997E+02  0.45594000000E+02  0.51100000000E-03 0. -1.
         11   -1    0    0    0    0 -0.00000000000E+00 -0.00000000000E+00 -0.45593999997E+02  0.45594000000E+02  0.51100000000E-03 0.  1.
    9900012    2    1    2    0    0  0.36115686957E+01  0.32667308420E+02  0.23936767303E+02  0.50528864535E+02  0.30000014239E+02 0.  0.
        -12    1    1    2    0    0 -0.36115686957E+01 -0.32667308420E+02 -0.23936767303E+02  0.40659135465E+02  0.00000000000E+00 0.  1.
         11    1    3    3    0    0 -0.29609365920E+01  0.26952812520E+00  0.34095398341E+01  0.45237985205E+01  0.51100000000E-03 0. -1.
        -11    1    3    3    0    0  0.86115181341E+01  0.99989156470E+00  0.44992963419E+00  0.86810405282E+01  0.51100000000E-03 0.  1.
        -12    1    3    3    0    0 -0.20390128465E+01  0.31397888731E+02  0.20077297835E+02  0.37324025486E+02  0.00000000000E+00 0.  1.
</event>
<event>
 7    1  0.6857839E-013  0.5052886E+02  0.7816164E-02  0.1300439E+00
        -11   -1    0    0    0    0  0.00000000000E+00  0.00000000000E+00  0.45593999997E+02  0.45594000000E+02  0.51100000000E-03 0. -1.
         11   -1    0    0    0    0 -0.00000000000E+00 -0.00000000000E+00 -0.45593999997E+02  0.45594000000E+02  0.51100000000E-03 0.  1.
    9900012    2    1    2    0    0 -0.13922633464E+02  0.21072386964E+02  0.31863460659E+02  0.50528864002E+02  0.30000012620E+02 0.  0.
        -12    1    1    2    0    0  0.13922633464E+02 -0.21072386964E+02 -0.31863460659E+02  0.40659135998E+02  0.00000000000E+00 0.  1.
         11    1    3    3    0    0  0.58360371291E+01 -0.35364584719E+00  0.31956865147E+01  0.66630929243E+01  0.51100000000E-03 0. -1.
        -11    1    3    3    0    0 -0.74647855265E+01  0.98224573088E+01  0.23083094399E+01  0.12551174577E+02  0.51100000000E-03 0.  1.
        -12    1    3    3    0    0 -0.12293885066E+02  0.11603575503E+02  0.26359464705E+02  0.31314596500E+02  0.00000000000E+00 0.  1.
</event>
<event>
 7    1  0.6857839E-013  0.5052885E+02  0.7816164E-02  0.1300439E+00
        -11   -1    0    0    0    0  0.00000000000E+00  0.00000000000E+00  0.45593999997E+02  0.45594000000E+02  0.51100000000E-03 0.  1.
         11   -1    0    0    0    0 -0.00000000000E+00 -0.00000000000E+00 -0.45593999997E+02  0.45594000000E+02  0.51100000000E-03 0. -1.
    9900012    2    1    2    0    0  0.19194923792E+02  0.35547506389E+02 -0.45930576794E+01  0.50528849877E+02  0.29999969687E+02 0.  0.
        -12    1    1    2    0    0 -0.19194923792E+02 -0.35547506389E+02  0.45930576794E+01  0.40659150123E+02  0.00000000000E+00 0.  1.
         11    1    3    3    0    0  0.13120425372E+02  0.44085980974E+01 -0.44909434028E+01  0.14551627814E+02  0.51100000000E-03 0. -1.
        -11    1    3    3    0    0  0.10563803874E+02  0.17575640255E+02 -0.45678493882E+01  0.21008625156E+02  0.51100000000E-03 0.  1.
        -12    1    3    3    0    0 -0.44893054539E+01  0.13563268037E+02  0.44657351115E+01  0.14968596908E+02  0.00000000000E+00 0.  1.
</event>
<event>
 7    1  0.6857839E-013  0.5052886E+02  0.7816164E-02  0.1300439E+00
        -11   -1    0    0    0    0  0.00000000000E+00  0.00000000000E+00  0.45593999997E+02  0.45594000000E+02  0.51100000000E-03 0.  1.
         11   -1    0    0    0    0 -0.00000000000E+00 -0.00000000000E+00 -0.45593999997E+02  0.45594000000E+02  0.51100000000E-03 0. -1.
    9900012    2    1    2    0    0 -0.36333470532E+02  0.13909853127E+02 -0.11813559421E+02  0.50528864728E+02  0.30000014826E+02 0.  0.
        -12    1    1    2    0    0  0.36333470532E+02 -0.13909853127E+02  0.11813559421E+02  0.40659135272E+02  0.00000000000E+00 0.  1.
         11    1    3    3    0    0 -0.22090914765E+02  0.14585449571E+01 -0.53944832152E+01  0.22786757513E+02  0.51100000000E-03 0. -1.
        -11    1    3    3    0    0 -0.78448891869E+01  0.16809060002E+02 -0.15879528609E+01  0.18617421386E+02  0.51100000000E-03 0.  1.
         12    1    3    3    0    0 -0.63976665804E+01 -0.43577518323E+01 -0.48311233451E+01  0.91246858292E+01  0.00000000000E+00 0. -1.
</event>
<event>
 7    1  0.6857839E-013  0.5052886E+02  0.7816164E-02  0.1300439E+00
        -11   -1    0    0    0    0  0.00000000000E+00  0.00000000000E+00  0.45593999997E+02  0.45594000000E+02  0.51100000000E-03 0. -1.
         11   -1    0    0    0    0 -0.00000000000E+00 -0.00000000000E+00 -0.45593999997E+02  0.45594000000E+02  0.51100000000E-03 0.  1.
    9900012    2    1    2    0    0  0.47981606675E+01 -0.35290843550E+02  0.19613759558E+02  0.50528861442E+02  0.30000004839E+02 0.  0.
        -12    1    1    2    0    0 -0.47981606675E+01  0.35290843550E+02 -0.19613759558E+02  0.40659138558E+02  0.00000000000E+00 0.  1.
         11    1    3    3    0    0  0.15124088449E+01 -0.53414474723E+01 -0.13996392999E+01  0.57251578183E+01  0.51100000000E-03 0. -1.
        -11    1    3    3    0    0 -0.11261945919E+02 -0.13884497771E+02  0.87959236229E+01  0.19924331278E+02  0.51100000000E-03 0.  1.
         12    1    3    3    0    0  0.14547697742E+02 -0.16064898307E+02  0.12217475235E+02  0.24879372346E+02  0.00000000000E+00 0. -1.
</event>
<event>
 7    1  0.6857839E-013  0.5052887E+02  0.7816164E-02  0.1300439E+00
        -11   -1    0    0    0    0  0.00000000000E+00  0.00000000000E+00  0.45593999997E+02  0.45594000000E+02  0.51100000000E-03 0. -1.
         11   -1    0    0    0    0 -0.00000000000E+00 -0.00000000000E+00 -0.45593999997E+02  0.45594000000E+02  0.51100000000E-03 0.  1.
    9900012    2    1    2    0    0 -0.33713970389E+02  0.18454314235E+02  0.13265432133E+02  0.50528865689E+02  0.30000017747E+02 0.  0.
        -12    1    1    2    0    0  0.33713970389E+02 -0.18454314235E+02 -0.13265432133E+02  0.40659134311E+02  0.00000000000E+00 0.  1.
         11    1    3    3    0    0 -0.15811185463E+02  0.14319065087E+01  0.23232798639E+01  0.16044985871E+02  0.51100000000E-03 0. -1.
        -11    1    3    3    0    0 -0.10396162866E+02  0.74356822513E+01 -0.55910328373E+01  0.13950957721E+02  0.51100000000E-03 0.  1.
         12    1    3    3    0    0 -0.75066220593E+01  0.95867254752E+01  0.16533185107E+02  0.20532922097E+02  0.00000000000E+00 0. -1.
</event>
<event>
 7    1  0.6857839E-013  0.5052886E+02  0.7816164E-02  0.1300439E+00
        -11   -1    0    0    0    0  0.00000000000E+00  0.00000000000E+00  0.45593999997E+02  0.45594000000E+02  0.51100000000E-03 0.  1.
         11   -1    0    0    0    0 -0.00000000000E+00 -0.00000000000E+00 -0.45593999997E+02  0.45594000000E+02  0.51100000000E-03 0. -1.
    9900012    2    1    2    0    0 -0.86193453384E+01 -0.10955489592E+02 -0.38194894028E+02  0.50528858395E+02  0.29999995577E+02 0.  0.
        -12    1    1    2    0    0  0.86193453384E+01  0.10955489592E+02  0.38194894028E+02  0.40659141605E+02  0.00000000000E+00 0.  1.
         11    1    3    3    0    0  0.81365746159E+01 -0.44896132345E+01 -0.17731187968E+02  0.20018878602E+02  0.51100000000E-03 0. -1.
        -11    1    3    3    0    0  0.89877480179E-01 -0.46797232606E+01 -0.87214075106E+01  0.98980218723E+01  0.51100000000E-03 0.  1.
        -12    1    3    3    0    0 -0.16845797434E+02 -0.17861530972E+01 -0.11742298549E+02  0.20611957920E+02  0.00000000000E+00 0.  1.
</event>
<event>
 7    1  0.6857839E-013  0.5052886E+02  0.7816164E-02  0.1300439E+00
        -11   -1    0    0    0    0  0.00000000000E+00  0.00000000000E+00  0.45593999997E+02  0.45594000000E+02  0.51100000000E-03 0. -1.
         11   -1    0    0    0    0 -0.00000000000E+00 -0.00000000000E+00 -0.45593999997E+02  0.45594000000E+02  0.51100000000E-03 0.  1.
    9900012    2    1    2    0    0  0.26329139541E+02 -0.65255988803E+01 -0.30287924212E+02  0.50528863478E+02  0.30000011027E+02 0.  0.
        -12    1    1    2    0    0 -0.26329139541E+02  0.65255988803E+01  0.30287924212E+02  0.40659136522E+02  0.00000000000E+00 0.  1.
         11    1    3    3    0    0  0.16185985068E+02 -0.65508055259E+01 -0.25753306115E+01  0.17650254777E+02  0.51100000000E-03 0. -1.
        -11    1    3    3    0    0 -0.22032008620E+01  0.23440672311E+00  0.32779306117E+00  0.22397520180E+01  0.51100000000E-03 0.  1.
        -12    1    3    3    0    0  0.12346355334E+02 -0.20920007754E+00 -0.28040386661E+02  0.30638856683E+02  0.00000000000E+00 0.  1.
</event>
<event>
 7    1  0.6857839E-013  0.5052886E+02  0.7816164E-02  0.1300439E+00
        -11   -1    0    0    0    0  0.00000000000E+00  0.00000000000E+00  0.45593999997E+02  0.45594000000E+02  0.51100000000E-03 0.  1.
         11   -1    0    0    0    0 -0.00000000000E+00 -0.00000000000E+00 -0.45593999997E+02  0.45594000000E+02  0.51100000000E-03 0. -1.
    9900012    2    1    2    0    0 -0.40625439405E+02  0.16521931919E+01 -0.99295454466E-01  0.50528856763E+02  0.29999990616E+02 0.  0.
        -12    1    1    2    0    0  0.40625439405E+02 -0.16521931919E+01  0.99295454466E-01  0.40659143237E+02  0.00000000000E+00 0.  1.
         11    1    3    3    0    0 -0.83155624926E+01 -0.89733996733E+01 -0.35667158719E+01  0.12743309760E+02  0.51100000000E-03 0. -1.
        -11    1    3    3    0    0 -0.10917487233E+02  0.26219012532E+01  0.88768799981E+01  0.14313102125E+02  0.51100000000E-03 0.  1.
         12    1    3    3    0    0 -0.21392389679E+02  0.80036916120E+01 -0.54094595807E+01  0.23472444878E+02  0.00000000000E+00 0. -1.
</event>
<event>
 7    1  0.6857839E-013  0.5052886E+02  0.7816164E-02  0.1300439E+00
        -11   -1    0    0    0    0  0.00000000000E+00  0.00000000000E+00  0.45593999997E+02  0.45594000000E+02  0.51100000000E-03 0.  1.
         11   -1    0    0    0    0 -0.00000000000E+00 -0.00000000000E+00 -0.45593999997E+02  0.45594000000E+02  0.51100000000E-03 0. -1.
    9900012    2    1    2    0    0 -0.10519694798E+02 -0.37692881284E+02 -0.11033972869E+02  0.50528857911E+02  0.29999994106E+02 0.  0.
        -12    1    1    2    0    0  0.10519694798E+02  0.37692881284E+02  0.11033972869E+02  0.40659142089E+02  0.00000000000E+00 0.  1.
         11    1    3    3    0    0  0.13495751553E+01 -0.20810301971E+01 -0.79626476373E+01  0.83400118368E+01  0.51100000000E-03 0. -1.
        -11    1    3    3    0    0 -0.89395221635E+01 -0.50513147705E+01 -0.50140531683E+01  0.11426791626E+02  0.51100000000E-03 0.  1.
         12    1    3    3    0    0 -0.29297477895E+01 -0.30560536316E+02  0.19427279365E+01  0.30762054449E+02  0.00000000000E+00 0. -1.
</event>
<event>
 7    1  0.6857839E-013  0.5052890E+02  0.7816164E-02  0.1300439E+00
        -11   -1    0    0    0    0  0.00000000000E+00  0.00000000000E+00  0.45593999997E+02  0.45594000000E+02  0.51100000000E-03 0.  1.
         11   -1    0    0    0    0 -0.00000000000E+00 -0.00000000000E+00 -0.45593999997E+02  0.45594000000E+02  0.51100000000E-03 0. -1.
    9900012    2    1    2    0    0 -0.35236550409E+01 -0.20655959994E+02 -0.34843621095E+02  0.50528895741E+02  0.30000109095E+02 0.  0.
        -12    1    1    2    0    0  0.35236550409E+01  0.20655959994E+02  0.34843621095E+02  0.40659104259E+02  0.00000000000E+00 0.  1.
         11    1    3    3    0    0 -0.68981741445E+01  0.29945324853E+01 -0.11146645823E+02  0.13446179558E+02  0.51100000000E-03 0. -1.
        -11    1    3    3    0    0 -0.38157907025E+00 -0.45297221731E+01  0.18879023544E+01  0.49222109984E+01  0.51100000000E-03 0.  1.
         12    1    3    3    0    0  0.37560981739E+01 -0.19120770306E+02 -0.25584877627E+02  0.32160505185E+02  0.00000000000E+00 0. -1.
</event>
<event>
 7    1  0.6857839E-013  0.5052886E+02  0.7816164E-02  0.1300439E+00
        -11   -1    0    0    0    0  0.00000000000E+00  0.00000000000E+00  0.45593999997E+02  0.45594000000E+02  0.51100000000E-03 0. -1.
         11   -1    0    0    0    0 -0.00000000000E+00 -0.00000000000E+00 -0.45593999997E+02  0.45594000000E+02  0.51100000000E-03 0.  1.
    9900012    2    1    2    0    0  0.22222935519E+02  0.30638729597E+02  0.14851776566E+02  0.50528857343E+02  0.29999992381E+02 0.  0.
        -12    1    1    2    0    0 -0.22222935519E+02 -0.30638729597E+02 -0.14851776566E+02  0.40659142657E+02  0.00000000000E+00 0.  1.
         11    1    3    3    0    0  0.44958258568E+00  0.32249336285E+01  0.45080919583E+01  0.55610443961E+01  0.51100000000E-03 0. -1.
        -11    1    3    3    0    0  0.13005265397E+02  0.31016920103E+02  0.47661425629E+01  0.33969138580E+02  0.51100000000E-03 0.  1.
         12    1    3    3    0    0  0.87680875360E+01 -0.36031241339E+01  0.55775420450E+01  0.10998674367E+02  0.00000000000E+00 0. -1.
</event>
<event>
 7    1  0.6857839E-013  0.5052887E+02  0.7816164E-02  0.1300439E+00
        -11   -1    0    0    0    0  0.00000000000E+00  0.00000000000E+00  0.45593999997E+02  0.45594000000E+02  0.51100000000E-03 0. -1.
         11   -1    0    0    0    0 -0.00000000000E+00 -0.00000000000E+00 -0.45593999997E+02  0.45594000000E+02  0.51100000000E-03 0.  1.
    9900012    2    1    2    0    0 -0.19865933222E+02  0.20338075847E+02  0.29066692039E+02  0.50528865503E+02  0.30000017184E+02 0.  0.
        -12    1    1    2    0    0  0.19865933222E+02 -0.20338075847E+02 -0.29066692039E+02  0.40659134497E+02  0.00000000000E+00 0.  1.
         11    1    3    3    0    0 -0.47413753412E+01  0.18693198410E+02  0.11559306774E+02  0.22484080597E+02  0.51100000000E-03 0. -1.
        -11    1    3    3    0    0 -0.17667875603E+01  0.38032669510E+01  0.13191632637E+02  0.13842165643E+02  0.51100000000E-03 0.  1.
        -12    1    3    3    0    0 -0.13357770320E+02 -0.21583895136E+01  0.43157526271E+01  0.14202619264E+02  0.00000000000E+00 0.  1.
</event>
<event>
 7    1  0.6857839E-013  0.5052886E+02  0.7816164E-02  0.1300439E+00
        -11   -1    0    0    0    0  0.00000000000E+00  0.00000000000E+00  0.45593999997E+02  0.45594000000E+02  0.51100000000E-03 0. -1.
         11   -1    0    0    0    0 -0.00000000000E+00 -0.00000000000E+00 -0.45593999997E+02  0.45594000000E+02  0.51100000000E-03 0.  1.
    9900012    2    1    2    0    0  0.31255094865E+02  0.99916731108E+01  0.24009404928E+02  0.50528855745E+02  0.29999987523E+02 0.  0.
        -12    1    1    2    0    0 -0.31255094865E+02 -0.99916731108E+01 -0.24009404928E+02  0.40659144255E+02  0.00000000000E+00 0.  1.
         11    1    3    3    0    0  0.18115681364E+02  0.62974012953E+01  0.17011264137E+02  0.25636268881E+02  0.51100000000E-03 0. -1.
        -11    1    3    3    0    0  0.17986320970E+02  0.33867265902E+00  0.54666086429E+01  0.18801761926E+02  0.51100000000E-03 0.  1.
         12    1    3    3    0    0 -0.48469074687E+01  0.33555991565E+01  0.15315321481E+01  0.60908249384E+01  0.00000000000E+00 0. -1.
</event>
<event>
 7    1  0.6857839E-013  0.5052886E+02  0.7816164E-02  0.1300439E+00
        -11   -1    0    0    0    0  0.00000000000E+00  0.00000000000E+00  0.45593999997E+02  0.45594000000E+02  0.51100000000E-03 0. -1.
         11   -1    0    0    0    0 -0.00000000000E+00 -0.00000000000E+00 -0.45593999997E+02  0.45594000000E+02  0.51100000000E-03 0.  1.
    9900012    2    1    2    0    0 -0.21472331103E+02 -0.20897040996E+02  0.27484875005E+02  0.50528859829E+02  0.29999999937E+02 0.  0.
        -12    1    1    2    0    0  0.21472331103E+02  0.20897040996E+02 -0.27484875005E+02  0.40659140171E+02  0.00000000000E+00 0.  1.
         11    1    3    3    0    0 -0.13257338580E+02 -0.10846749013E+02  0.33179892638E+01  0.17447579872E+02  0.51100000000E-03 0. -1.
        -11    1    3    3    0    0 -0.13393021879E+02 -0.56283474646E+01  0.21089471496E+02  0.25608926930E+02  0.51100000000E-03 0.  1.
        -12    1    3    3    0    0  0.51780293557E+01 -0.44219445179E+01  0.30774142450E+01  0.74723530272E+01  0.00000000000E+00 0.  1.
</event>
<event>
 7    1  0.6857839E-013  0.5052888E+02  0.7816164E-02  0.1300439E+00
        -11   -1    0    0    0    0  0.00000000000E+00  0.00000000000E+00  0.45593999997E+02  0.45594000000E+02  0.51100000000E-03 0. -1.
         11   -1    0    0    0    0 -0.00000000000E+00 -0.00000000000E+00 -0.45593999997E+02  0.45594000000E+02  0.51100000000E-03 0.  1.
    9900012    2    1    2    0    0 -0.23720913690E+02  0.32809697963E+02  0.37424708062E+01  0.50528879074E+02  0.30000058435E+02 0.  0.
        -12    1    1    2    0    0  0.23720913690E+02 -0.32809697963E+02 -0.37424708062E+01  0.40659120926E+02  0.00000000000E+00 0.  1.
         11    1    3    3    0    0 -0.14757285202E+02  0.13067300594E+02  0.62960131256E+01  0.20692307578E+02  0.51100000000E-03 0. -1.
        -11    1    3    3    0    0  0.26929392384E+01 -0.62309613048E-01  0.49724002078E+01  0.56551364543E+01  0.51100000000E-03 0.  1.
        -12    1    3    3    0    0 -0.11656567727E+02  0.19804706981E+02 -0.75259425272E+01  0.24181435042E+02  0.00000000000E+00 0.  1.
</event>
<event>
 7    1  0.6857839E-013  0.5052884E+02  0.7816164E-02  0.1300439E+00
        -11   -1    0    0    0    0  0.00000000000E+00  0.00000000000E+00  0.45593999997E+02  0.45594000000E+02  0.51100000000E-03 0. -1.
         11   -1    0    0    0    0 -0.00000000000E+00 -0.00000000000E+00 -0.45593999997E+02  0.45594000000E+02  0.51100000000E-03 0.  1.
    9900012    2    1    2    0    0  0.41494663093E+01  0.22036761590E+02  0.33916515082E+02  0.50528844483E+02  0.29999953290E+02 0.  0.
        -12    1    1    2    0    0 -0.41494663093E+01 -0.22036761590E+02 -0.33916515082E+02  0.40659155517E+02  0.00000000000E+00 0.  1.
         11    1    3    3    0    0  0.40563297151E+01  0.11029526339E+02  0.37412329679E+01  0.12332926919E+02  0.51100000000E-03 0. -1.
        -11    1    3    3    0    0 -0.21214068407E+01  0.16945131164E+02  0.21748600198E+02  0.27652114710E+02  0.51100000000E-03 0.  1.
        -12    1    3    3    0    0  0.22145434349E+01 -0.59378959119E+01  0.84266819166E+01  0.10543802853E+02  0.00000000000E+00 0.  1.
</event>
<event>
 7    1  0.6857839E-013  0.5052887E+02  0.7816164E-02  0.1300439E+00
        -11   -1    0    0    0    0  0.00000000000E+00  0.00000000000E+00  0.45593999997E+02  0.45594000000E+02  0.51100000000E-03 0. -1.
         11   -1    0    0    0    0 -0.00000000000E+00 -0.00000000000E+00 -0.45593999997E+02  0.45594000000E+02  0.51100000000E-03 0.  1.
    9900012    2    1    2    0    0 -0.33246098671E+02 -0.20097448831E+02  0.11998104118E+02  0.50528867830E+02  0.30000024256E+02 0.  0.
        -12    1    1    2    0    0  0.33246098671E+02  0.20097448831E+02 -0.11998104118E+02  0.40659132170E+02  0.00000000000E+00 0.  1.
         11    1    3    3    0    0 -0.73712328761E+01 -0.32945287117E+01  0.71388952802E+01  0.10777421752E+02  0.51100000000E-03 0. -1.
        -11    1    3    3    0    0 -0.26671702202E+02 -0.21748546908E+02  0.47481164071E+01  0.34740805987E+02  0.51100000000E-03 0.  1.
        -12    1    3    3    0    0  0.79683640663E+00  0.49456267884E+01  0.11109243111E+00  0.50106400906E+01  0.00000000000E+00 0.  1.
</event>
<event>
 7    1  0.6857839E-013  0.5052886E+02  0.7816164E-02  0.1300439E+00
        -11   -1    0    0    0    0  0.00000000000E+00  0.00000000000E+00  0.45593999997E+02  0.45594000000E+02  0.51100000000E-03 0.  1.
         11   -1    0    0    0    0 -0.00000000000E+00 -0.00000000000E+00 -0.45593999997E+02  0.45594000000E+02  0.51100000000E-03 0. -1.
    9900012    2    1    2    0    0 -0.38017713326E+02  0.14492238515E+01 -0.14342906469E+02  0.50528859056E+02  0.29999997588E+02 0.  0.
        -12    1    1    2    0    0  0.38017713326E+02 -0.14492238515E+01  0.14342906469E+02  0.40659140944E+02  0.00000000000E+00 0.  1.
         11    1    3    3    0    0  0.25778872448E+01  0.47696135518E+01 -0.14258834341E+01  0.56060556462E+01  0.51100000000E-03 0. -1.
        -11    1    3    3    0    0 -0.55918456956E+01 -0.36229287785E+01  0.18735104467E+01  0.69212999410E+01  0.51100000000E-03 0.  1.
         12    1    3    3    0    0 -0.35003754875E+02  0.30253907829E+00 -0.14790533482E+02  0.38001503469E+02  0.00000000000E+00 0. -1.
</event>
<event>
 7    1  0.6857839E-013  0.5052886E+02  0.7816164E-02  0.1300439E+00
        -11   -1    0    0    0    0  0.00000000000E+00  0.00000000000E+00  0.45593999997E+02  0.45594000000E+02  0.51100000000E-03 0.  1.
         11   -1    0    0    0    0 -0.00000000000E+00 -0.00000000000E+00 -0.45593999997E+02  0.45594000000E+02  0.51100000000E-03 0. -1.
    9900012    2    1    2    0    0  0.23758799844E+02 -0.12936425078E+00 -0.32994973769E+02  0.50528860816E+02  0.30000002938E+02 0.  0.
        -12    1    1    2    0    0 -0.23758799844E+02  0.12936425078E+00  0.32994973769E+02  0.40659139184E+02  0.00000000000E+00 0.  1.
         11    1    3    3    0    0  0.19412629745E+02 -0.29423042469E+01 -0.29493241754E+02  0.35431040873E+02  0.51100000000E-03 0. -1.
        -11    1    3    3    0    0  0.74099960698E+01 -0.20470242223E+01 -0.49874916012E+01  0.91637013621E+01  0.51100000000E-03 0.  1.
         12    1    3    3    0    0 -0.30638259714E+01  0.48599642185E+01  0.14857595864E+01  0.59341185812E+01  0.00000000000E+00 0. -1.
</event>
<event>
 7    1  0.6857839E-013  0.5052890E+02  0.7816164E-02  0.1300439E+00
        -11   -1    0    0    0    0  0.00000000000E+00  0.00000000000E+00  0.45593999997E+02  0.45594000000E+02  0.51100000000E-03 0. -1.
         11   -1    0    0    0    0 -0.00000000000E+00 -0.00000000000E+00 -0.45593999997E+02  0.45594000000E+02  0.51100000000E-03 0.  1.
    9900012    2    1    2    0    0  0.31186514544E+02 -0.16366952696E+02 -0.20314681233E+02  0.50528903803E+02  0.30000133600E+02 0.  0.
        -12    1    1    2    0    0 -0.31186514544E+02  0.16366952696E+02  0.20314681233E+02  0.40659096197E+02  0.00000000000E+00 0.  1.
         11    1    3    3    0    0  0.10111601129E+02  0.23794750448E+01  0.27691819993E+01  0.10750569664E+02  0.51100000000E-03 0. -1.
        -11    1    3    3    0    0  0.61522036368E+01 -0.13940669689E+00 -0.11981003154E+02  0.13468982168E+02  0.51100000000E-03 0.  1.
         12    1    3    3    0    0  0.14922709778E+02 -0.18607021044E+02 -0.11102860078E+02  0.26309351971E+02  0.00000000000E+00 0. -1.
</event>
<event>
 7    1  0.6857839E-013  0.5052879E+02  0.7816164E-02  0.1300439E+00
        -11   -1    0    0    0    0  0.00000000000E+00  0.00000000000E+00  0.45593999997E+02  0.45594000000E+02  0.51100000000E-03 0. -1.
         11   -1    0    0    0    0 -0.00000000000E+00 -0.00000000000E+00 -0.45593999997E+02  0.45594000000E+02  0.51100000000E-03 0.  1.
    9900012    2    1    2    0    0 -0.10997606246E+02  0.15560951411E+02  0.35917698438E+02  0.50528786862E+02  0.29999778144E+02 0.  0.
        -12    1    1    2    0    0  0.10997606246E+02 -0.15560951411E+02 -0.35917698438E+02  0.40659213138E+02  0.00000000000E+00 0.  1.
         11    1    3    3    0    0 -0.36818380353E+01  0.93508587315E+01  0.14682100991E+02  0.17792093191E+02  0.51100000000E-03 0. -1.
        -11    1    3    3    0    0 -0.91557886228E+01  0.23836761774E+01  0.25206358246E+02  0.26923426114E+02  0.51100000000E-03 0.  1.
        -12    1    3    3    0    0  0.18400204123E+01  0.38264165016E+01 -0.39707607994E+01  0.58132675568E+01  0.00000000000E+00 0.  1.
</event>
<event>
 7    1  0.6857839E-013  0.5052885E+02  0.7816164E-02  0.1300439E+00
        -11   -1    0    0    0    0  0.00000000000E+00  0.00000000000E+00  0.45593999997E+02  0.45594000000E+02  0.51100000000E-03 0.  1.
         11   -1    0    0    0    0 -0.00000000000E+00 -0.00000000000E+00 -0.45593999997E+02  0.45594000000E+02  0.51100000000E-03 0. -1.
    9900012    2    1    2    0    0  0.36178246427E+02 -0.70633084052E+01 -0.17158390693E+02  0.50528853289E+02  0.29999980056E+02 0.  0.
        -12    1    1    2    0    0 -0.36178246427E+02  0.70633084052E+01  0.17158390693E+02  0.40659146711E+02  0.00000000000E+00 0.  1.
         11    1    3    3    0    0  0.15297708024E+02 -0.94312768447E+00 -0.25712884601E+00  0.15328909815E+02  0.51100000000E-03 0. -1.
        -11    1    3    3    0    0  0.12279850067E+02  0.44602337850E+01  0.52246852540E+00  0.13075219949E+02  0.51100000000E-03 0.  1.
         12    1    3    3    0    0  0.86006883355E+01 -0.10580414506E+02 -0.17423730372E+02  0.22124723525E+02  0.00000000000E+00 0. -1.
</event>
<event>
 7    1  0.6857839E-013  0.5052883E+02  0.7816164E-02  0.1300439E+00
        -11   -1    0    0    0    0  0.00000000000E+00  0.00000000000E+00  0.45593999997E+02  0.45594000000E+02  0.51100000000E-03 0.  1.
         11   -1    0    0    0    0 -0.00000000000E+00 -0.00000000000E+00 -0.45593999997E+02  0.45594000000E+02  0.51100000000E-03 0. -1.
    9900012    2    1    2    0    0 -0.30961795256E+02 -0.23128332590E+02 -0.12633901850E+02  0.50528831172E+02  0.29999912830E+02 0.  0.
        -12    1    1    2    0    0  0.30961795256E+02  0.23128332590E+02  0.12633901850E+02  0.40659168828E+02  0.00000000000E+00 0.  1.
         11    1    3    3    0    0 -0.12273663150E+02 -0.70182771712E+01 -0.43057731618E+01  0.14779671998E+02  0.51100000000E-03 0. -1.
        -11    1    3    3    0    0 -0.96346441290E+01 -0.21482798912E+02 -0.23979706023E+01  0.23666163184E+02  0.51100000000E-03 0.  1.
        -12    1    3    3    0    0 -0.90534879765E+01  0.53727434931E+01 -0.59301580856E+01  0.12082995990E+02  0.00000000000E+00 0.  1.
</event>
<event>
 7    1  0.6857839E-013  0.5052886E+02  0.7816164E-02  0.1300439E+00
        -11   -1    0    0    0    0  0.00000000000E+00  0.00000000000E+00  0.45593999997E+02  0.45594000000E+02  0.51100000000E-03 0.  1.
         11   -1    0    0    0    0 -0.00000000000E+00 -0.00000000000E+00 -0.45593999997E+02  0.45594000000E+02  0.51100000000E-03 0. -1.
    9900012    2    1    2    0    0  0.20623923319E+02 -0.30882028061E+02 -0.16556551995E+02  0.50528864690E+02  0.30000014712E+02 0.  0.
        -12    1    1    2    0    0 -0.20623923319E+02  0.30882028061E+02  0.16556551995E+02  0.40659135310E+02  0.00000000000E+00 0.  1.
         11    1    3    3    0    0  0.17192439959E+02 -0.99831182113E+01 -0.58136192400E+01  0.20713300314E+02  0.51100000000E-03 0. -1.
        -11    1    3    3    0    0  0.28137248900E+01 -0.26161873604E+00 -0.86067808087E+01  0.90588171562E+01  0.51100000000E-03 0.  1.
        -12    1    3    3    0    0  0.61775846981E+00 -0.20637291113E+02 -0.21361519464E+01  0.20756747220E+02  0.00000000000E+00 0.  1.
</event>
<event>
 7    1  0.6857839E-013  0.5052886E+02  0.7816164E-02  0.1300439E+00
        -11   -1    0    0    0    0  0.00000000000E+00  0.00000000000E+00  0.45593999997E+02  0.45594000000E+02  0.51100000000E-03 0.  1.
         11   -1    0    0    0    0 -0.00000000000E+00 -0.00000000000E+00 -0.45593999997E+02  0.45594000000E+02  0.51100000000E-03 0. -1.
    9900012    2    1    2    0    0 -0.78265973462E+01  0.53402004782E+01 -0.39539751546E+02  0.50528864256E+02  0.30000013393E+02 0.  0.
        -12    1    1    2    0    0  0.78265973462E+01 -0.53402004782E+01  0.39539751546E+02  0.40659135744E+02  0.00000000000E+00 0.  1.
         11    1    3    3    0    0  0.77803813350E+00  0.16708664352E+01 -0.30465241517E+02  0.30520944922E+02  0.51100000000E-03 0. -1.
        -11    1    3    3    0    0  0.11848252125E+01  0.49561238405E+01  0.17205476689E+01  0.53784067203E+01  0.51100000000E-03 0.  1.
        -12    1    3    3    0    0 -0.97894606922E+01 -0.12867897975E+01 -0.10795057698E+02  0.14629512614E+02  0.00000000000E+00 0.  1.
</event>
<event>
 7    1  0.6857839E-013  0.5052887E+02  0.7816164E-02  0.1300439E+00
        -11   -1    0    0    0    0  0.00000000000E+00  0.00000000000E+00  0.45593999997E+02  0.45594000000E+02  0.51100000000E-03 0.  1.
         11   -1    0    0    0    0 -0.00000000000E+00 -0.00000000000E+00 -0.45593999997E+02  0.45594000000E+02  0.51100000000E-03 0. -1.
    9900012    2    1    2    0    0  0.18222020270E+02 -0.14287593834E+02 -0.33421365748E+02  0.50528867585E+02  0.30000023512E+02 0.  0.
        -12    1    1    2    0    0 -0.18222020270E+02  0.14287593834E+02  0.33421365748E+02  0.40659132415E+02  0.00000000000E+00 0.  1.
         11    1    3    3    0    0  0.49286032967E+01 -0.11348141632E+02 -0.22324269822E+02  0.25523410280E+02  0.51100000000E-03 0. -1.
        -11    1    3    3    0    0  0.81282197984E+00  0.62517125525E+01 -0.59625836430E+01  0.86773840166E+01  0.51100000000E-03 0.  1.
         12    1    3    3    0    0  0.12480594994E+02 -0.91911647542E+01 -0.51345122821E+01  0.16328073289E+02  0.00000000000E+00 0. -1.
</event>
<event>
 7    1  0.6857839E-013  0.5052887E+02  0.7816164E-02  0.1300439E+00
        -11   -1    0    0    0    0  0.00000000000E+00  0.00000000000E+00  0.45593999997E+02  0.45594000000E+02  0.51100000000E-03 0.  1.
         11   -1    0    0    0    0 -0.00000000000E+00 -0.00000000000E+00 -0.45593999997E+02  0.45594000000E+02  0.51100000000E-03 0. -1.
    9900012    2    1    2    0    0 -0.33079424648E+01 -0.35883214487E+02 -0.18831288838E+02  0.50528868128E+02  0.30000025162E+02 0.  0.
        -12    1    1    2    0    0  0.33079424648E+01  0.35883214487E+02  0.18831288838E+02  0.40659131872E+02  0.00000000000E+00 0.  1.
         11    1    3    3    0    0  0.30903498355E+01 -0.19376961472E+02 -0.89847664050E+01  0.21581077953E+02  0.51100000000E-03 0. -1.
        -11    1    3    3    0    0 -0.44438317731E+01 -0.10872053663E+02  0.51382523152E+01  0.12819938720E+02  0.51100000000E-03 0.  1.
        -12    1    3    3    0    0 -0.19544605273E+01 -0.56341993526E+01 -0.14984774748E+02  0.16127851455E+02  0.00000000000E+00 0.  1.
</event>
<event>
 7    1  0.6857839E-013  0.5052885E+02  0.7816164E-02  0.1300439E+00
        -11   -1    0    0    0    0  0.00000000000E+00  0.00000000000E+00  0.45593999997E+02  0.45594000000E+02  0.51100000000E-03 0.  1.
         11   -1    0    0    0    0 -0.00000000000E+00 -0.00000000000E+00 -0.45593999997E+02  0.45594000000E+02  0.51100000000E-03 0. -1.
    9900012    2    1    2    0    0 -0.34753421796E+01  0.35275356194E+01 -0.40356470155E+02  0.50528853499E+02  0.29999980697E+02 0.  0.
        -12    1    1    2    0    0  0.34753421796E+01 -0.35275356194E+01  0.40356470155E+02  0.40659146501E+02  0.00000000000E+00 0.  1.
         11    1    3    3    0    0  0.60421365821E+01  0.48007610470E+01 -0.72626681493E+01  0.10597219919E+02  0.51100000000E-03 0. -1.
        -11    1    3    3    0    0 -0.25131958532E+01 -0.81867745820E+01 -0.44639223234E+01  0.96574341429E+01  0.51100000000E-03 0.  1.
        -12    1    3    3    0    0 -0.70042829085E+01  0.69135491544E+01 -0.28629879682E+02  0.30274199437E+02  0.00000000000E+00 0.  1.
</event>
<event>
 7    1  0.6857839E-013  0.5052887E+02  0.7816164E-02  0.1300439E+00
        -11   -1    0    0    0    0  0.00000000000E+00  0.00000000000E+00  0.45593999997E+02  0.45594000000E+02  0.51100000000E-03 0.  1.
         11   -1    0    0    0    0 -0.00000000000E+00 -0.00000000000E+00 -0.45593999997E+02  0.45594000000E+02  0.51100000000E-03 0. -1.
    9900012    2    1    2    0    0  0.24073861314E+01  0.39761839541E+02 -0.81465157747E+01  0.50528866820E+02  0.30000021186E+02 0.  0.
        -12    1    1    2    0    0 -0.24073861314E+01 -0.39761839541E+02  0.81465157747E+01  0.40659133180E+02  0.00000000000E+00 0.  1.
         11    1    3    3    0    0  0.35141428734E+01  0.11765092345E+02 -0.10117353138E+00  0.12279121889E+02  0.51100000000E-03 0. -1.
        -11    1    3    3    0    0  0.84767238222E+01  0.12378130449E+01  0.46646452300E+00  0.85793133352E+01  0.51100000000E-03 0.  1.
        -12    1    3    3    0    0 -0.95834805641E+01  0.26758934151E+02 -0.85118067663E+01  0.29670431596E+02  0.00000000000E+00 0.  1.
</event>
<event>
 7    1  0.6857839E-013  0.5052879E+02  0.7816164E-02  0.1300439E+00
        -11   -1    0    0    0    0  0.00000000000E+00  0.00000000000E+00  0.45593999997E+02  0.45594000000E+02  0.51100000000E-03 0.  1.
         11   -1    0    0    0    0 -0.00000000000E+00 -0.00000000000E+00 -0.45593999997E+02  0.45594000000E+02  0.51100000000E-03 0. -1.
    9900012    2    1    2    0    0 -0.24797236240E+02  0.13745723793E+02 -0.29143160244E+02  0.50528786570E+02  0.29999777256E+02 0.  0.
        -12    1    1    2    0    0  0.24797236240E+02 -0.13745723793E+02  0.29143160244E+02  0.40659213430E+02  0.00000000000E+00 0.  1.
         11    1    3    3    0    0 -0.13395898851E+02  0.15547594852E+02 -0.18761059635E+02  0.27805667958E+02  0.51100000000E-03 0. -1.
        -11    1    3    3    0    0 -0.10456841238E+02  0.40871488503E+01 -0.57142798843E+00  0.11241745621E+02  0.51100000000E-03 0.  1.
        -12    1    3    3    0    0 -0.94449615132E+00 -0.58890199094E+01 -0.98106726212E+01  0.11481372991E+02  0.00000000000E+00 0.  1.
</event>
<event>
 7    1  0.6857839E-013  0.5052886E+02  0.7816164E-02  0.1300439E+00
        -11   -1    0    0    0    0  0.00000000000E+00  0.00000000000E+00  0.45593999997E+02  0.45594000000E+02  0.51100000000E-03 0.  1.
         11   -1    0    0    0    0 -0.00000000000E+00 -0.00000000000E+00 -0.45593999997E+02  0.45594000000E+02  0.51100000000E-03 0. -1.
    9900012    2    1    2    0    0 -0.34107240640E+02  0.90318878361E+01 -0.20206103195E+02  0.50528862426E+02  0.30000007829E+02 0.  0.
        -12    1    1    2    0    0  0.34107240640E+02 -0.90318878361E+01  0.20206103195E+02  0.40659137574E+02  0.00000000000E+00 0.  1.
         11    1    3    3    0    0 -0.83445961771E+01  0.11557047425E+01  0.28740405732E+01  0.89010138910E+01  0.51100000000E-03 0. -1.
        -11    1    3    3    0    0  0.14516230288E+01 -0.41899431670E+01 -0.95224101151E+00  0.45353716899E+01  0.51100000000E-03 0.  1.
         12    1    3    3    0    0 -0.27214267492E+02  0.12066126261E+02 -0.22127902757E+02  0.37092476845E+02  0.00000000000E+00 0. -1.
</event>
<event>
 7    1  0.6857839E-013  0.5052887E+02  0.7816164E-02  0.1300439E+00
        -11   -1    0    0    0    0  0.00000000000E+00  0.00000000000E+00  0.45593999997E+02  0.45594000000E+02  0.51100000000E-03 0.  1.
         11   -1    0    0    0    0 -0.00000000000E+00 -0.00000000000E+00 -0.45593999997E+02  0.45594000000E+02  0.51100000000E-03 0. -1.
    9900012    2    1    2    0    0  0.28694198234E+02  0.21025275642E+02 -0.19691264095E+02  0.50528866835E+02  0.30000021231E+02 0.  0.
        -12    1    1    2    0    0 -0.28694198234E+02 -0.21025275642E+02  0.19691264095E+02  0.40659133165E+02  0.00000000000E+00 0.  1.
         11    1    3    3    0    0  0.10081250751E+01  0.13622450406E+02 -0.75822407087E+01  0.15622990932E+02  0.51100000000E-03 0. -1.
        -11    1    3    3    0    0  0.16560159095E+02  0.11965569039E+02 -0.98062050220E+01  0.22662201325E+02  0.51100000000E-03 0.  1.
        -12    1    3    3    0    0  0.11125914063E+02 -0.45627438033E+01 -0.23028183643E+01  0.12243674578E+02  0.00000000000E+00 0.  1.
</event>
<event>
 7    1  0.6857839E-013  0.5052886E+02  0.7816164E-02  0.1300439E+00
        -11   -1    0    0    0    0  0.00000000000E+00  0.00000000000E+00  0.45593999997E+02  0.45594000000E+02  0.51100000000E-03 0.  1.
         11   -1    0    0    0    0 -0.00000000000E+00 -0.00000000000E+00 -0.45593999997E+02  0.45594000000E+02  0.51100000000E-03 0. -1.
    9900012    2    1    2    0    0 -0.22566526226E+02 -0.66911971061E+01 -0.33153362228E+02  0.50528860171E+02  0.30000000975E+02 0.  0.
        -12    1    1    2    0    0  0.22566526226E+02  0.66911971061E+01  0.33153362228E+02  0.40659139829E+02  0.00000000000E+00 0.  1.
         11    1    3    3    0    0 -0.21179519188E+01  0.14356780623E+01 -0.75977868896E+00  0.26691114152E+01  0.51100000000E-03 0. -1.
        -11    1    3    3    0    0 -0.15029144773E+01 -0.61315331379E+01  0.35040932049E+01  0.72203268622E+01  0.51100000000E-03 0.  1.
         12    1    3    3    0    0 -0.18945659830E+02 -0.19953420305E+01 -0.35897676744E+02  0.40639421893E+02  0.00000000000E+00 0. -1.
</event>
<event>
 7    1  0.6857839E-013  0.5052883E+02  0.7816164E-02  0.1300439E+00
        -11   -1    0    0    0    0  0.00000000000E+00  0.00000000000E+00  0.45593999997E+02  0.45594000000E+02  0.51100000000E-03 0.  1.
         11   -1    0    0    0    0 -0.00000000000E+00 -0.00000000000E+00 -0.45593999997E+02  0.45594000000E+02  0.51100000000E-03 0. -1.
    9900012    2    1    2    0    0  0.27624105968E+02  0.15675500210E+02 -0.25384165238E+02  0.50528826593E+02  0.29999898911E+02 0.  0.
        -12    1    1    2    0    0 -0.27624105968E+02 -0.15675500210E+02  0.25384165238E+02  0.40659173407E+02  0.00000000000E+00 0.  1.
         11    1    3    3    0    0  0.36163552876E+01  0.81433360977E+01 -0.17343541125E+02  0.19498470899E+02  0.51100000000E-03 0.  1.
        -11    1    3    3    0    0  0.11571920237E+02  0.23242508585E+01 -0.12146607583E+02  0.16936692596E+02  0.51100000000E-03 0. -1.
        -12    1    3    3    0    0  0.12435830443E+02  0.52079132535E+01  0.41059834707E+01  0.14093663098E+02  0.00000000000E+00 0.  1.
</event>
<event>
 7    1  0.6857839E-013  0.5052886E+02  0.7816164E-02  0.1300439E+00
        -11   -1    0    0    0    0  0.00000000000E+00  0.00000000000E+00  0.45593999997E+02  0.45594000000E+02  0.51100000000E-03 0. -1.
         11   -1    0    0    0    0 -0.00000000000E+00 -0.00000000000E+00 -0.45593999997E+02  0.45594000000E+02  0.51100000000E-03 0.  1.
    9900012    2    1    2    0    0  0.69623217010E+01 -0.13060388724E+02  0.37869748902E+02  0.50528861310E+02  0.30000004437E+02 0.  0.
        -12    1    1    2    0    0 -0.69623217010E+01  0.13060388724E+02 -0.37869748902E+02  0.40659138690E+02  0.00000000000E+00 0.  1.
         11    1    3    3    0    0 -0.33371821712E+01  0.56849611942E+01  0.15005423597E+02  0.16389579196E+02  0.51100000000E-03 0. -1.
        -11    1    3    3    0    0 -0.18548585935E+01 -0.10224650551E+02  0.78232167498E+01  0.13007178782E+02  0.51100000000E-03 0.  1.
         12    1    3    3    0    0  0.12154362466E+02 -0.85206993672E+01  0.15041108555E+02  0.21132103332E+02  0.00000000000E+00 0. -1.
</event>
<event>
 7    1  0.6857839E-013  0.5052887E+02  0.7816164E-02  0.1300439E+00
        -11   -1    0    0    0    0  0.00000000000E+00  0.00000000000E+00  0.45593999997E+02  0.45594000000E+02  0.51100000000E-03 0.  1.
         11   -1    0    0    0    0 -0.00000000000E+00 -0.00000000000E+00 -0.45593999997E+02  0.45594000000E+02  0.51100000000E-03 0. -1.
    9900012    2    1    2    0    0 -0.14873799174E+00 -0.25627223776E+02 -0.31565619352E+02  0.50528867612E+02  0.30000023594E+02 0.  0.
        -12    1    1    2    0    0  0.14873799174E+00  0.25627223776E+02  0.31565619352E+02  0.40659132388E+02  0.00000000000E+00 0.  1.
         11    1    3    3    0    0 -0.56724394559E+01 -0.15487622736E+02 -0.26069583037E+02  0.30849087302E+02  0.51100000000E-03 0. -1.
        -11    1    3    3    0    0 -0.41790627737E+01  0.81557111500E+00 -0.14221931045E+01  0.44891374893E+01  0.51100000000E-03 0.  1.
        -12    1    3    3    0    0  0.97027642378E+01 -0.10955172155E+02 -0.40738432108E+01  0.15190642821E+02  0.00000000000E+00 0.  1.
</event>
<event>
 7    1  0.6857839E-013  0.5052887E+02  0.7816164E-02  0.1300439E+00
        -11   -1    0    0    0    0  0.00000000000E+00  0.00000000000E+00  0.45593999997E+02  0.45594000000E+02  0.51100000000E-03 0.  1.
         11   -1    0    0    0    0 -0.00000000000E+00 -0.00000000000E+00 -0.45593999997E+02  0.45594000000E+02  0.51100000000E-03 0. -1.
    9900012    2    1    2    0    0  0.25547850199E+02  0.63537837264E+01 -0.30985509721E+02  0.50528867814E+02  0.30000024208E+02 0.  0.
        -12    1    1    2    0    0 -0.25547850199E+02 -0.63537837264E+01  0.30985509721E+02  0.40659132186E+02  0.00000000000E+00 0.  1.
         11    1    3    3    0    0  0.10913603315E+02 -0.55904164745E+00 -0.19368297528E+02  0.22238484982E+02  0.51100000000E-03 0. -1.
        -11    1    3    3    0    0  0.16314778822E+02 -0.22064678221E+01 -0.65063956313E+01  0.17702364041E+02  0.51100000000E-03 0.  1.
        -12    1    3    3    0    0 -0.16805319390E+01  0.91192931959E+01 -0.51108165615E+01  0.10588018791E+02  0.00000000000E+00 0.  1.
</event>
<event>
 7    1  0.6857839E-013  0.5052886E+02  0.7816164E-02  0.1300439E+00
        -11   -1    0    0    0    0  0.00000000000E+00  0.00000000000E+00  0.45593999997E+02  0.45594000000E+02  0.51100000000E-03 0.  1.
         11   -1    0    0    0    0 -0.00000000000E+00 -0.00000000000E+00 -0.45593999997E+02  0.45594000000E+02  0.51100000000E-03 0. -1.
    9900012    2    1    2    0    0 -0.10188214424E+02 -0.13657171789E+02 -0.36916768240E+02  0.50528857957E+02  0.29999994245E+02 0.  0.
        -12    1    1    2    0    0  0.10188214424E+02  0.13657171789E+02  0.36916768240E+02  0.40659142043E+02  0.00000000000E+00 0.  1.
         11    1    3    3    0    0  0.12342172826E+01 -0.11888056480E+02 -0.15570053449E+02  0.19628442216E+02  0.51100000000E-03 0. -1.
        -11    1    3    3    0    0 -0.10908898214E+02 -0.89329674987E+01 -0.18292305111E+02  0.23095679144E+02  0.51100000000E-03 0.  1.
         12    1    3    3    0    0 -0.51353349264E+00  0.71638521899E+01 -0.30544096800E+01  0.78047365964E+01  0.00000000000E+00 0. -1.
</event>
<event>
 7    1  0.6857839E-013  0.5052886E+02  0.7816164E-02  0.1300439E+00
        -11   -1    0    0    0    0  0.00000000000E+00  0.00000000000E+00  0.45593999997E+02  0.45594000000E+02  0.51100000000E-03 0.  1.
         11   -1    0    0    0    0 -0.00000000000E+00 -0.00000000000E+00 -0.45593999997E+02  0.45594000000E+02  0.51100000000E-03 0. -1.
    9900012    2    1    2    0    0 -0.35667405590E+02  0.72982641238E+01 -0.18103509696E+02  0.50528861494E+02  0.30000004997E+02 0.  0.
        -12    1    1    2    0    0  0.35667405590E+02 -0.72982641238E+01  0.18103509696E+02  0.40659138506E+02  0.00000000000E+00 0.  1.
         11    1    3    3    0    0 -0.24914801070E+02  0.11267332202E+02 -0.14563352074E+02  0.30980498886E+02  0.51100000000E-03 0. -1.
        -11    1    3    3    0    0 -0.14350171147E+02 -0.37155875362E+01 -0.50061787370E+00  0.14831844835E+02  0.51100000000E-03 0.  1.
        -12    1    3    3    0    0  0.35975666274E+01 -0.25348054168E+00 -0.30395397479E+01  0.47165177730E+01  0.00000000000E+00 0.  1.
</event>
<event>
 7    1  0.6857839E-013  0.5052886E+02  0.7816164E-02  0.1300439E+00
        -11   -1    0    0    0    0  0.00000000000E+00  0.00000000000E+00  0.45593999997E+02  0.45594000000E+02  0.51100000000E-03 0.  1.
         11   -1    0    0    0    0 -0.00000000000E+00 -0.00000000000E+00 -0.45593999997E+02  0.45594000000E+02  0.51100000000E-03 0. -1.
    9900012    2    1    2    0    0 -0.40249175643E+02  0.56992304828E+01  0.82987922902E+00  0.50528855056E+02  0.29999985428E+02 0.  0.
        -12    1    1    2    0    0  0.40249175643E+02 -0.56992304828E+01 -0.82987922902E+00  0.40659144944E+02  0.00000000000E+00 0.  1.
         11    1    3    3    0    0 -0.92328030767E+01 -0.42317313874E+01  0.94817305038E+01  0.13894438340E+02  0.51100000000E-03 0. -1.
        -11    1    3    3    0    0  0.94136623343E+00  0.25011086552E+01  0.10976053974E+00  0.26746518517E+01  0.51100000000E-03 0.  1.
        -12    1    3    3    0    0 -0.31957738800E+02  0.74298532151E+01 -0.87616118145E+01  0.33959764864E+02  0.00000000000E+00 0.  1.
</event>
<event>
 7    1  0.6857839E-013  0.5052886E+02  0.7816164E-02  0.1300439E+00
        -11   -1    0    0    0    0  0.00000000000E+00  0.00000000000E+00  0.45593999997E+02  0.45594000000E+02  0.51100000000E-03 0. -1.
         11   -1    0    0    0    0 -0.00000000000E+00 -0.00000000000E+00 -0.45593999997E+02  0.45594000000E+02  0.51100000000E-03 0.  1.
    9900012    2    1    2    0    0 -0.32979506260E+02  0.23259015636E+02  0.49533644503E+01  0.50528862517E+02  0.30000008105E+02 0.  0.
        -12    1    1    2    0    0  0.32979506260E+02 -0.23259015636E+02 -0.49533644503E+01  0.40659137483E+02  0.00000000000E+00 0.  1.
         11    1    3    3    0    0 -0.28618272179E+02  0.11055784493E+02  0.54099713106E+01  0.31152907780E+02  0.51100000000E-03 0. -1.
        -11    1    3    3    0    0  0.22381832339E+01 -0.24158527845E+01 -0.53291853108E+00  0.33361371805E+01  0.51100000000E-03 0.  1.
         12    1    3    3    0    0 -0.65994173148E+01  0.14619083927E+02  0.76311670744E-01  0.16039817556E+02  0.00000000000E+00 0. -1.
</event>
<event>
 7    1  0.6857839E-013  0.5052886E+02  0.7816164E-02  0.1300439E+00
        -11   -1    0    0    0    0  0.00000000000E+00  0.00000000000E+00  0.45593999997E+02  0.45594000000E+02  0.51100000000E-03 0.  1.
         11   -1    0    0    0    0 -0.00000000000E+00 -0.00000000000E+00 -0.45593999997E+02  0.45594000000E+02  0.51100000000E-03 0. -1.
    9900012    2    1    2    0    0 -0.31112658225E+02 -0.18609667849E+01 -0.26109480974E+02  0.50528859626E+02  0.29999999319E+02 0.  0.
        -12    1    1    2    0    0  0.31112658225E+02  0.18609667849E+01  0.26109480974E+02  0.40659140374E+02  0.00000000000E+00 0.  1.
         11    1    3    3    0    0  0.16219602585E-01 -0.28429209307E+01  0.76908790097E+00  0.29451585619E+01  0.51100000000E-03 0. -1.
        -11    1    3    3    0    0  0.54765683551E-01  0.53395116832E+01 -0.11203698172E+02  0.12411133602E+02  0.51100000000E-03 0.  1.
         12    1    3    3    0    0 -0.31183643511E+02 -0.43575575373E+01 -0.15674870703E+02  0.35172567462E+02  0.00000000000E+00 0. -1.
</event>
<event>
 7    1  0.6857839E-013  0.5052886E+02  0.7816164E-02  0.1300439E+00
        -11   -1    0    0    0    0  0.00000000000E+00  0.00000000000E+00  0.45593999997E+02  0.45594000000E+02  0.51100000000E-03 0.  1.
         11   -1    0    0    0    0 -0.00000000000E+00 -0.00000000000E+00 -0.45593999997E+02  0.45594000000E+02  0.51100000000E-03 0. -1.
    9900012    2    1    2    0    0 -0.98389873717E+01  0.17520151925E+02 -0.35346910493E+02  0.50528862314E+02  0.30000007489E+02 0.  0.
        -12    1    1    2    0    0  0.98389873717E+01 -0.17520151925E+02  0.35346910493E+02  0.40659137686E+02  0.00000000000E+00 0.  1.
         11    1    3    3    0    0 -0.15945649384E+02  0.91836896495E+01 -0.17985719856E+02  0.25731109748E+02  0.51100000000E-03 0. -1.
        -11    1    3    3    0    0 -0.12167650231E+01  0.48705955045E+00  0.21559130614E+01  0.25230349812E+01  0.51100000000E-03 0.  1.
         12    1    3    3    0    0  0.73234270360E+01  0.78494027249E+01 -0.19517103698E+02  0.22274717584E+02  0.00000000000E+00 0. -1.
</event>
<event>
 7    1  0.6857839E-013  0.5052885E+02  0.7816164E-02  0.1300439E+00
        -11   -1    0    0    0    0  0.00000000000E+00  0.00000000000E+00  0.45593999997E+02  0.45594000000E+02  0.51100000000E-03 0.  1.
         11   -1    0    0    0    0 -0.00000000000E+00 -0.00000000000E+00 -0.45593999997E+02  0.45594000000E+02  0.51100000000E-03 0. -1.
    9900012    2    1    2    0    0  0.11430075694E+02 -0.36893291089E+02 -0.12704522189E+02  0.50528850454E+02  0.29999971439E+02 0.  0.
        -12    1    1    2    0    0 -0.11430075694E+02  0.36893291089E+02  0.12704522189E+02  0.40659149546E+02  0.00000000000E+00 0.  1.
         11    1    3    3    0    0 -0.40928522004E+00 -0.26992978825E+02 -0.98516787312E+01  0.28737501532E+02  0.51100000000E-03 0. -1.
        -11    1    3    3    0    0  0.94357199704E+01 -0.12877433816E+02  0.14538290082E+01  0.16030431438E+02  0.51100000000E-03 0.  1.
         12    1    3    3    0    0  0.24036409441E+01  0.29771215517E+01 -0.43066724658E+01  0.57609174833E+01  0.00000000000E+00 0. -1.
</event>
<event>
 7    1  0.6857839E-013  0.5052884E+02  0.7816164E-02  0.1300439E+00
        -11   -1    0    0    0    0  0.00000000000E+00  0.00000000000E+00  0.45593999997E+02  0.45594000000E+02  0.51100000000E-03 0.  1.
         11   -1    0    0    0    0 -0.00000000000E+00 -0.00000000000E+00 -0.45593999997E+02  0.45594000000E+02  0.51100000000E-03 0. -1.
    9900012    2    1    2    0    0 -0.77057628960E+01 -0.38594093377E+02  0.10211992328E+02  0.50528836055E+02  0.29999927674E+02 0.  0.
        -12    1    1    2    0    0  0.77057628960E+01  0.38594093377E+02 -0.10211992328E+02  0.40659163945E+02  0.00000000000E+00 0.  1.
         11    1    3    3    0    0  0.66250733569E+01 -0.15853290720E+02 -0.37565037313E+01  0.17587772576E+02  0.51100000000E-03 0. -1.
        -11    1    3    3    0    0 -0.21823214919E+01 -0.14033833496E+02  0.33089851121E+01  0.14582880114E+02  0.51100000000E-03 0.  1.
        -12    1    3    3    0    0 -0.12148514761E+02 -0.87069691610E+01  0.10659510947E+02  0.18358183366E+02  0.00000000000E+00 0.  1.
</event>
<event>
 7    1  0.6857839E-013  0.5052887E+02  0.7816164E-02  0.1300439E+00
        -11   -1    0    0    0    0  0.00000000000E+00  0.00000000000E+00  0.45593999997E+02  0.45594000000E+02  0.51100000000E-03 0.  1.
         11   -1    0    0    0    0 -0.00000000000E+00 -0.00000000000E+00 -0.45593999997E+02  0.45594000000E+02  0.51100000000E-03 0. -1.
    9900012    2    1    2    0    0  0.17644377968E+02  0.81822625801E+01 -0.35705625494E+02  0.50528865888E+02  0.30000018354E+02 0.  0.
        -12    1    1    2    0    0 -0.17644377968E+02 -0.81822625801E+01  0.35705625494E+02  0.40659134112E+02  0.00000000000E+00 0.  1.
         11    1    3    3    0    0  0.55764255299E+01 -0.28838378486E+01 -0.45310209955E+00  0.62943104627E+01  0.51100000000E-03 0. -1.
        -11    1    3    3    0    0  0.10963153098E+02 -0.11863640681E+01 -0.61213204920E+01  0.12612246048E+02  0.51100000000E-03 0.  1.
         12    1    3    3    0    0  0.11047993396E+01  0.12252464497E+02 -0.29131202902E+02  0.31622309377E+02  0.00000000000E+00 0. -1.
</event>
<event>
 7    1  0.6857839E-013  0.5052885E+02  0.7816164E-02  0.1300439E+00
        -11   -1    0    0    0    0  0.00000000000E+00  0.00000000000E+00  0.45593999997E+02  0.45594000000E+02  0.51100000000E-03 0.  1.
         11   -1    0    0    0    0 -0.00000000000E+00 -0.00000000000E+00 -0.45593999997E+02  0.45594000000E+02  0.51100000000E-03 0. -1.
    9900012    2    1    2    0    0 -0.14958094711E+02 -0.20727273101E+02 -0.31619644112E+02  0.50528851689E+02  0.29999975195E+02 0.  0.
        -12    1    1    2    0    0  0.14958094711E+02  0.20727273101E+02  0.31619644112E+02  0.40659148311E+02  0.00000000000E+00 0.  1.
         11    1    3    3    0    0  0.47124552715E+00 -0.91479958426E+01 -0.18298435457E+01  0.93411042145E+01  0.51100000000E-03 0. -1.
        -11    1    3    3    0    0 -0.10056707343E+02 -0.34999264964E+01 -0.87010629251E+00  0.10683816419E+02  0.51100000000E-03 0.  1.
        -12    1    3    3    0    0 -0.53726328956E+01 -0.80793507622E+01 -0.28919694273E+02  0.30503931055E+02  0.00000000000E+00 0.  1.
</event>
<event>
 7    1  0.6857839E-013  0.5052886E+02  0.7816164E-02  0.1300439E+00
        -11   -1    0    0    0    0  0.00000000000E+00  0.00000000000E+00  0.45593999997E+02  0.45594000000E+02  0.51100000000E-03 0. -1.
         11   -1    0    0    0    0 -0.00000000000E+00 -0.00000000000E+00 -0.45593999997E+02  0.45594000000E+02  0.51100000000E-03 0.  1.
    9900012    2    1    2    0    0 -0.76138793944E+01  0.39907744217E+02  0.16019768242E+01  0.50528861573E+02  0.30000005236E+02 0.  0.
        -12    1    1    2    0    0  0.76138793944E+01 -0.39907744217E+02 -0.16019768242E+01  0.40659138427E+02  0.00000000000E+00 0.  1.
         11    1    3    3    0    0 -0.28288401373E+01 -0.62645098961E+00 -0.11146763346E+01  0.31043970360E+01  0.51100000000E-03 0. -1.
        -11    1    3    3    0    0 -0.84993823861E+01  0.27119568412E+01 -0.19579043877E+01  0.91338710691E+01  0.51100000000E-03 0.  1.
         12    1    3    3    0    0  0.37143431290E+01  0.37822238365E+02  0.46745575465E+01  0.38290593468E+02  0.00000000000E+00 0. -1.
</event>
<event>
 7    1  0.6857839E-013  0.5052886E+02  0.7816164E-02  0.1300439E+00
        -11   -1    0    0    0    0  0.00000000000E+00  0.00000000000E+00  0.45593999997E+02  0.45594000000E+02  0.51100000000E-03 0. -1.
         11   -1    0    0    0    0 -0.00000000000E+00 -0.00000000000E+00 -0.45593999997E+02  0.45594000000E+02  0.51100000000E-03 0.  1.
    9900012    2    1    2    0    0  0.14404071002E+02 -0.37851293871E+02  0.36011116063E+01  0.50528859405E+02  0.29999998646E+02 0.  0.
        -12    1    1    2    0    0 -0.14404071002E+02  0.37851293871E+02 -0.36011116063E+01  0.40659140595E+02  0.00000000000E+00 0.  1.
         11    1    3    3    0    0  0.98112279055E+01 -0.30936104554E+02  0.13074069341E+02  0.34989056109E+02  0.51100000000E-03 0. -1.
        -11    1    3    3    0    0  0.66640632011E+01 -0.53987504665E+01 -0.39356076535E+01  0.94363792215E+01  0.51100000000E-03 0.  1.
        -12    1    3    3    0    0 -0.20712201042E+01 -0.15164388502E+01 -0.55373500812E+01  0.61034240741E+01  0.00000000000E+00 0.  1.
</event>
<event>
 7    1  0.6857839E-013  0.5052897E+02  0.7816164E-02  0.1300438E+00
        -11   -1    0    0    0    0  0.00000000000E+00  0.00000000000E+00  0.45593999997E+02  0.45594000000E+02  0.51100000000E-03 0.  1.
         11   -1    0    0    0    0 -0.00000000000E+00 -0.00000000000E+00 -0.45593999997E+02  0.45594000000E+02  0.51100000000E-03 0. -1.
    9900012    2    1    2    0    0 -0.62656805670E+01 -0.55640857942E+01 -0.39786166205E+02  0.50528968716E+02  0.30000330908E+02 0.  0.
        -12    1    1    2    0    0  0.62656805670E+01  0.55640857942E+01  0.39786166205E+02  0.40659031284E+02  0.00000000000E+00 0.  1.
         11    1    3    3    0    0  0.29795800011E+01 -0.19186343679E+01 -0.19748711016E+02  0.20064163125E+02  0.51100000000E-03 0. -1.
        -11    1    3    3    0    0  0.63974262500E+01 -0.15371500264E+01 -0.29739307221E+01  0.72203986752E+01  0.51100000000E-03 0.  1.
         12    1    3    3    0    0 -0.15642686818E+02 -0.21083013999E+01 -0.17063524466E+02  0.23244406916E+02  0.00000000000E+00 0. -1.
</event>
<event>
 7    1  0.6857839E-013  0.5052886E+02  0.7816164E-02  0.1300439E+00
        -11   -1    0    0    0    0  0.00000000000E+00  0.00000000000E+00  0.45593999997E+02  0.45594000000E+02  0.51100000000E-03 0.  1.
         11   -1    0    0    0    0 -0.00000000000E+00 -0.00000000000E+00 -0.45593999997E+02  0.45594000000E+02  0.51100000000E-03 0. -1.
    9900012    2    1    2    0    0  0.40357213756E+02 -0.13145630045E+01 -0.47679279766E+01  0.50528856930E+02  0.29999991124E+02 0.  0.
        -12    1    1    2    0    0 -0.40357213756E+02  0.13145630045E+01  0.47679279766E+01  0.40659143070E+02  0.00000000000E+00 0.  1.
         11    1    3    3    0    0  0.21843214611E+02 -0.88705776984E+01 -0.97583074702E+01  0.25515441172E+02  0.51100000000E-03 0.  1.
        -11    1    3    3    0    0  0.77945489452E+01  0.80398878228E+01 -0.30488150418E+01  0.11605604805E+02  0.51100000000E-03 0. -1.
         12    1    3    3    0    0  0.10719450199E+02 -0.48387312881E+00  0.80391945354E+01  0.13407810953E+02  0.00000000000E+00 0. -1.
</event>
<event>
 7    1  0.6857839E-013  0.5052886E+02  0.7816164E-02  0.1300439E+00
        -11   -1    0    0    0    0  0.00000000000E+00  0.00000000000E+00  0.45593999997E+02  0.45594000000E+02  0.51100000000E-03 0. -1.
         11   -1    0    0    0    0 -0.00000000000E+00 -0.00000000000E+00 -0.45593999997E+02  0.45594000000E+02  0.51100000000E-03 0.  1.
    9900012    2    1    2    0    0  0.27420525688E+02  0.29768880790E+02  0.38850824196E+01  0.50528863783E+02  0.30000011955E+02 0.  0.
        -12    1    1    2    0    0 -0.27420525688E+02 -0.29768880790E+02 -0.38850824196E+01  0.40659136217E+02  0.00000000000E+00 0.  1.
         11    1    3    3    0    0  0.15024233153E+02  0.11442649134E+02  0.17153446292E+01  0.18963233071E+02  0.51100000000E-03 0. -1.
        -11    1    3    3    0    0  0.41550835834E+01  0.21942873196E+02  0.11004104066E+00  0.22333081135E+02  0.51100000000E-03 0.  1.
         12    1    3    3    0    0  0.82412089509E+01 -0.36166415396E+01  0.20596967497E+01  0.92325495774E+01  0.00000000000E+00 0. -1.
</event>
<event>
 7    1  0.6857839E-013  0.5052886E+02  0.7816164E-02  0.1300439E+00
        -11   -1    0    0    0    0  0.00000000000E+00  0.00000000000E+00  0.45593999997E+02  0.45594000000E+02  0.51100000000E-03 0.  1.
         11   -1    0    0    0    0 -0.00000000000E+00 -0.00000000000E+00 -0.45593999997E+02  0.45594000000E+02  0.51100000000E-03 0. -1.
    9900012    2    1    2    0    0  0.33458299862E+02  0.23101759261E+02  0.12742920613E+00  0.50528863894E+02  0.30000012293E+02 0.  0.
        -12    1    1    2    0    0 -0.33458299862E+02 -0.23101759261E+02 -0.12742920613E+00  0.40659136106E+02  0.00000000000E+00 0.  1.
         11    1    3    3    0    0  0.12429285482E+00  0.34513382841E+01 -0.14423966202E+01  0.37426852575E+01  0.51100000000E-03 0. -1.
        -11    1    3    3    0    0  0.18648395294E+01  0.14471824901E+02 -0.18613263130E+01  0.14709720539E+02  0.51100000000E-03 0.  1.
         12    1    3    3    0    0  0.31469167478E+02  0.51785960762E+01  0.34311521394E+01  0.32076458098E+02  0.00000000000E+00 0. -1.
</event>
<event>
 7    1  0.6857839E-013  0.5052887E+02  0.7816164E-02  0.1300439E+00
        -11   -1    0    0    0    0  0.00000000000E+00  0.00000000000E+00  0.45593999997E+02  0.45594000000E+02  0.51100000000E-03 0.  1.
         11   -1    0    0    0    0 -0.00000000000E+00 -0.00000000000E+00 -0.45593999997E+02  0.45594000000E+02  0.51100000000E-03 0. -1.
    9900012    2    1    2    0    0 -0.31678434822E+01 -0.74388117968E+01 -0.39847127153E+02  0.50528871928E+02  0.30000036712E+02 0.  0.
        -12    1    1    2    0    0  0.31678434822E+01  0.74388117968E+01  0.39847127153E+02  0.40659128072E+02  0.00000000000E+00 0.  1.
         11    1    3    3    0    0 -0.84741258714E+01  0.32738240477E+01 -0.12292963881E+02  0.15285473314E+02  0.51100000000E-03 0. -1.
        -11    1    3    3    0    0 -0.48734775751E+01 -0.92253675578E+01 -0.79982372240E+01  0.13146482009E+02  0.51100000000E-03 0.  1.
        -12    1    3    3    0    0  0.10179759964E+02 -0.14872682867E+01 -0.19555926048E+02  0.22096916606E+02  0.00000000000E+00 0.  1.
</event>
<event>
 7    1  0.6857839E-013  0.5052887E+02  0.7816164E-02  0.1300439E+00
        -11   -1    0    0    0    0  0.00000000000E+00  0.00000000000E+00  0.45593999997E+02  0.45594000000E+02  0.51100000000E-03 0.  1.
         11   -1    0    0    0    0 -0.00000000000E+00 -0.00000000000E+00 -0.45593999997E+02  0.45594000000E+02  0.51100000000E-03 0. -1.
    9900012    2    1    2    0    0 -0.25050892209E+02 -0.28769616801E+02 -0.14068651932E+02  0.50528867957E+02  0.30000024641E+02 0.  0.
        -12    1    1    2    0    0  0.25050892209E+02  0.28769616801E+02  0.14068651932E+02  0.40659132043E+02  0.00000000000E+00 0.  1.
         11    1    3    3    0    0  0.38031960376E+01 -0.46921127824E+01 -0.22029265241E+01  0.64290829824E+01  0.51100000000E-03 0.  1.
        -11    1    3    3    0    0  0.22711742467E+01 -0.36741535384E+01 -0.43530802946E+01  0.61324501625E+01  0.51100000000E-03 0. -1.
        -12    1    3    3    0    0 -0.31125262494E+02 -0.20403350480E+02 -0.75126451131E+01  0.37967334812E+02  0.00000000000E+00 0.  1.
</event>
<event>
 7    1  0.6857839E-013  0.5052886E+02  0.7816164E-02  0.1300439E+00
        -11   -1    0    0    0    0  0.00000000000E+00  0.00000000000E+00  0.45593999997E+02  0.45594000000E+02  0.51100000000E-03 0.  1.
         11   -1    0    0    0    0 -0.00000000000E+00 -0.00000000000E+00 -0.45593999997E+02  0.45594000000E+02  0.51100000000E-03 0. -1.
    9900012    2    1    2    0    0  0.59513838388E+01  0.40212008316E+02 -0.86101842714E+00  0.50528856685E+02  0.29999990379E+02 0.  0.
        -12    1    1    2    0    0 -0.59513838388E+01 -0.40212008316E+02  0.86101842714E+00  0.40659143315E+02  0.00000000000E+00 0.  1.
         11    1    3    3    0    0 -0.32427806346E+01 -0.77943982110E+00  0.77148068754E+00  0.34232054264E+01  0.51100000000E-03 0. -1.
        -11    1    3    3    0    0  0.13475738599E+02  0.21036799339E+02  0.53239657838E+01  0.25543826439E+02  0.51100000000E-03 0.  1.
         12    1    3    3    0    0 -0.42815741255E+01  0.19954648798E+02 -0.69564648985E+01  0.21561824819E+02  0.00000000000E+00 0. -1.
</event>
<event>
 7    1  0.6857839E-013  0.5052886E+02  0.7816164E-02  0.1300439E+00
        -11   -1    0    0    0    0  0.00000000000E+00  0.00000000000E+00  0.45593999997E+02  0.45594000000E+02  0.51100000000E-03 0. -1.
         11   -1    0    0    0    0 -0.00000000000E+00 -0.00000000000E+00 -0.45593999997E+02  0.45594000000E+02  0.51100000000E-03 0.  1.
    9900012    2    1    2    0    0 -0.18464245608E+01  0.32264393476E+02  0.24673162549E+02  0.50528864247E+02  0.30000013366E+02 0.  0.
        -12    1    1    2    0    0  0.18464245608E+01 -0.32264393476E+02 -0.24673162549E+02  0.40659135753E+02  0.00000000000E+00 0.  1.
         11    1    3    3    0    0 -0.95588083591E+01  0.23513197565E+01  0.11554540424E+01  0.99113367489E+01  0.51100000000E-03 0. -1.
        -11    1    3    3    0    0  0.21752696034E+01  0.35956061856E+01 -0.89432801759E+00  0.42965107416E+01  0.51100000000E-03 0.  1.
         12    1    3    3    0    0  0.55371141950E+01  0.26317467533E+02  0.24412036524E+02  0.36321016757E+02  0.00000000000E+00 0. -1.
</event>
<event>
 7    1  0.6857839E-013  0.5052886E+02  0.7816164E-02  0.1300439E+00
        -11   -1    0    0    0    0  0.00000000000E+00  0.00000000000E+00  0.45593999997E+02  0.45594000000E+02  0.51100000000E-03 0.  1.
         11   -1    0    0    0    0 -0.00000000000E+00 -0.00000000000E+00 -0.45593999997E+02  0.45594000000E+02  0.51100000000E-03 0. -1.
    9900012    2    1    2    0    0  0.19909956131E+02  0.69111291226E+01 -0.34770614837E+02  0.50528859391E+02  0.29999998606E+02 0.  0.
        -12    1    1    2    0    0 -0.19909956131E+02 -0.69111291226E+01  0.34770614837E+02  0.40659140609E+02  0.00000000000E+00 0.  1.
         11    1    3    3    0    0 -0.28379562442E+01 -0.69507226016E+00 -0.63544253680E+00  0.29901352093E+01  0.51100000000E-03 0. -1.
        -11    1    3    3    0    0  0.12916310975E+02  0.15168269711E+02 -0.25791761811E+02  0.32590220509E+02  0.51100000000E-03 0.  1.
         12    1    3    3    0    0  0.98316014001E+01 -0.75620683279E+01 -0.83434104888E+01  0.14948503673E+02  0.00000000000E+00 0. -1.
</event>
<event>
 7    1  0.6857839E-013  0.5052886E+02  0.7816164E-02  0.1300439E+00
        -11   -1    0    0    0    0  0.00000000000E+00  0.00000000000E+00  0.45593999997E+02  0.45594000000E+02  0.51100000000E-03 0.  1.
         11   -1    0    0    0    0 -0.00000000000E+00 -0.00000000000E+00 -0.45593999997E+02  0.45594000000E+02  0.51100000000E-03 0. -1.
    9900012    2    1    2    0    0 -0.36407047334E+02  0.42900334388E+01 -0.17586590885E+02  0.50528860050E+02  0.30000000609E+02 0.  0.
        -12    1    1    2    0    0  0.36407047334E+02 -0.42900334388E+01  0.17586590885E+02  0.40659139950E+02  0.00000000000E+00 0.  1.
         11    1    3    3    0    0 -0.30142278745E+01  0.52829404712E+01 -0.39857148623E+01  0.72719291062E+01  0.51100000000E-03 0. -1.
        -11    1    3    3    0    0 -0.25988305555E+02 -0.29514324634E+01  0.16327149168E+01  0.26206272864E+02  0.51100000000E-03 0.  1.
         12    1    3    3    0    0 -0.74045139047E+01  0.19585254310E+01 -0.15233590940E+02  0.17050658080E+02  0.00000000000E+00 0. -1.
</event>
<event>
 7    1  0.6857839E-013  0.5052886E+02  0.7816164E-02  0.1300439E+00
        -11   -1    0    0    0    0  0.00000000000E+00  0.00000000000E+00  0.45593999997E+02  0.45594000000E+02  0.51100000000E-03 0.  1.
         11   -1    0    0    0    0 -0.00000000000E+00 -0.00000000000E+00 -0.45593999997E+02  0.45594000000E+02  0.51100000000E-03 0. -1.
    9900012    2    1    2    0    0  0.12053549194E+02  0.19236765229E+02 -0.33731654566E+02  0.50528859522E+02  0.29999999003E+02 0.  0.
        -12    1    1    2    0    0 -0.12053549194E+02 -0.19236765229E+02  0.33731654566E+02  0.40659140478E+02  0.00000000000E+00 0.  1.
         11    1    3    3    0    0 -0.55590545603E-01  0.11030771352E+02 -0.10742854043E+01  0.11083099581E+02  0.51100000000E-03 0. -1.
        -11    1    3    3    0    0  0.49994947526E+01  0.12721434636E+02 -0.19150390140E+02  0.23528010748E+02  0.51100000000E-03 0.  1.
        -12    1    3    3    0    0  0.71096449868E+01 -0.45154407588E+01 -0.13506979021E+02  0.15917749193E+02  0.00000000000E+00 0.  1.
</event>
<event>
 7    1  0.6857839E-013  0.5052886E+02  0.7816164E-02  0.1300439E+00
        -11   -1    0    0    0    0  0.00000000000E+00  0.00000000000E+00  0.45593999997E+02  0.45594000000E+02  0.51100000000E-03 0.  1.
         11   -1    0    0    0    0 -0.00000000000E+00 -0.00000000000E+00 -0.45593999997E+02  0.45594000000E+02  0.51100000000E-03 0. -1.
    9900012    2    1    2    0    0  0.20889261926E+02  0.17474093926E+02 -0.30190404010E+02  0.50528859372E+02  0.29999998546E+02 0.  0.
        -12    1    1    2    0    0 -0.20889261926E+02 -0.17474093926E+02  0.30190404010E+02  0.40659140628E+02  0.00000000000E+00 0.  1.
         11    1    3    3    0    0 -0.22394667771E+00  0.54328169097E+01 -0.43044046573E+01  0.69349514348E+01  0.51100000000E-03 0. -1.
        -11    1    3    3    0    0  0.87060617962E+01  0.78220707341E+01  0.28193275138E+01  0.12038642384E+02  0.51100000000E-03 0.  1.
        -12    1    3    3    0    0  0.12407146808E+02  0.42192062820E+01 -0.28705326866E+02  0.31555265552E+02  0.00000000000E+00 0.  1.
</event>
<event>
 7    1  0.6857839E-013  0.5052885E+02  0.7816164E-02  0.1300439E+00
        -11   -1    0    0    0    0  0.00000000000E+00  0.00000000000E+00  0.45593999997E+02  0.45594000000E+02  0.51100000000E-03 0.  1.
         11   -1    0    0    0    0 -0.00000000000E+00 -0.00000000000E+00 -0.45593999997E+02  0.45594000000E+02  0.51100000000E-03 0. -1.
    9900012    2    1    2    0    0  0.15402263750E+02  0.89012526027E+00 -0.37618401758E+02  0.50528853398E+02  0.29999980388E+02 0.  0.
        -12    1    1    2    0    0 -0.15402263750E+02 -0.89012526027E+00  0.37618401758E+02  0.40659146602E+02  0.00000000000E+00 0.  1.
         11    1    3    3    0    0  0.58519670015E+00  0.26544716844E+01 -0.44284387652E+00  0.27540490303E+01  0.51100000000E-03 0. -1.
        -11    1    3    3    0    0 -0.67976432591E+01  0.71739880383E+00 -0.34920088799E+01  0.76757241483E+01  0.51100000000E-03 0.  1.
         12    1    3    3    0    0  0.21614710309E+02 -0.24817452280E+01 -0.33683549001E+02  0.40099080219E+02  0.00000000000E+00 0. -1.
</event>
<event>
 7    1  0.6857839E-013  0.5052885E+02  0.7816164E-02  0.1300439E+00
        -11   -1    0    0    0    0  0.00000000000E+00  0.00000000000E+00  0.45593999997E+02  0.45594000000E+02  0.51100000000E-03 0.  1.
         11   -1    0    0    0    0 -0.00000000000E+00 -0.00000000000E+00 -0.45593999997E+02  0.45594000000E+02  0.51100000000E-03 0. -1.
    9900012    2    1    2    0    0 -0.29179185657E+02 -0.28121974698E+02 -0.33009071215E+01  0.50528851898E+02  0.29999975829E+02 0.  0.
        -12    1    1    2    0    0  0.29179185657E+02  0.28121974698E+02  0.33009071215E+01  0.40659148102E+02  0.00000000000E+00 0.  1.
         11    1    3    3    0    0 -0.16952561468E+02 -0.18406375339E+02  0.50232439833E+01  0.25522871583E+02  0.51100000000E-03 0. -1.
        -11    1    3    3    0    0 -0.35994385153E+01 -0.11719262924E+01  0.54555267533E+01  0.66401913585E+01  0.51100000000E-03 0.  1.
        -12    1    3    3    0    0 -0.86271856737E+01 -0.85436730673E+01 -0.13779677858E+02  0.18365788957E+02  0.00000000000E+00 0.  1.
</event>
<event>
 7    1  0.6857839E-013  0.5052886E+02  0.7816164E-02  0.1300439E+00
        -11   -1    0    0    0    0  0.00000000000E+00  0.00000000000E+00  0.45593999997E+02  0.45594000000E+02  0.51100000000E-03 0.  1.
         11   -1    0    0    0    0 -0.00000000000E+00 -0.00000000000E+00 -0.45593999997E+02  0.45594000000E+02  0.51100000000E-03 0. -1.
    9900012    2    1    2    0    0 -0.22731357914E+02 -0.16814550765E+02 -0.29218519052E+02  0.50528860737E+02  0.30000002695E+02 0.  0.
        -12    1    1    2    0    0  0.22731357914E+02  0.16814550765E+02  0.29218519052E+02  0.40659139263E+02  0.00000000000E+00 0.  1.
         11    1    3    3    0    0 -0.71416710670E+01 -0.14517652571E+02 -0.15330842203E+02  0.22289020273E+02  0.51100000000E-03 0. -1.
        -11    1    3    3    0    0 -0.37754250957E+01  0.72683162870E+01 -0.92328629796E+01  0.12342123616E+02  0.51100000000E-03 0.  1.
         12    1    3    3    0    0 -0.11814261751E+02 -0.95652144813E+01 -0.46548138686E+01  0.15897716847E+02  0.00000000000E+00 0. -1.
</event>
<event>
 7    1  0.6857839E-013  0.5052886E+02  0.7816164E-02  0.1300439E+00
        -11   -1    0    0    0    0  0.00000000000E+00  0.00000000000E+00  0.45593999997E+02  0.45594000000E+02  0.51100000000E-03 0.  1.
         11   -1    0    0    0    0 -0.00000000000E+00 -0.00000000000E+00 -0.45593999997E+02  0.45594000000E+02  0.51100000000E-03 0. -1.
    9900012    2    1    2    0    0  0.20255045276E+02  0.13721821363E+01 -0.35228052991E+02  0.50528862521E+02  0.30000008120E+02 0.  0.
        -12    1    1    2    0    0 -0.20255045276E+02 -0.13721821363E+01  0.35228052991E+02  0.40659137479E+02  0.00000000000E+00 0.  1.
         11    1    3    3    0    0  0.39212674078E+01 -0.58648535219E+01 -0.13858016605E+01  0.71898046858E+01  0.51100000000E-03 0. -1.
        -11    1    3    3    0    0 -0.26375612113E+01 -0.20739764211E+01 -0.13840308612E+02  0.14241216594E+02  0.51100000000E-03 0.  1.
        -12    1    3    3    0    0  0.18971339079E+02  0.93110120793E+01 -0.20001942719E+02  0.29097841242E+02  0.00000000000E+00 0.  1.
</event>
<event>
 7    1  0.6857839E-013  0.5052886E+02  0.7816164E-02  0.1300439E+00
        -11   -1    0    0    0    0  0.00000000000E+00  0.00000000000E+00  0.45593999997E+02  0.45594000000E+02  0.51100000000E-03 0.  1.
         11   -1    0    0    0    0 -0.00000000000E+00 -0.00000000000E+00 -0.45593999997E+02  0.45594000000E+02  0.51100000000E-03 0. -1.
    9900012    2    1    2    0    0 -0.31379284267E+02 -0.11328305667E+01 -0.25830658480E+02  0.50528859531E+02  0.29999999029E+02 0.  0.
        -12    1    1    2    0    0  0.31379284267E+02  0.11328305667E+01  0.25830658480E+02  0.40659140469E+02  0.00000000000E+00 0.  1.
         11    1    3    3    0    0 -0.43379832746E+01  0.32860632695E+01  0.18185835770E+01  0.57379052964E+01  0.51100000000E-03 0. -1.
        -11    1    3    3    0    0 -0.62831500441E+01 -0.88590243568E+01 -0.12755970988E+01  0.10935604019E+02  0.51100000000E-03 0.  1.
         12    1    3    3    0    0 -0.20758150948E+02  0.44401305206E+01 -0.26373644959E+02  0.33855350216E+02  0.00000000000E+00 0. -1.
</event>
<event>
 7    1  0.6857839E-013  0.5052886E+02  0.7816164E-02  0.1300439E+00
        -11   -1    0    0    0    0  0.00000000000E+00  0.00000000000E+00  0.45593999997E+02  0.45594000000E+02  0.51100000000E-03 0.  1.
         11   -1    0    0    0    0 -0.00000000000E+00 -0.00000000000E+00 -0.45593999997E+02  0.45594000000E+02  0.51100000000E-03 0. -1.
    9900012    2    1    2    0    0 -0.21641623947E+02  0.17968037138E+02 -0.29359078713E+02  0.50528858980E+02  0.29999997354E+02 0.  0.
        -12    1    1    2    0    0  0.21641623947E+02 -0.17968037138E+02  0.29359078713E+02  0.40659141020E+02  0.00000000000E+00 0.  1.
         11    1    3    3    0    0 -0.17550870468E+02  0.95090722429E+01 -0.13603021391E+02  0.24155697058E+02  0.51100000000E-03 0. -1.
        -11    1    3    3    0    0 -0.75191249862E+01 -0.27948287445E+01 -0.19898101616E+01  0.82648444032E+01  0.51100000000E-03 0.  1.
         12    1    3    3    0    0  0.34283715076E+01  0.11253793640E+02 -0.13766247161E+02  0.18108317519E+02  0.00000000000E+00 0. -1.
</event>
<event>
 7    1  0.6857839E-013  0.5052886E+02  0.7816164E-02  0.1300439E+00
        -11   -1    0    0    0    0  0.00000000000E+00  0.00000000000E+00  0.45593999997E+02  0.45594000000E+02  0.51100000000E-03 0.  1.
         11   -1    0    0    0    0 -0.00000000000E+00 -0.00000000000E+00 -0.45593999997E+02  0.45594000000E+02  0.51100000000E-03 0. -1.
    9900012    2    1    2    0    0 -0.19660685064E+02 -0.27235531183E+02 -0.22909584397E+02  0.50528858922E+02  0.29999997178E+02 0.  0.
        -12    1    1    2    0    0  0.19660685064E+02  0.27235531183E+02  0.22909584397E+02  0.40659141078E+02  0.00000000000E+00 0.  1.
         11    1    3    3    0    0 -0.40964244178E+01 -0.93557313701E+01 -0.12835589877E+02  0.16403132939E+02  0.51100000000E-03 0.  1.
        -11    1    3    3    0    0 -0.20697592530E+02 -0.12369006038E+02 -0.11064987581E+02  0.26529541973E+02  0.51100000000E-03 0. -1.
        -12    1    3    3    0    0  0.51333318831E+01 -0.55107937747E+01  0.99099306112E+00  0.75961840089E+01  0.00000000000E+00 0.  1.
</event>
<event>
 7    1  0.9048435E-013  0.5052886E+02  0.7816164E-02  0.1300439E+00
        -11   -1    0    0    0    0  0.00000000000E+00  0.00000000000E+00  0.45593999997E+02  0.45594000000E+02  0.51100000000E-03 0. -1.
         11   -1    0    0    0    0 -0.00000000000E+00 -0.00000000000E+00 -0.45593999997E+02  0.45594000000E+02  0.51100000000E-03 0.  1.
    9900012    2    1    2    0    0  0.75618920719E-01 -0.46830485585E+01  0.40388477008E+02  0.50528859120E+02  0.29999997782E+02 0.  0.
        -12    1    1    2    0    0 -0.75618920719E-01  0.46830485585E+01 -0.40388477008E+02  0.40659140880E+02  0.00000000000E+00 0.  1.
         11    1    3    3    0    0 -0.19249402710E+00 -0.70135029422E+01  0.25429149231E+02  0.26379308337E+02  0.51100000000E-03 0. -1.
        -11    1    3    3    0    0  0.84550880858E+01 -0.27385830154E+01  0.97828870685E+01  0.13217156696E+02  0.51100000000E-03 0.  1.
        -12    1    3    3    0    0 -0.81869751380E+01  0.50690373991E+01  0.51764407084E+01  0.10932394087E+02  0.00000000000E+00 0.  1.
</event>
<event>
 7    1  0.7648483E-013  0.5052883E+02  0.7816164E-02  0.1300439E+00
        -11   -1    0    0    0    0  0.00000000000E+00  0.00000000000E+00  0.45593999997E+02  0.45594000000E+02  0.51100000000E-03 0. -1.
         11   -1    0    0    0    0 -0.00000000000E+00 -0.00000000000E+00 -0.45593999997E+02  0.45594000000E+02  0.51100000000E-03 0.  1.
    9900012    2    1    2    0    0  0.12584618182E+02 -0.31170324213E+02  0.22873710926E+02  0.50528826646E+02  0.29999899073E+02 0.  0.
        -12    1    1    2    0    0 -0.12584618182E+02  0.31170324213E+02 -0.22873710926E+02  0.40659173354E+02  0.00000000000E+00 0.  1.
         11    1    3    3    0    0  0.95796027807E+01 -0.92862527359E+01  0.23486353544E+01  0.13546932036E+02  0.51100000000E-03 0. -1.
        -11    1    3    3    0    0  0.94069493072E+01 -0.11407443775E+02  0.19761040853E+02  0.24680340448E+02  0.51100000000E-03 0.  1.
        -12    1    3    3    0    0 -0.64019339063E+01 -0.10476627702E+02  0.76403471832E+00  0.12301554162E+02  0.00000000000E+00 0.  1.
</event>
<event>
 7    1  0.6857839E-013  0.5052886E+02  0.7816164E-02  0.1300439E+00
        -11   -1    0    0    0    0  0.00000000000E+00  0.00000000000E+00  0.45593999997E+02  0.45594000000E+02  0.51100000000E-03 0. -1.
         11   -1    0    0    0    0 -0.00000000000E+00 -0.00000000000E+00 -0.45593999997E+02  0.45594000000E+02  0.51100000000E-03 0.  1.
    9900012    2    1    2    0    0  0.12857560234E+02 -0.38510914951E+02 -0.21814087498E+01  0.50528856260E+02  0.29999989088E+02 0.  0.
        -12    1    1    2    0    0 -0.12857560234E+02  0.38510914951E+02  0.21814087498E+01  0.40659143740E+02  0.00000000000E+00 0.  1.
         11    1    3    3    0    0  0.78294826237E+01 -0.29573233395E+02 -0.25480043704E+01  0.30698033457E+02  0.51100000000E-03 0. -1.
        -11    1    3    3    0    0 -0.24380968863E+01 -0.94770021807E+01 -0.46352229977E+01  0.10827888957E+02  0.51100000000E-03 0.  1.
         12    1    3    3    0    0  0.74661744963E+01  0.53932062480E+00  0.50018186182E+01  0.90029338460E+01  0.00000000000E+00 0. -1.
</event>
<event>
 7    1  0.6857839E-013  0.5052886E+02  0.7816164E-02  0.1300439E+00
        -11   -1    0    0    0    0  0.00000000000E+00  0.00000000000E+00  0.45593999997E+02  0.45594000000E+02  0.51100000000E-03 0.  1.
         11   -1    0    0    0    0 -0.00000000000E+00 -0.00000000000E+00 -0.45593999997E+02  0.45594000000E+02  0.51100000000E-03 0. -1.
    9900012    2    1    2    0    0  0.33997770544E+02  0.16471500389E+02 -0.15033531791E+02  0.50528858283E+02  0.29999995237E+02 0.  0.
        -12    1    1    2    0    0 -0.33997770544E+02 -0.16471500389E+02  0.15033531791E+02  0.40659141717E+02  0.00000000000E+00 0.  1.
         11    1    3    3    0    0  0.13109978784E+02 -0.25952648915E+01 -0.12025699711E+02  0.17978442574E+02  0.51100000000E-03 0.  1.
        -11    1    3    3    0    0  0.82677735690E+01  0.20980954816E+01 -0.69943502348E+01  0.11030821361E+02  0.51100000000E-03 0. -1.
         12    1    3    3    0    0  0.12620018191E+02  0.16968669799E+02  0.39865181549E+01  0.21519594348E+02  0.00000000000E+00 0. -1.
</event>
<event>
 7    1  0.6857839E-013  0.5052887E+02  0.7816164E-02  0.1300439E+00
        -11   -1    0    0    0    0  0.00000000000E+00  0.00000000000E+00  0.45593999997E+02  0.45594000000E+02  0.51100000000E-03 0.  1.
         11   -1    0    0    0    0 -0.00000000000E+00 -0.00000000000E+00 -0.45593999997E+02  0.45594000000E+02  0.51100000000E-03 0. -1.
    9900012    2    1    2    0    0  0.38730119795E+02  0.12270365242E+02 -0.16065954151E+01  0.50528865832E+02  0.30000018183E+02 0.  0.
        -12    1    1    2    0    0 -0.38730119795E+02 -0.12270365242E+02  0.16065954151E+01  0.40659134168E+02  0.00000000000E+00 0.  1.
         11    1    3    3    0    0  0.61988373958E+01 -0.49664419276E+01  0.23037946061E+00  0.79463328295E+01  0.51100000000E-03 0. -1.
        -11    1    3    3    0    0 -0.16295758602E+01  0.26186855401E+01  0.39137352180E+01  0.49830066285E+01  0.51100000000E-03 0.  1.
         12    1    3    3    0    0  0.34160858259E+02  0.14618121629E+02 -0.57507100938E+01  0.37599526374E+02  0.00000000000E+00 0. -1.
</event>
<event>
 7    1  0.6857839E-013  0.5052886E+02  0.7816164E-02  0.1300439E+00
        -11   -1    0    0    0    0  0.00000000000E+00  0.00000000000E+00  0.45593999997E+02  0.45594000000E+02  0.51100000000E-03 0.  1.
         11   -1    0    0    0    0 -0.00000000000E+00 -0.00000000000E+00 -0.45593999997E+02  0.45594000000E+02  0.51100000000E-03 0. -1.
    9900012    2    1    2    0    0 -0.46542228583E+01 -0.31511309397E+02 -0.25269374082E+02  0.50528859861E+02  0.30000000034E+02 0.  0.
        -12    1    1    2    0    0  0.46542228583E+01  0.31511309397E+02  0.25269374082E+02  0.40659140139E+02  0.00000000000E+00 0.  1.
         11    1    3    3    0    0 -0.85531864967E+01 -0.13768794904E+02 -0.16722158065E+02  0.23288780195E+02  0.51100000000E-03 0. -1.
        -11    1    3    3    0    0  0.43013842405E+01  0.18438012542E+01 -0.58083245562E+01  0.74590980594E+01  0.51100000000E-03 0.  1.
         12    1    3    3    0    0 -0.40242060202E+00 -0.19586315747E+02 -0.27388914607E+01  0.19780981606E+02  0.00000000000E+00 0. -1.
</event>
<event>
 7    1  0.6857839E-013  0.5052887E+02  0.7816164E-02  0.1300439E+00
        -11   -1    0    0    0    0  0.00000000000E+00  0.00000000000E+00  0.45593999997E+02  0.45594000000E+02  0.51100000000E-03 0.  1.
         11   -1    0    0    0    0 -0.00000000000E+00 -0.00000000000E+00 -0.45593999997E+02  0.45594000000E+02  0.51100000000E-03 0. -1.
    9900012    2    1    2    0    0 -0.39750519341E+02  0.83736978378E+00 -0.85064554462E+01  0.50528871132E+02  0.30000034292E+02 0.  0.
        -12    1    1    2    0    0  0.39750519341E+02 -0.83736978378E+00  0.85064554462E+01  0.40659128868E+02  0.00000000000E+00 0.  1.
         11    1    3    3    0    0 -0.64884071635E+01  0.44490381160E+01  0.54329251667E+01  0.95608599930E+01  0.51100000000E-03 0. -1.
        -11    1    3    3    0    0 -0.70497995695E+01  0.69577029905E+01 -0.61203886017E+01  0.11643387040E+02  0.51100000000E-03 0.  1.
         12    1    3    3    0    0 -0.26212312608E+02 -0.10569371323E+02 -0.78189920113E+01  0.29324624098E+02  0.00000000000E+00 0. -1.
</event>
<event>
 7    1  0.6857839E-013  0.5052885E+02  0.7816164E-02  0.1300439E+00
        -11   -1    0    0    0    0  0.00000000000E+00  0.00000000000E+00  0.45593999997E+02  0.45594000000E+02  0.51100000000E-03 0.  1.
         11   -1    0    0    0    0 -0.00000000000E+00 -0.00000000000E+00 -0.45593999997E+02  0.45594000000E+02  0.51100000000E-03 0. -1.
    9900012    2    1    2    0    0 -0.40631739452E+01  0.36784864864E+02 -0.16838381417E+02  0.50528846611E+02  0.29999959758E+02 0.  0.
        -12    1    1    2    0    0  0.40631739452E+01 -0.36784864864E+02  0.16838381417E+02  0.40659153389E+02  0.00000000000E+00 0.  1.
         11    1    3    3    0    0 -0.51669610155E+01  0.14599708173E+02 -0.12701049987E+02  0.20029119698E+02  0.51100000000E-03 0. -1.
        -11    1    3    3    0    0  0.25360441194E+01 -0.35353183087E+01  0.29508730517E+00  0.43608568078E+01  0.51100000000E-03 0.  1.
         12    1    3    3    0    0 -0.14322570491E+01  0.25720475000E+02 -0.44324187359E+01  0.26138870104E+02  0.00000000000E+00 0. -1.
</event>
<event>
 7    1  0.6857839E-013  0.5052886E+02  0.7816164E-02  0.1300439E+00
        -11   -1    0    0    0    0  0.00000000000E+00  0.00000000000E+00  0.45593999997E+02  0.45594000000E+02  0.51100000000E-03 0. -1.
         11   -1    0    0    0    0 -0.00000000000E+00 -0.00000000000E+00 -0.45593999997E+02  0.45594000000E+02  0.51100000000E-03 0.  1.
    9900012    2    1    2    0    0 -0.90800061827E+01  0.20441561926E+02  0.33953812243E+02  0.50528864101E+02  0.30000012921E+02 0.  0.
        -12    1    1    2    0    0  0.90800061827E+01 -0.20441561926E+02 -0.33953812243E+02  0.40659135899E+02  0.00000000000E+00 0.  1.
         11    1    3    3    0    0 -0.28738862608E+01  0.17075177764E+01  0.14408919793E+02  0.14791612794E+02  0.51100000000E-03 0. -1.
        -11    1    3    3    0    0 -0.44643840515E+01  0.11123594990E+02  0.23943620498E+02  0.26776147096E+02  0.51100000000E-03 0.  1.
        -12    1    3    3    0    0 -0.17417358704E+01  0.76104491593E+01 -0.43987280479E+01  0.89611042114E+01  0.00000000000E+00 0.  1.
</event>
<event>
 7    1  0.6857839E-013  0.5052886E+02  0.7816164E-02  0.1300439E+00
        -11   -1    0    0    0    0  0.00000000000E+00  0.00000000000E+00  0.45593999997E+02  0.45594000000E+02  0.51100000000E-03 0.  1.
         11   -1    0    0    0    0 -0.00000000000E+00 -0.00000000000E+00 -0.45593999997E+02  0.45594000000E+02  0.51100000000E-03 0. -1.
    9900012    2    1    2    0    0 -0.23972452600E+02 -0.76188327148E+01 -0.31944336775E+02  0.50528858991E+02  0.29999997390E+02 0.  0.
        -12    1    1    2    0    0  0.23972452600E+02  0.76188327148E+01  0.31944336775E+02  0.40659141009E+02  0.00000000000E+00 0.  1.
         11    1    3    3    0    0 -0.10078601676E+02 -0.99171949209E+01 -0.13999838707E+02  0.19897850410E+02  0.51100000000E-03 0. -1.
        -11    1    3    3    0    0 -0.18168832370E+01 -0.37544133264E+01  0.33930128155E+01  0.53767295217E+01  0.51100000000E-03 0.  1.
        -12    1    3    3    0    0 -0.12076967687E+02  0.60527755324E+01 -0.21337510883E+02  0.25254279060E+02  0.00000000000E+00 0.  1.
</event>
<event>
 7    1  0.6857839E-013  0.5052886E+02  0.7816164E-02  0.1300439E+00
        -11   -1    0    0    0    0  0.00000000000E+00  0.00000000000E+00  0.45593999997E+02  0.45594000000E+02  0.51100000000E-03 0.  1.
         11   -1    0    0    0    0 -0.00000000000E+00 -0.00000000000E+00 -0.45593999997E+02  0.45594000000E+02  0.51100000000E-03 0. -1.
    9900012    2    1    2    0    0  0.32846374034E+02  0.50828345865E+01 -0.23418931487E+02  0.50528857773E+02  0.29999993687E+02 0.  0.
        -12    1    1    2    0    0 -0.32846374034E+02 -0.50828345865E+01  0.23418931487E+02  0.40659142227E+02  0.00000000000E+00 0.  1.
         11    1    3    3    0    0  0.21093987144E+01  0.91965940012E+01 -0.19342884926E+01  0.96316341497E+01  0.51100000000E-03 0. -1.
        -11    1    3    3    0    0  0.16771804001E+02  0.29670301649E+01 -0.18146594572E+02  0.24887659035E+02  0.51100000000E-03 0.  1.
        -12    1    3    3    0    0  0.13965171319E+02 -0.70807895796E+01 -0.33380484232E+01  0.16009564588E+02  0.00000000000E+00 0.  1.
</event>
<event>
 7    1  0.6857839E-013  0.5052886E+02  0.7816164E-02  0.1300439E+00
        -11   -1    0    0    0    0  0.00000000000E+00  0.00000000000E+00  0.45593999997E+02  0.45594000000E+02  0.51100000000E-03 0.  1.
         11   -1    0    0    0    0 -0.00000000000E+00 -0.00000000000E+00 -0.45593999997E+02  0.45594000000E+02  0.51100000000E-03 0. -1.
    9900012    2    1    2    0    0 -0.14569033579E+02 -0.36000573723E+02 -0.12036090182E+02  0.50528861855E+02  0.30000006095E+02 0.  0.
        -12    1    1    2    0    0  0.14569033579E+02  0.36000573723E+02  0.12036090182E+02  0.40659138145E+02  0.00000000000E+00 0.  1.
         11    1    3    3    0    0 -0.76359807097E+01 -0.24346516673E+02 -0.26703929362E+01  0.25655254320E+02  0.51100000000E-03 0. -1.
        -11    1    3    3    0    0 -0.63001859724E+01 -0.73796972755E+01  0.42467338520E+01  0.10591837604E+02  0.51100000000E-03 0.  1.
         12    1    3    3    0    0 -0.63286689733E+00 -0.42743597742E+01 -0.13612431097E+02  0.14281769931E+02  0.00000000000E+00 0. -1.
</event>
<event>
 7    1  0.6857839E-013  0.5052886E+02  0.7816164E-02  0.1300439E+00
        -11   -1    0    0    0    0  0.00000000000E+00  0.00000000000E+00  0.45593999997E+02  0.45594000000E+02  0.51100000000E-03 0.  1.
         11   -1    0    0    0    0 -0.00000000000E+00 -0.00000000000E+00 -0.45593999997E+02  0.45594000000E+02  0.51100000000E-03 0. -1.
    9900012    2    1    2    0    0 -0.40591787019E+01 -0.38337217146E+02  0.12920771640E+02  0.50528862158E+02  0.30000007016E+02 0.  0.
        -12    1    1    2    0    0  0.40591787019E+01  0.38337217146E+02 -0.12920771640E+02  0.40659137842E+02  0.00000000000E+00 0.  1.
         11    1    3    3    0    0  0.94133971543E+00  0.42985125380E+00 -0.28787230821E+01  0.30590749263E+01  0.51100000000E-03 0.  1.
        -11    1    3    3    0    0  0.29558169690E+01 -0.25591008184E+02  0.49770920850E+00  0.25765951730E+02  0.51100000000E-03 0. -1.
        -12    1    3    3    0    0 -0.79563353863E+01 -0.13176060216E+02  0.15301785513E+02  0.21703835502E+02  0.00000000000E+00 0.  1.
</event>
<event>
 7    1  0.6857839E-013  0.5052889E+02  0.7816164E-02  0.1300439E+00
        -11   -1    0    0    0    0  0.00000000000E+00  0.00000000000E+00  0.45593999997E+02  0.45594000000E+02  0.51100000000E-03 0.  1.
         11   -1    0    0    0    0 -0.00000000000E+00 -0.00000000000E+00 -0.45593999997E+02  0.45594000000E+02  0.51100000000E-03 0. -1.
    9900012    2    1    2    0    0 -0.65607827668E+01  0.30228508000E+02 -0.26388564632E+02  0.50528893889E+02  0.30000103466E+02 0.  0.
        -12    1    1    2    0    0  0.65607827668E+01 -0.30228508000E+02  0.26388564632E+02  0.40659106111E+02  0.00000000000E+00 0.  1.
         11    1    3    3    0    0 -0.52936179547E+01  0.28494960369E+02 -0.27223562085E+02  0.39763142361E+02  0.51100000000E-03 0. -1.
        -11    1    3    3    0    0 -0.52677283669E+01  0.74013306267E+00 -0.20857939897E+01  0.57137812285E+01  0.51100000000E-03 0.  1.
        -12    1    3    3    0    0  0.40005635548E+01  0.99341456755E+00  0.29207914436E+01  0.50519703004E+01  0.00000000000E+00 0.  1.
</event>
<event>
 7    1  0.6857839E-013  0.5052887E+02  0.7816164E-02  0.1300439E+00
        -11   -1    0    0    0    0  0.00000000000E+00  0.00000000000E+00  0.45593999997E+02  0.45594000000E+02  0.51100000000E-03 0.  1.
         11   -1    0    0    0    0 -0.00000000000E+00 -0.00000000000E+00 -0.45593999997E+02  0.45594000000E+02  0.51100000000E-03 0. -1.
    9900012    2    1    2    0    0 -0.23060017735E+01 -0.33386372373E+02 -0.23091070649E+02  0.50528867593E+02  0.30000023534E+02 0.  0.
        -12    1    1    2    0    0  0.23060017735E+01  0.33386372373E+02  0.23091070649E+02  0.40659132407E+02  0.00000000000E+00 0.  1.
         11    1    3    3    0    0 -0.37772169049E+01 -0.10695127271E+01 -0.78124427321E+01  0.87433109703E+01  0.51100000000E-03 0. -1.
        -11    1    3    3    0    0  0.87938190037E+01 -0.50338169706E+01 -0.11410401143E+01  0.10196692541E+02  0.51100000000E-03 0.  1.
         12    1    3    3    0    0 -0.73226038723E+01 -0.27283042675E+02 -0.14137587802E+02  0.31588864082E+02  0.00000000000E+00 0. -1.
</event>
<event>
 7    1  0.6857839E-013  0.5052886E+02  0.7816164E-02  0.1300439E+00
        -11   -1    0    0    0    0  0.00000000000E+00  0.00000000000E+00  0.45593999997E+02  0.45594000000E+02  0.51100000000E-03 0.  1.
         11   -1    0    0    0    0 -0.00000000000E+00 -0.00000000000E+00 -0.45593999997E+02  0.45594000000E+02  0.51100000000E-03 0. -1.
    9900012    2    1    2    0    0 -0.74720251621E+00  0.19128074515E+02 -0.35870941581E+02  0.50528855934E+02  0.29999988097E+02 0.  0.
        -12    1    1    2    0    0  0.74720251621E+00 -0.19128074515E+02  0.35870941581E+02  0.40659144066E+02  0.00000000000E+00 0.  1.
         11    1    3    3    0    0  0.76498904759E+01  0.99759564502E+01 -0.14394519661E+02  0.19111324599E+02  0.51100000000E-03 0. -1.
        -11    1    3    3    0    0  0.32716898291E+00  0.10626606271E+02 -0.31849480444E+01  0.11098454609E+02  0.51100000000E-03 0.  1.
        -12    1    3    3    0    0 -0.87242619750E+01 -0.14744882068E+01 -0.18291473875E+02  0.20319076727E+02  0.00000000000E+00 0.  1.
</event>
<event>
 7    1  0.6857839E-013  0.5052886E+02  0.7816164E-02  0.1300439E+00
        -11   -1    0    0    0    0  0.00000000000E+00  0.00000000000E+00  0.45593999997E+02  0.45594000000E+02  0.51100000000E-03 0.  1.
         11   -1    0    0    0    0 -0.00000000000E+00 -0.00000000000E+00 -0.45593999997E+02  0.45594000000E+02  0.51100000000E-03 0. -1.
    9900012    2    1    2    0    0 -0.27248942600E+02  0.23898419963E+01 -0.30082377610E+02  0.50528860065E+02  0.30000000653E+02 0.  0.
        -12    1    1    2    0    0  0.27248942600E+02 -0.23898419963E+01  0.30082377610E+02  0.40659139935E+02  0.00000000000E+00 0.  1.
         11    1    3    3    0    0 -0.21607031261E+02  0.51197956627E+01 -0.14943562377E+02  0.26765391167E+02  0.51100000000E-03 0. -1.
        -11    1    3    3    0    0 -0.83752368654E+01  0.17233129808E+01 -0.90209280964E+00  0.85981493287E+01  0.51100000000E-03 0.  1.
         12    1    3    3    0    0  0.27333255267E+01 -0.44532666472E+01 -0.14236722424E+02  0.15165319570E+02  0.00000000000E+00 0. -1.
</event>
<event>
 7    1  0.6857839E-013  0.5052888E+02  0.7816164E-02  0.1300439E+00
        -11   -1    0    0    0    0  0.00000000000E+00  0.00000000000E+00  0.45593999997E+02  0.45594000000E+02  0.51100000000E-03 0. -1.
         11   -1    0    0    0    0 -0.00000000000E+00 -0.00000000000E+00 -0.45593999997E+02  0.45594000000E+02  0.51100000000E-03 0.  1.
    9900012    2    1    2    0    0 -0.58893559572E+01  0.39950439720E+02  0.47372735629E+01  0.50528881610E+02  0.30000066143E+02 0.  0.
        -12    1    1    2    0    0  0.58893559572E+01 -0.39950439720E+02 -0.47372735629E+01  0.40659118390E+02  0.00000000000E+00 0.  1.
         11    1    3    3    0    0  0.29419132026E+01  0.96289532656E+01  0.57169960651E+01  0.11578239873E+02  0.51100000000E-03 0. -1.
        -11    1    3    3    0    0  0.65055794308E+01  0.12717438915E+02 -0.52433161109E+01  0.15216707278E+02  0.51100000000E-03 0.  1.
         12    1    3    3    0    0 -0.15336848591E+02  0.17604047539E+02  0.42635936088E+01  0.23733934459E+02  0.00000000000E+00 0. -1.
</event>
<event>
 7    1  0.6857839E-013  0.5052888E+02  0.7816164E-02  0.1300439E+00
        -11   -1    0    0    0    0  0.00000000000E+00  0.00000000000E+00  0.45593999997E+02  0.45594000000E+02  0.51100000000E-03 0. -1.
         11   -1    0    0    0    0 -0.00000000000E+00 -0.00000000000E+00 -0.45593999997E+02  0.45594000000E+02  0.51100000000E-03 0.  1.
    9900012    2    1    2    0    0  0.36075710644E+02 -0.18697914523E+02 -0.14474446763E+01  0.50528880456E+02  0.30000062635E+02 0.  0.
        -12    1    1    2    0    0 -0.36075710644E+02  0.18697914523E+02  0.14474446763E+01  0.40659119544E+02  0.00000000000E+00 0.  1.
         11    1    3    3    0    0  0.17086717429E+02  0.11781720552E+00  0.51356385123E+01  0.17842213332E+02  0.51100000000E-03 0. -1.
        -11    1    3    3    0    0  0.75629569223E+01 -0.15578533439E+00 -0.76787388585E+01  0.10778943232E+02  0.51100000000E-03 0.  1.
         12    1    3    3    0    0  0.11426036293E+02 -0.18659946394E+02  0.10956556699E+01  0.21907723892E+02  0.00000000000E+00 0. -1.
</event>
<event>
 7    1  0.6857839E-013  0.5052887E+02  0.7816164E-02  0.1300439E+00
        -11   -1    0    0    0    0  0.00000000000E+00  0.00000000000E+00  0.45593999997E+02  0.45594000000E+02  0.51100000000E-03 0.  1.
         11   -1    0    0    0    0 -0.00000000000E+00 -0.00000000000E+00 -0.45593999997E+02  0.45594000000E+02  0.51100000000E-03 0. -1.
    9900012    2    1    2    0    0  0.26967745367E+02  0.98312602942E+01 -0.28796734679E+02  0.50528869447E+02  0.30000029171E+02 0.  0.
        -12    1    1    2    0    0 -0.26967745367E+02 -0.98312602942E+01  0.28796734679E+02  0.40659130553E+02  0.00000000000E+00 0.  1.
         11    1    3    3    0    0  0.23732990033E+02  0.84437533020E+01 -0.25672654234E+02  0.35967165046E+02  0.51100000000E-03 0. -1.
        -11    1    3    3    0    0 -0.88219799782E+00  0.28272975057E+01 -0.76941116318E+01  0.82444671481E+01  0.51100000000E-03 0.  1.
         12    1    3    3    0    0  0.41169533314E+01 -0.14397905134E+01  0.45700311874E+01  0.63172372529E+01  0.00000000000E+00 0. -1.
</event>
<event>
 7    1  0.6857839E-013  0.5052885E+02  0.7816164E-02  0.1300439E+00
        -11   -1    0    0    0    0  0.00000000000E+00  0.00000000000E+00  0.45593999997E+02  0.45594000000E+02  0.51100000000E-03 0.  1.
         11   -1    0    0    0    0 -0.00000000000E+00 -0.00000000000E+00 -0.45593999997E+02  0.45594000000E+02  0.51100000000E-03 0. -1.
    9900012    2    1    2    0    0  0.14442721646E+02  0.32918252744E+02 -0.18999029458E+02  0.50528847370E+02  0.29999962066E+02 0.  0.
        -12    1    1    2    0    0 -0.14442721646E+02 -0.32918252744E+02  0.18999029458E+02  0.40659152630E+02  0.00000000000E+00 0.  1.
         11    1    3    3    0    0  0.81301357012E+01  0.25571895048E+01 -0.10711594998E+02  0.13688556985E+02  0.51100000000E-03 0.  1.
        -11    1    3    3    0    0  0.11704788127E+02  0.13779710003E+02 -0.68901779402E+01  0.19348308070E+02  0.51100000000E-03 0. -1.
         12    1    3    3    0    0 -0.53922021822E+01  0.16581353236E+02 -0.13972565198E+01  0.17491982315E+02  0.00000000000E+00 0. -1.
</event>
<event>
 7    1  0.6857839E-013  0.5052887E+02  0.7816164E-02  0.1300439E+00
        -11   -1    0    0    0    0  0.00000000000E+00  0.00000000000E+00  0.45593999997E+02  0.45594000000E+02  0.51100000000E-03 0.  1.
         11   -1    0    0    0    0 -0.00000000000E+00 -0.00000000000E+00 -0.45593999997E+02  0.45594000000E+02  0.51100000000E-03 0. -1.
    9900012    2    1    2    0    0 -0.93130377101E+01 -0.38971477861E+02 -0.69033605038E+01  0.50528866410E+02  0.30000019940E+02 0.  0.
        -12    1    1    2    0    0  0.93130377101E+01  0.38971477861E+02  0.69033605038E+01  0.40659133590E+02  0.00000000000E+00 0.  1.
         11    1    3    3    0    0  0.39710735675E+01 -0.32903702860E+01 -0.49740833211E+01  0.71650168906E+01  0.51100000000E-03 0. -1.
        -11    1    3    3    0    0 -0.14654087072E+02 -0.14299626703E+02  0.45616021143E+01  0.20976887421E+02  0.51100000000E-03 0.  1.
         12    1    3    3    0    0  0.13699757947E+01 -0.21381480872E+02 -0.64908792971E+01  0.22386962099E+02  0.00000000000E+00 0. -1.
</event>
<event>
 7    1  0.6952897E-013  0.5052886E+02  0.7816164E-02  0.1300439E+00
        -11   -1    0    0    0    0  0.00000000000E+00  0.00000000000E+00  0.45593999997E+02  0.45594000000E+02  0.51100000000E-03 0.  1.
         11   -1    0    0    0    0 -0.00000000000E+00 -0.00000000000E+00 -0.45593999997E+02  0.45594000000E+02  0.51100000000E-03 0. -1.
    9900012    2    1    2    0    0 -0.40360266824E+02 -0.48141850982E+01 -0.10188473436E+01  0.50528861222E+02  0.30000004170E+02 0.  0.
        -12    1    1    2    0    0  0.40360266824E+02  0.48141850982E+01  0.10188473436E+01  0.40659138778E+02  0.00000000000E+00 0.  1.
         11    1    3    3    0    0 -0.17674653349E+02 -0.27264712021E+01  0.20880250673E+01  0.18005189951E+02  0.51100000000E-03 0. -1.
        -11    1    3    3    0    0 -0.83119209296E+01  0.81584959083E+01  0.55058987774E+01  0.12882701837E+02  0.51100000000E-03 0.  1.
        -12    1    3    3    0    0 -0.14373692545E+02 -0.10246209804E+02 -0.86127711883E+01  0.19640969433E+02  0.00000000000E+00 0.  1.
</event>
<event>
 7    1  0.6857839E-013  0.5052886E+02  0.7816164E-02  0.1300439E+00
        -11   -1    0    0    0    0  0.00000000000E+00  0.00000000000E+00  0.45593999997E+02  0.45594000000E+02  0.51100000000E-03 0.  1.
         11   -1    0    0    0    0 -0.00000000000E+00 -0.00000000000E+00 -0.45593999997E+02  0.45594000000E+02  0.51100000000E-03 0. -1.
    9900012    2    1    2    0    0  0.69277322336E+01  0.39160680585E+02  0.84624605122E+01  0.50528860613E+02  0.30000002320E+02 0.  0.
        -12    1    1    2    0    0 -0.69277322336E+01 -0.39160680585E+02 -0.84624605122E+01  0.40659139387E+02  0.00000000000E+00 0.  1.
         11    1    3    3    0    0 -0.64609516775E+00  0.58769457572E+01  0.29333577503E+01  0.66000392690E+01  0.51100000000E-03 0. -1.
        -11    1    3    3    0    0  0.12516542199E+02  0.31856453644E+01  0.33878539890E+01  0.13352517362E+02  0.51100000000E-03 0.  1.
         12    1    3    3    0    0 -0.49427147972E+01  0.30098089463E+02  0.21412487729E+01  0.30576303982E+02  0.00000000000E+00 0. -1.
</event>
<event>
 7    1  0.6857839E-013  0.5052885E+02  0.7816164E-02  0.1300439E+00
        -11   -1    0    0    0    0  0.00000000000E+00  0.00000000000E+00  0.45593999997E+02  0.45594000000E+02  0.51100000000E-03 0.  1.
         11   -1    0    0    0    0 -0.00000000000E+00 -0.00000000000E+00 -0.45593999997E+02  0.45594000000E+02  0.51100000000E-03 0. -1.
    9900012    2    1    2    0    0  0.10216336759E+02  0.35907498085E+02 -0.16107278253E+02  0.50528851359E+02  0.29999974189E+02 0.  0.
        -12    1    1    2    0    0 -0.10216336759E+02 -0.35907498085E+02  0.16107278253E+02  0.40659148641E+02  0.00000000000E+00 0.  1.
         11    1    3    3    0    0 -0.56001294386E+00  0.24148048067E+02 -0.72989583506E+01  0.25233244603E+02  0.51100000000E-03 0. -1.
        -11    1    3    3    0    0 -0.27600545591E+00  0.71587182244E+01  0.36306502016E+01  0.80315033945E+01  0.51100000000E-03 0.  1.
         12    1    3    3    0    0  0.11052355159E+02  0.46007317937E+01 -0.12438970104E+02  0.17264103361E+02  0.00000000000E+00 0. -1.
</event>
<event>
 7    1  0.6857839E-013  0.5052885E+02  0.7816164E-02  0.1300439E+00
        -11   -1    0    0    0    0  0.00000000000E+00  0.00000000000E+00  0.45593999997E+02  0.45594000000E+02  0.51100000000E-03 0.  1.
         11   -1    0    0    0    0 -0.00000000000E+00 -0.00000000000E+00 -0.45593999997E+02  0.45594000000E+02  0.51100000000E-03 0. -1.
    9900012    2    1    2    0    0  0.20303225753E+02  0.30195642705E+02 -0.18142994820E+02  0.50528854960E+02  0.29999985135E+02 0.  0.
        -12    1    1    2    0    0 -0.20303225753E+02 -0.30195642705E+02  0.18142994820E+02  0.40659145040E+02  0.00000000000E+00 0.  1.
         11    1    3    3    0    0  0.12790482521E+01  0.17660588246E+02  0.25151600408E+01  0.17884584757E+02  0.51100000000E-03 0. -1.
        -11    1    3    3    0    0 -0.19194022616E+00  0.12270650586E+01  0.97413638318E+00  0.15784396290E+01  0.51100000000E-03 0.  1.
         12    1    3    3    0    0  0.19216117727E+02  0.11307989401E+02 -0.21632291244E+02  0.31065830574E+02  0.00000000000E+00 0. -1.
</event>
<event>
 7    1  0.6857839E-013  0.5052889E+02  0.7816164E-02  0.1300439E+00
        -11   -1    0    0    0    0  0.00000000000E+00  0.00000000000E+00  0.45593999997E+02  0.45594000000E+02  0.51100000000E-03 0.  1.
         11   -1    0    0    0    0 -0.00000000000E+00 -0.00000000000E+00 -0.45593999997E+02  0.45594000000E+02  0.51100000000E-03 0. -1.
    9900012    2    1    2    0    0  0.31072547201E+02 -0.25894814806E+02 -0.41374319703E+01  0.50528893189E+02  0.30000101336E+02 0.  0.
        -12    1    1    2    0    0 -0.31072547201E+02  0.25894814806E+02  0.41374319703E+01  0.40659106811E+02  0.00000000000E+00 0.  1.
         11    1    3    3    0    0  0.25502911809E+02 -0.11407798769E+02  0.13867048374E+00  0.27938425390E+02  0.51100000000E-03 0. -1.
        -11    1    3    3    0    0  0.22510248886E+01  0.16971258278E+00 -0.69671071011E+01  0.73236942201E+01  0.51100000000E-03 0.  1.
         12    1    3    3    0    0  0.33186105035E+01 -0.14656728620E+02  0.26910046470E+01  0.15266773579E+02  0.00000000000E+00 0. -1.
</event>
<event>
 7    1  0.6857839E-013  0.5052886E+02  0.7816164E-02  0.1300439E+00
        -11   -1    0    0    0    0  0.00000000000E+00  0.00000000000E+00  0.45593999997E+02  0.45594000000E+02  0.51100000000E-03 0.  1.
         11   -1    0    0    0    0 -0.00000000000E+00 -0.00000000000E+00 -0.45593999997E+02  0.45594000000E+02  0.51100000000E-03 0. -1.
    9900012    2    1    2    0    0 -0.18143079831E+02  0.11061668978E+02 -0.34664589454E+02  0.50528860457E+02  0.30000001846E+02 0.  0.
        -12    1    1    2    0    0  0.18143079831E+02 -0.11061668978E+02  0.34664589454E+02  0.40659139543E+02  0.00000000000E+00 0.  1.
         11    1    3    3    0    0 -0.21220073085E+01  0.41255600403E+00 -0.11496735148E+02  0.11698206563E+02  0.51100000000E-03 0. -1.
        -11    1    3    3    0    0 -0.49866748201E+01 -0.60704597776E+01 -0.15506636860E+02  0.17383129598E+02  0.51100000000E-03 0.  1.
        -12    1    3    3    0    0 -0.11034397702E+02  0.16719572752E+02 -0.76612174466E+01  0.21447524296E+02  0.00000000000E+00 0.  1.
</event>
<event>
 7    1  0.6857839E-013  0.5052886E+02  0.7816164E-02  0.1300439E+00
        -11   -1    0    0    0    0  0.00000000000E+00  0.00000000000E+00  0.45593999997E+02  0.45594000000E+02  0.51100000000E-03 0.  1.
         11   -1    0    0    0    0 -0.00000000000E+00 -0.00000000000E+00 -0.45593999997E+02  0.45594000000E+02  0.51100000000E-03 0. -1.
    9900012    2    1    2    0    0  0.11292840436E+02  0.38770715826E+02  0.47401341173E+01  0.50528861762E+02  0.30000005812E+02 0.  0.
        -12    1    1    2    0    0 -0.11292840436E+02 -0.38770715826E+02 -0.47401341173E+01  0.40659138238E+02  0.00000000000E+00 0.  1.
         11    1    3    3    0    0  0.42490078170E+01  0.25203309099E+02  0.24259782232E+01  0.25673843257E+02  0.51100000000E-03 0. -1.
        -11    1    3    3    0    0 -0.67235142942E+01  0.47174885050E+01  0.21400037078E+01  0.84876356184E+01  0.51100000000E-03 0.  1.
         12    1    3    3    0    0  0.13767346914E+02  0.88499182219E+01  0.17415218639E+00  0.16367382887E+02  0.00000000000E+00 0. -1.
</event>
<event>
 7    1  0.6857839E-013  0.5052886E+02  0.7816164E-02  0.1300439E+00
        -11   -1    0    0    0    0  0.00000000000E+00  0.00000000000E+00  0.45593999997E+02  0.45594000000E+02  0.51100000000E-03 0.  1.
         11   -1    0    0    0    0 -0.00000000000E+00 -0.00000000000E+00 -0.45593999997E+02  0.45594000000E+02  0.51100000000E-03 0. -1.
    9900012    2    1    2    0    0  0.27873272802E+02  0.11603026464E+02 -0.27232632111E+02  0.50528858205E+02  0.29999994998E+02 0.  0.
        -12    1    1    2    0    0 -0.27873272802E+02 -0.11603026464E+02  0.27232632111E+02  0.40659141795E+02  0.00000000000E+00 0.  1.
         11    1    3    3    0    0  0.70669018766E+01  0.14925169645E+02 -0.33213177189E+01  0.16844374215E+02  0.51100000000E-03 0. -1.
        -11    1    3    3    0    0  0.23149922403E+01 -0.25671961610E+01 -0.11339343233E-01  0.34568503068E+01  0.51100000000E-03 0.  1.
         12    1    3    3    0    0  0.18491378685E+02 -0.75494701952E+00 -0.23899975049E+02  0.30227633682E+02  0.00000000000E+00 0. -1.
</event>
<event>
 7    1  0.6857839E-013  0.5052887E+02  0.7816164E-02  0.1300439E+00
        -11   -1    0    0    0    0  0.00000000000E+00  0.00000000000E+00  0.45593999997E+02  0.45594000000E+02  0.51100000000E-03 0. -1.
         11   -1    0    0    0    0 -0.00000000000E+00 -0.00000000000E+00 -0.45593999997E+02  0.45594000000E+02  0.51100000000E-03 0.  1.
    9900012    2    1    2    0    0 -0.11759984905E+01 -0.14663975802E+02  0.37904486491E+02  0.50528865050E+02  0.30000015806E+02 0.  0.
        -12    1    1    2    0    0  0.11759984905E+01  0.14663975802E+02 -0.37904486491E+02  0.40659134950E+02  0.00000000000E+00 0.  1.
         11    1    3    3    0    0  0.61650956993E+00 -0.77176537106E+01  0.37795819982E+02  0.38580646329E+02  0.51100000000E-03 0. -1.
        -11    1    3    3    0    0  0.29583571360E+01 -0.60638811250E+01  0.15161370159E+01  0.69152876263E+01  0.51100000000E-03 0.  1.
        -12    1    3    3    0    0 -0.47508651965E+01 -0.88244096600E+00 -0.14074705067E+01  0.50329310944E+01  0.00000000000E+00 0.  1.
</event>
<event>
 7    1  0.6857839E-013  0.5052886E+02  0.7816164E-02  0.1300439E+00
        -11   -1    0    0    0    0  0.00000000000E+00  0.00000000000E+00  0.45593999997E+02  0.45594000000E+02  0.51100000000E-03 0.  1.
         11   -1    0    0    0    0 -0.00000000000E+00 -0.00000000000E+00 -0.45593999997E+02  0.45594000000E+02  0.51100000000E-03 0. -1.
    9900012    2    1    2    0    0 -0.28397413876E+02 -0.11272745487E+02 -0.26826815718E+02  0.50528856535E+02  0.29999989925E+02 0.  0.
        -12    1    1    2    0    0  0.28397413876E+02  0.11272745487E+02  0.26826815718E+02  0.40659143465E+02  0.00000000000E+00 0.  1.
         11    1    3    3    0    0  0.88245293923E+00 -0.29400998002E+01 -0.11824649408E+02  0.12216597067E+02  0.51100000000E-03 0. -1.
        -11    1    3    3    0    0 -0.13326626101E+02 -0.12998970748E+02 -0.73726317237E+01  0.20023184126E+02  0.51100000000E-03 0.  1.
         12    1    3    3    0    0 -0.15953240715E+02  0.46663250609E+01 -0.76295345871E+01  0.18289075343E+02  0.00000000000E+00 0. -1.
</event>
<event>
 7    1  0.6857839E-013  0.5052890E+02  0.7816164E-02  0.1300439E+00
        -11   -1    0    0    0    0  0.00000000000E+00  0.00000000000E+00  0.45593999997E+02  0.45594000000E+02  0.51100000000E-03 0.  1.
         11   -1    0    0    0    0 -0.00000000000E+00 -0.00000000000E+00 -0.45593999997E+02  0.45594000000E+02  0.51100000000E-03 0. -1.
    9900012    2    1    2    0    0 -0.37939433532E+01  0.40204781150E+02  0.47269781875E+01  0.50528895776E+02  0.30000109200E+02 0.  0.
        -12    1    1    2    0    0  0.37939433532E+01 -0.40204781150E+02 -0.47269781875E+01  0.40659104224E+02  0.00000000000E+00 0.  1.
         11    1    3    3    0    0 -0.32402945432E+01  0.19384937160E+02  0.57756421028E+01  0.20484953975E+02  0.51100000000E-03 0. -1.
        -11    1    3    3    0    0  0.24701692221E+01 -0.94683109120E+00  0.63316236739E+01  0.68620466123E+01  0.51100000000E-03 0.  1.
         12    1    3    3    0    0 -0.30238180321E+01  0.21766675082E+02 -0.73802875892E+01  0.23181895188E+02  0.00000000000E+00 0. -1.
</event>
<event>
 7    1  0.6857839E-013  0.5052879E+02  0.7816164E-02  0.1300439E+00
        -11   -1    0    0    0    0  0.00000000000E+00  0.00000000000E+00  0.45593999997E+02  0.45594000000E+02  0.51100000000E-03 0. -1.
         11   -1    0    0    0    0 -0.00000000000E+00 -0.00000000000E+00 -0.45593999997E+02  0.45594000000E+02  0.51100000000E-03 0.  1.
    9900012    2    1    2    0    0  0.19629079793E+02 -0.12421695216E+02 -0.33370230961E+02  0.50528787022E+02  0.29999778632E+02 0.  0.
        -12    1    1    2    0    0 -0.19629079793E+02  0.12421695216E+02  0.33370230961E+02  0.40659212978E+02  0.00000000000E+00 0.  1.
         11    1    3    3    0    0  0.16133589029E+02 -0.96389966779E+01 -0.88906353762E+01  0.20790535096E+02  0.51100000000E-03 0. -1.
        -11    1    3    3    0    0  0.82007721863E+00 -0.83605983919E+01 -0.62019172666E+01  0.10442026152E+02  0.51100000000E-03 0.  1.
        -12    1    3    3    0    0  0.26754135452E+01  0.55778998542E+01 -0.18277678319E+02  0.19296225774E+02  0.00000000000E+00 0.  1.
</event>
<event>
 7    1  0.6857839E-013  0.5052886E+02  0.7816164E-02  0.1300439E+00
        -11   -1    0    0    0    0  0.00000000000E+00  0.00000000000E+00  0.45593999997E+02  0.45594000000E+02  0.51100000000E-03 0. -1.
         11   -1    0    0    0    0 -0.00000000000E+00 -0.00000000000E+00 -0.45593999997E+02  0.45594000000E+02  0.51100000000E-03 0.  1.
    9900012    2    1    2    0    0  0.23314859467E+02  0.30792099968E+02  0.12705507457E+02  0.50528855738E+02  0.29999987501E+02 0.  0.
        -12    1    1    2    0    0 -0.23314859467E+02 -0.30792099968E+02 -0.12705507457E+02  0.40659144262E+02  0.00000000000E+00 0.  1.
         11    1    3    3    0    0  0.25106230881E+01  0.16877023810E+02  0.22633691125E+01  0.17212205001E+02  0.51100000000E-03 0. -1.
        -11    1    3    3    0    0  0.23079864379E+02  0.11681683914E+02  0.40628383535E+01  0.26184891341E+02  0.51100000000E-03 0.  1.
         12    1    3    3    0    0 -0.22756280002E+01  0.22333922436E+01  0.63792999909E+01  0.71317593960E+01  0.00000000000E+00 0. -1.
</event>
<event>
 7    1  0.6857839E-013  0.5052886E+02  0.7816164E-02  0.1300439E+00
        -11   -1    0    0    0    0  0.00000000000E+00  0.00000000000E+00  0.45593999997E+02  0.45594000000E+02  0.51100000000E-03 0.  1.
         11   -1    0    0    0    0 -0.00000000000E+00 -0.00000000000E+00 -0.45593999997E+02  0.45594000000E+02  0.51100000000E-03 0. -1.
    9900012    2    1    2    0    0  0.12294193020E+02  0.69809455299E+01 -0.38121978401E+02  0.50528855645E+02  0.29999987217E+02 0.  0.
        -12    1    1    2    0    0 -0.12294193020E+02 -0.69809455299E+01  0.38121978401E+02  0.40659144355E+02  0.00000000000E+00 0.  1.
         11    1    3    3    0    0  0.72988007285E+01 -0.33937807591E+01 -0.36485842068E+02  0.37363175877E+02  0.51100000000E-03 0. -1.
        -11    1    3    3    0    0  0.38485043393E+01  0.53233428048E+01 -0.37582219518E+01  0.75679057055E+01  0.51100000000E-03 0.  1.
        -12    1    3    3    0    0  0.11468879517E+01  0.50513834841E+01  0.21220856189E+01  0.55977740622E+01  0.00000000000E+00 0.  1.
</event>
<event>
 7    1  0.6857839E-013  0.5052878E+02  0.7816164E-02  0.1300439E+00
        -11   -1    0    0    0    0  0.00000000000E+00  0.00000000000E+00  0.45593999997E+02  0.45594000000E+02  0.51100000000E-03 0.  1.
         11   -1    0    0    0    0 -0.00000000000E+00 -0.00000000000E+00 -0.45593999997E+02  0.45594000000E+02  0.51100000000E-03 0. -1.
    9900012    2    1    2    0    0 -0.81462359752E+01  0.25389371006E+02 -0.30695124515E+02  0.50528782231E+02  0.29999764068E+02 0.  0.
        -12    1    1    2    0    0  0.81462359752E+01 -0.25389371006E+02  0.30695124515E+02  0.40659217769E+02  0.00000000000E+00 0.  1.
         11    1    3    3    0    0 -0.10111925467E+02  0.10211973649E+01 -0.10018418204E+01  0.10212618077E+02  0.51100000000E-03 0. -1.
        -11    1    3    3    0    0 -0.98063067508E+00  0.90931198054E+01 -0.19986262213E+02  0.21979470918E+02  0.51100000000E-03 0.  1.
        -12    1    3    3    0    0  0.29463201665E+01  0.15275053835E+02 -0.97070204810E+01  0.18336693236E+02  0.00000000000E+00 0.  1.
</event>
<event>
 7    1  0.6857839E-013  0.5052886E+02  0.7816164E-02  0.1300439E+00
        -11   -1    0    0    0    0  0.00000000000E+00  0.00000000000E+00  0.45593999997E+02  0.45594000000E+02  0.51100000000E-03 0.  1.
         11   -1    0    0    0    0 -0.00000000000E+00 -0.00000000000E+00 -0.45593999997E+02  0.45594000000E+02  0.51100000000E-03 0. -1.
    9900012    2    1    2    0    0 -0.10726016493E+02 -0.31490560462E+02 -0.23376543596E+02  0.50528860578E+02  0.30000002213E+02 0.  0.
        -12    1    1    2    0    0  0.10726016493E+02  0.31490560462E+02  0.23376543596E+02  0.40659139422E+02  0.00000000000E+00 0.  1.
         11    1    3    3    0    0  0.20868686190E+00 -0.19610234961E+02  0.25327777111E+01  0.19774221316E+02  0.51100000000E-03 0. -1.
        -11    1    3    3    0    0 -0.16245815413E+01 -0.20719940534E+00 -0.24732613939E+01  0.29663477479E+01  0.51100000000E-03 0.  1.
         12    1    3    3    0    0 -0.93101218134E+01 -0.11673126095E+02 -0.23436059914E+02  0.27788291514E+02  0.00000000000E+00 0. -1.
</event>
<event>
 7    1  0.6857839E-013  0.5052888E+02  0.7816164E-02  0.1300439E+00
        -11   -1    0    0    0    0  0.00000000000E+00  0.00000000000E+00  0.45593999997E+02  0.45594000000E+02  0.51100000000E-03 0.  1.
         11   -1    0    0    0    0 -0.00000000000E+00 -0.00000000000E+00 -0.45593999997E+02  0.45594000000E+02  0.51100000000E-03 0. -1.
    9900012    2    1    2    0    0  0.29049673728E+02 -0.25410088072E+02  0.12790936376E+02  0.50528878356E+02  0.30000056249E+02 0.  0.
        -12    1    1    2    0    0 -0.29049673728E+02  0.25410088072E+02 -0.12790936376E+02  0.40659121644E+02  0.00000000000E+00 0.  1.
         11    1    3    3    0    0  0.10554093947E+02 -0.13147183466E+02  0.11657697725E+02  0.20497298570E+02  0.51100000000E-03 0. -1.
        -11    1    3    3    0    0  0.21778671397E+01  0.13287107695E+01  0.74504691090E+01  0.78751550964E+01  0.51100000000E-03 0.  1.
         12    1    3    3    0    0  0.16317712641E+02 -0.13591615376E+02 -0.63172304587E+01  0.22156424689E+02  0.00000000000E+00 0. -1.
</event>
<event>
 7    1  0.6857839E-013  0.5052887E+02  0.7816164E-02  0.1300439E+00
        -11   -1    0    0    0    0  0.00000000000E+00  0.00000000000E+00  0.45593999997E+02  0.45594000000E+02  0.51100000000E-03 0. -1.
         11   -1    0    0    0    0 -0.00000000000E+00 -0.00000000000E+00 -0.45593999997E+02  0.45594000000E+02  0.51100000000E-03 0.  1.
    9900012    2    1    2    0    0  0.10479477529E+01  0.20574809704E+02  0.35053444914E+02  0.50528868318E+02  0.30000025739E+02 0.  0.
        -12    1    1    2    0    0 -0.10479477529E+01 -0.20574809704E+02 -0.35053444914E+02  0.40659131682E+02  0.00000000000E+00 0.  1.
         11    1    3    3    0    0  0.72986664455E+01  0.12235163514E+02  0.20314044555E+02  0.24811895626E+02  0.51100000000E-03 0. -1.
        -11    1    3    3    0    0  0.44123075537E+01  0.59514781555E+00 -0.15947989504E+01  0.47292750845E+01  0.51100000000E-03 0.  1.
        -12    1    3    3    0    0 -0.10663026246E+02  0.77444983737E+01  0.16334199309E+02  0.20987697608E+02  0.00000000000E+00 0.  1.
</event>
<event>
 7    1  0.6857839E-013  0.5052886E+02  0.7816164E-02  0.1300439E+00
        -11   -1    0    0    0    0  0.00000000000E+00  0.00000000000E+00  0.45593999997E+02  0.45594000000E+02  0.51100000000E-03 0. -1.
         11   -1    0    0    0    0 -0.00000000000E+00 -0.00000000000E+00 -0.45593999997E+02  0.45594000000E+02  0.51100000000E-03 0.  1.
    9900012    2    1    2    0    0 -0.13968721311E+02  0.37085127797E+02  0.90958086450E+01  0.50528860638E+02  0.30000002394E+02 0.  0.
        -12    1    1    2    0    0  0.13968721311E+02 -0.37085127797E+02 -0.90958086450E+01  0.40659139362E+02  0.00000000000E+00 0.  1.
         11    1    3    3    0    0 -0.11714194831E+01  0.23527344210E+02  0.92160185286E+01  0.25295121011E+02  0.51100000000E-03 0. -1.
        -11    1    3    3    0    0 -0.72956218051E+01  0.15804247536E+02  0.41759354918E+01  0.17900803759E+02  0.51100000000E-03 0.  1.
        -12    1    3    3    0    0 -0.55016800226E+01 -0.22464639498E+01 -0.42961453754E+01  0.73329358674E+01  0.00000000000E+00 0.  1.
</event>
<event>
 7    1  0.6857839E-013  0.5052886E+02  0.7816164E-02  0.1300439E+00
        -11   -1    0    0    0    0  0.00000000000E+00  0.00000000000E+00  0.45593999997E+02  0.45594000000E+02  0.51100000000E-03 0. -1.
         11   -1    0    0    0    0 -0.00000000000E+00 -0.00000000000E+00 -0.45593999997E+02  0.45594000000E+02  0.51100000000E-03 0.  1.
    9900012    2    1    2    0    0  0.15419655729E+02 -0.32380401791E+02  0.19154882680E+02  0.50528859165E+02  0.29999997917E+02 0.  0.
        -12    1    1    2    0    0 -0.15419655729E+02  0.32380401791E+02 -0.19154882680E+02  0.40659140835E+02  0.00000000000E+00 0.  1.
         11    1    3    3    0    0  0.13960844808E+02 -0.25366389831E+02  0.13945125195E+00  0.28954764163E+02  0.51100000000E-03 0.  1.
        -11    1    3    3    0    0 -0.28120639512E+01 -0.15645425805E+01  0.50803062275E+01  0.60137350106E+01  0.51100000000E-03 0. -1.
        -12    1    3    3    0    0  0.42708748716E+01 -0.54494693799E+01  0.13935125201E+02  0.15560359991E+02  0.00000000000E+00 0.  1.
</event>
<event>
 7    1  0.6857839E-013  0.5052895E+02  0.7816164E-02  0.1300438E+00
        -11   -1    0    0    0    0  0.00000000000E+00  0.00000000000E+00  0.45593999997E+02  0.45594000000E+02  0.51100000000E-03 0.  1.
         11   -1    0    0    0    0 -0.00000000000E+00 -0.00000000000E+00 -0.45593999997E+02  0.45594000000E+02  0.51100000000E-03 0. -1.
    9900012    2    1    2    0    0 -0.11088083522E+02  0.32634029758E+02 -0.21569259747E+02  0.50528948603E+02  0.30000269773E+02 0.  0.
        -12    1    1    2    0    0  0.11088083522E+02 -0.32634029758E+02  0.21569259747E+02  0.40659051397E+02  0.00000000000E+00 0.  1.
         11    1    3    3    0    0 -0.47401983497E+01 -0.13533663863E+01 -0.31676169798E+01  0.58595971331E+01  0.51100000000E-03 0.  1.
        -11    1    3    3    0    0 -0.12328096908E+02  0.31963640517E+02 -0.16798911714E+02  0.38155729891E+02  0.51100000000E-03 0. -1.
         12    1    3    3    0    0  0.59802117360E+01  0.20237556272E+01 -0.16027310536E+01  0.65136215792E+01  0.00000000000E+00 0. -1.
</event>
<event>
 7    1  0.6857839E-013  0.5052887E+02  0.7816164E-02  0.1300439E+00
        -11   -1    0    0    0    0  0.00000000000E+00  0.00000000000E+00  0.45593999997E+02  0.45594000000E+02  0.51100000000E-03 0. -1.
         11   -1    0    0    0    0 -0.00000000000E+00 -0.00000000000E+00 -0.45593999997E+02  0.45594000000E+02  0.51100000000E-03 0.  1.
    9900012    2    1    2    0    0 -0.87296201665E+01  0.31483253747E+02 -0.24202549000E+02  0.50528869256E+02  0.30000028592E+02 0.  0.
        -12    1    1    2    0    0  0.87296201665E+01 -0.31483253747E+02  0.24202549000E+02  0.40659130744E+02  0.00000000000E+00 0.  1.
         11    1    3    3    0    0  0.20481469990E+01  0.15916379389E+00  0.96886848358E+00  0.22713312489E+01  0.51100000000E-03 0.  1.
        -11    1    3    3    0    0 -0.13354950007E+02  0.94228688269E+01 -0.23332114683E+01  0.16510270217E+02  0.51100000000E-03 0. -1.
         12    1    3    3    0    0  0.25771828411E+01  0.21901221126E+02 -0.22838206015E+02  0.31747267791E+02  0.00000000000E+00 0. -1.
</event>
<event>
 7    1  0.6857839E-013  0.5052886E+02  0.7816164E-02  0.1300439E+00
        -11   -1    0    0    0    0  0.00000000000E+00  0.00000000000E+00  0.45593999997E+02  0.45594000000E+02  0.51100000000E-03 0. -1.
         11   -1    0    0    0    0 -0.00000000000E+00 -0.00000000000E+00 -0.45593999997E+02  0.45594000000E+02  0.51100000000E-03 0.  1.
    9900012    2    1    2    0    0  0.11280595555E+02  0.17503539647E+02  0.34921912057E+02  0.50528859847E+02  0.29999999991E+02 0.  0.
        -12    1    1    2    0    0 -0.11280595555E+02 -0.17503539647E+02 -0.34921912057E+02  0.40659140153E+02  0.00000000000E+00 0.  1.
         11    1    3    3    0    0 -0.45312246932E+01  0.10780945341E+01  0.24367839914E-01  0.46577761966E+01  0.51100000000E-03 0.  1.
        -11    1    3    3    0    0  0.71679521592E+01  0.11663375214E+02  0.33127554735E+02  0.35844786825E+02  0.51100000000E-03 0. -1.
         12    1    3    3    0    0  0.86438680890E+01  0.47620698993E+01  0.17699894818E+01  0.10026296825E+02  0.00000000000E+00 0. -1.
</event>
<event>
 7    1  0.6857839E-013  0.5052886E+02  0.7816164E-02  0.1300439E+00
        -11   -1    0    0    0    0  0.00000000000E+00  0.00000000000E+00  0.45593999997E+02  0.45594000000E+02  0.51100000000E-03 0. -1.
         11   -1    0    0    0    0 -0.00000000000E+00 -0.00000000000E+00 -0.45593999997E+02  0.45594000000E+02  0.51100000000E-03 0.  1.
    9900012    2    1    2    0    0  0.25676647040E+02 -0.27044349576E+02  0.16201185778E+02  0.50528862431E+02  0.30000007846E+02 0.  0.
        -12    1    1    2    0    0 -0.25676647040E+02  0.27044349576E+02 -0.16201185778E+02  0.40659137569E+02  0.00000000000E+00 0.  1.
         11    1    3    3    0    0  0.48787252919E+01 -0.12900627681E+02  0.19070221957E+01  0.13923537228E+02  0.51100000000E-03 0. -1.
        -11    1    3    3    0    0  0.42574007415E+01 -0.16346140255E+02  0.56402691631E+01  0.17808267709E+02  0.51100000000E-03 0.  1.
        -12    1    3    3    0    0  0.16540521006E+02  0.22024183600E+01  0.86538944192E+01  0.18797057493E+02  0.00000000000E+00 0.  1.
</event>
<event>
 7    1  0.6857839E-013  0.5052885E+02  0.7816164E-02  0.1300439E+00
        -11   -1    0    0    0    0  0.00000000000E+00  0.00000000000E+00  0.45593999997E+02  0.45594000000E+02  0.51100000000E-03 0. -1.
         11   -1    0    0    0    0 -0.00000000000E+00 -0.00000000000E+00 -0.45593999997E+02  0.45594000000E+02  0.51100000000E-03 0.  1.
    9900012    2    1    2    0    0 -0.29860948292E+02  0.16346727734E+02  0.22232286211E+02  0.50528852312E+02  0.29999977089E+02 0.  0.
        -12    1    1    2    0    0  0.29860948292E+02 -0.16346727734E+02 -0.22232286211E+02  0.40659147688E+02  0.00000000000E+00 0.  1.
         11    1    3    3    0    0 -0.23014933922E+02  0.75972358629E+01 -0.75550226056E+00  0.24248215607E+02  0.51100000000E-03 0. -1.
        -11    1    3    3    0    0  0.93699550646E+00  0.10430671889E+01  0.10203211105E+01  0.17340718466E+01  0.51100000000E-03 0.  1.
         12    1    3    3    0    0 -0.77830098769E+01  0.77064246824E+01  0.21967467361E+02  0.24546564859E+02  0.00000000000E+00 0. -1.
</event>
<event>
 7    1  0.6857839E-013  0.5052889E+02  0.7816164E-02  0.1300439E+00
        -11   -1    0    0    0    0  0.00000000000E+00  0.00000000000E+00  0.45593999997E+02  0.45594000000E+02  0.51100000000E-03 0.  1.
         11   -1    0    0    0    0 -0.00000000000E+00 -0.00000000000E+00 -0.45593999997E+02  0.45594000000E+02  0.51100000000E-03 0. -1.
    9900012    2    1    2    0    0  0.25462568296E+02 -0.12331550918E+02 -0.29201945118E+02  0.50528891168E+02  0.30000095195E+02 0.  0.
        -12    1    1    2    0    0 -0.25462568296E+02  0.12331550918E+02  0.29201945118E+02  0.40659108832E+02  0.00000000000E+00 0.  1.
         11    1    3    3    0    0  0.67640302817E+01 -0.94580413860E+01  0.11597227180E+01  0.11685529922E+02  0.51100000000E-03 0.  1.
        -11    1    3    3    0    0  0.46687042602E+01 -0.78916747770E+01 -0.94613133731E+01  0.13175423381E+02  0.51100000000E-03 0. -1.
        -12    1    3    3    0    0  0.14029833755E+02  0.50181652450E+01 -0.20900354463E+02  0.25667937866E+02  0.00000000000E+00 0.  1.
</event>
<event>
 7    1  0.6857839E-013  0.5052886E+02  0.7816164E-02  0.1300439E+00
        -11   -1    0    0    0    0  0.00000000000E+00  0.00000000000E+00  0.45593999997E+02  0.45594000000E+02  0.51100000000E-03 0.  1.
         11   -1    0    0    0    0 -0.00000000000E+00 -0.00000000000E+00 -0.45593999997E+02  0.45594000000E+02  0.51100000000E-03 0. -1.
    9900012    2    1    2    0    0  0.10916625483E+02 -0.34982532520E+02 -0.17612927519E+02  0.50528861922E+02  0.30000006297E+02 0.  0.
        -12    1    1    2    0    0 -0.10916625483E+02  0.34982532520E+02  0.17612927519E+02  0.40659138078E+02  0.00000000000E+00 0.  1.
         11    1    3    3    0    0  0.11648526983E+02 -0.14271642113E+02 -0.10805156221E+02  0.21356950876E+02  0.51100000000E-03 0. -1.
        -11    1    3    3    0    0 -0.33712657075E+01 -0.43061474497E+01 -0.10780099658E+02  0.12087964561E+02  0.51100000000E-03 0.  1.
         12    1    3    3    0    0  0.26393642076E+01 -0.16404742957E+02  0.39723283599E+01  0.17083946485E+02  0.00000000000E+00 0. -1.
</event>
<event>
 7    1  0.6857839E-013  0.5052893E+02  0.7816164E-02  0.1300439E+00
        -11   -1    0    0    0    0  0.00000000000E+00  0.00000000000E+00  0.45593999997E+02  0.45594000000E+02  0.51100000000E-03 0. -1.
         11   -1    0    0    0    0 -0.00000000000E+00 -0.00000000000E+00 -0.45593999997E+02  0.45594000000E+02  0.51100000000E-03 0.  1.
    9900012    2    1    2    0    0  0.37186740254E+02  0.26059313710E+01  0.16233160771E+02  0.50528929208E+02  0.30000210819E+02 0.  0.
        -12    1    1    2    0    0 -0.37186740254E+02 -0.26059313710E+01 -0.16233160771E+02  0.40659070792E+02  0.00000000000E+00 0.  1.
         11    1    3    3    0    0  0.30260757412E+02  0.79131623781E+01  0.10688076695E+02  0.33053994640E+02  0.51100000000E-03 0. -1.
        -11    1    3    3    0    0  0.27795549855E+01  0.46856930831E+01  0.34682886274E+01  0.64583799711E+01  0.51100000000E-03 0.  1.
         12    1    3    3    0    0  0.41464278571E+01 -0.99929240902E+01  0.20767954482E+01  0.11016554597E+02  0.00000000000E+00 0. -1.
</event>
<event>
 7    1  0.6857839E-013  0.5052886E+02  0.7816164E-02  0.1300439E+00
        -11   -1    0    0    0    0  0.00000000000E+00  0.00000000000E+00  0.45593999997E+02  0.45594000000E+02  0.51100000000E-03 0.  1.
         11   -1    0    0    0    0 -0.00000000000E+00 -0.00000000000E+00 -0.45593999997E+02  0.45594000000E+02  0.51100000000E-03 0. -1.
    9900012    2    1    2    0    0 -0.11491641252E+02 -0.34789562109E+02 -0.17629346118E+02  0.50528864557E+02  0.30000014308E+02 0.  0.
        -12    1    1    2    0    0  0.11491641252E+02  0.34789562109E+02  0.17629346118E+02  0.40659135443E+02  0.00000000000E+00 0.  1.
         11    1    3    3    0    0 -0.33813365233E+01 -0.18842443676E+01 -0.83228576880E+01  0.91789854492E+01  0.51100000000E-03 0. -1.
        -11    1    3    3    0    0 -0.36924263838E+01 -0.12163942035E+00  0.42222356133E+01  0.56103549427E+01  0.51100000000E-03 0.  1.
         12    1    3    3    0    0 -0.44178783448E+01 -0.32783678321E+02 -0.13528724043E+02  0.35739524165E+02  0.00000000000E+00 0. -1.
</event>
<event>
 7    1  0.6857839E-013  0.5052887E+02  0.7816164E-02  0.1300439E+00
        -11   -1    0    0    0    0  0.00000000000E+00  0.00000000000E+00  0.45593999997E+02  0.45594000000E+02  0.51100000000E-03 0.  1.
         11   -1    0    0    0    0 -0.00000000000E+00 -0.00000000000E+00 -0.45593999997E+02  0.45594000000E+02  0.51100000000E-03 0. -1.
    9900012    2    1    2    0    0  0.49703584567E+01  0.13234840736E+01 -0.40332475082E+02  0.50528872863E+02  0.30000039556E+02 0.  0.
        -12    1    1    2    0    0 -0.49703584567E+01 -0.13234840736E+01  0.40332475082E+02  0.40659127137E+02  0.00000000000E+00 0.  1.
         11    1    3    3    0    0  0.38159607102E+01  0.13523251390E+00 -0.22703870889E+02  0.23022719161E+02  0.51100000000E-03 0. -1.
        -11    1    3    3    0    0 -0.79523596204E+01  0.65029274946E+01 -0.64016534601E+01  0.12104100826E+02  0.51100000000E-03 0.  1.
         12    1    3    3    0    0  0.91067573670E+01 -0.53146759349E+01 -0.11226950733E+02  0.15402052876E+02  0.00000000000E+00 0. -1.
</event>
<event>
 7    1  0.6857839E-013  0.5052886E+02  0.7816164E-02  0.1300439E+00
        -11   -1    0    0    0    0  0.00000000000E+00  0.00000000000E+00  0.45593999997E+02  0.45594000000E+02  0.51100000000E-03 0.  1.
         11   -1    0    0    0    0 -0.00000000000E+00 -0.00000000000E+00 -0.45593999997E+02  0.45594000000E+02  0.51100000000E-03 0. -1.
    9900012    2    1    2    0    0 -0.24820675605E+01 -0.13278664732E+02 -0.38349473585E+02  0.50528859322E+02  0.29999998396E+02 0.  0.
        -12    1    1    2    0    0  0.24820675605E+01  0.13278664732E+02  0.38349473585E+02  0.40659140678E+02  0.00000000000E+00 0.  1.
         11    1    3    3    0    0 -0.93982967098E+01 -0.39538650326E+01 -0.17289509065E+02  0.20072073977E+02  0.51100000000E-03 0. -1.
        -11    1    3    3    0    0 -0.46063136385E+01 -0.48320405148E+01 -0.80446903876E+00  0.67241290565E+01  0.51100000000E-03 0.  1.
         12    1    3    3    0    0  0.11522542788E+02 -0.44927591842E+01 -0.20255495480E+02  0.23732656289E+02  0.00000000000E+00 0. -1.
</event>
<event>
 7    1  0.1345259E-012  0.5052886E+02  0.7816164E-02  0.1300439E+00
        -11   -1    0    0    0    0  0.00000000000E+00  0.00000000000E+00  0.45593999997E+02  0.45594000000E+02  0.51100000000E-03 0.  1.
         11   -1    0    0    0    0 -0.00000000000E+00 -0.00000000000E+00 -0.45593999997E+02  0.45594000000E+02  0.51100000000E-03 0. -1.
    9900012    2    1    2    0    0  0.31285966300E+02  0.23653391399E+02  0.10717791226E+02  0.50528860058E+02  0.30000000634E+02 0.  0.
        -12    1    1    2    0    0 -0.31285966300E+02 -0.23653391399E+02 -0.10717791226E+02  0.40659139942E+02  0.00000000000E+00 0.  1.
         11    1    3    3    0    0  0.24649502248E+02  0.20541667580E+02  0.10921940071E+02  0.33894643282E+02  0.51100000000E-03 0. -1.
        -11    1    3    3    0    0  0.13366778651E+01  0.59685071937E+01  0.55843765772E+01  0.82822127390E+01  0.51100000000E-03 0.  1.
        -12    1    3    3    0    0  0.52997861869E+01 -0.28567833749E+01 -0.57885254219E+01  0.83520040372E+01  0.00000000000E+00 0.  1.
</event>
<event>
 7    1  0.6857839E-013  0.5052885E+02  0.7816164E-02  0.1300439E+00
        -11   -1    0    0    0    0  0.00000000000E+00  0.00000000000E+00  0.45593999997E+02  0.45594000000E+02  0.51100000000E-03 0.  1.
         11   -1    0    0    0    0 -0.00000000000E+00 -0.00000000000E+00 -0.45593999997E+02  0.45594000000E+02  0.51100000000E-03 0. -1.
    9900012    2    1    2    0    0  0.16527889537E+02 -0.33714403805E+02 -0.15599167658E+02  0.50528853574E+02  0.29999980922E+02 0.  0.
        -12    1    1    2    0    0 -0.16527889537E+02  0.33714403805E+02  0.15599167658E+02  0.40659146426E+02  0.00000000000E+00 0.  1.
         11    1    3    3    0    0 -0.64987857208E+01 -0.93585750064E+01 -0.52484710146E+01  0.12544464526E+02  0.51100000000E-03 0. -1.
        -11    1    3    3    0    0  0.27578522937E+01 -0.17347331006E+01  0.33419603095E+01  0.46673062011E+01  0.51100000000E-03 0.  1.
         12    1    3    3    0    0  0.20268822964E+02 -0.22621095698E+02 -0.13692656953E+02  0.33317082846E+02  0.00000000000E+00 0. -1.
</event>
<event>
 7    1  0.6857839E-013  0.5052886E+02  0.7816164E-02  0.1300439E+00
        -11   -1    0    0    0    0  0.00000000000E+00  0.00000000000E+00  0.45593999997E+02  0.45594000000E+02  0.51100000000E-03 0.  1.
         11   -1    0    0    0    0 -0.00000000000E+00 -0.00000000000E+00 -0.45593999997E+02  0.45594000000E+02  0.51100000000E-03 0. -1.
    9900012    2    1    2    0    0  0.24433713733E+02 -0.17157173608E+02 -0.27600561503E+02  0.50528856277E+02  0.29999989138E+02 0.  0.
        -12    1    1    2    0    0 -0.24433713733E+02  0.17157173608E+02  0.27600561503E+02  0.40659143723E+02  0.00000000000E+00 0.  1.
         11    1    3    3    0    0  0.36810011343E+00  0.17008043019E+01 -0.14556670293E+02  0.14660316615E+02  0.51100000000E-03 0. -1.
        -11    1    3    3    0    0 -0.36734259546E+00 -0.37465202425E+01  0.99433489532E+00  0.38935917422E+01  0.51100000000E-03 0.  1.
        -12    1    3    3    0    0  0.24432956215E+02 -0.15111457667E+02 -0.14038226105E+02  0.31974947919E+02  0.00000000000E+00 0.  1.
</event>
<event>
 7    1  0.6857839E-013  0.5052899E+02  0.7816164E-02  0.1300438E+00
        -11   -1    0    0    0    0  0.00000000000E+00  0.00000000000E+00  0.45593999997E+02  0.45594000000E+02  0.51100000000E-03 0. -1.
         11   -1    0    0    0    0 -0.00000000000E+00 -0.00000000000E+00 -0.45593999997E+02  0.45594000000E+02  0.51100000000E-03 0.  1.
    9900012    2    1    2    0    0 -0.78637833791E+01  0.35731487323E+02 -0.17736314971E+02  0.50528989386E+02  0.30000393735E+02 0.  0.
        -12    1    1    2    0    0  0.78637833791E+01 -0.35731487323E+02  0.17736314971E+02  0.40659010614E+02  0.00000000000E+00 0.  1.
         11    1    3    3    0    0 -0.62180595940E+01  0.27111536984E+02 -0.20311740176E+02  0.34442219615E+02  0.51100000000E-03 0. -1.
        -11    1    3    3    0    0 -0.14989846578E+01 -0.21399286059E+01 -0.29909868551E+01  0.39714294745E+01  0.51100000000E-03 0.  1.
         12    1    3    3    0    0 -0.14673912736E+00  0.10759878945E+02  0.55664120599E+01  0.12115340297E+02  0.00000000000E+00 0. -1.
</event>
<event>
 7    1  0.6857839E-013  0.5052884E+02  0.7816164E-02  0.1300439E+00
        -11   -1    0    0    0    0  0.00000000000E+00  0.00000000000E+00  0.45593999997E+02  0.45594000000E+02  0.51100000000E-03 0. -1.
         11   -1    0    0    0    0 -0.00000000000E+00 -0.00000000000E+00 -0.45593999997E+02  0.45594000000E+02  0.51100000000E-03 0.  1.
    9900012    2    1    2    0    0 -0.72281899027E+01  0.35865518833E+02  0.17736547389E+02  0.50528840100E+02  0.29999939969E+02 0.  0.
        -12    1    1    2    0    0  0.72281899027E+01 -0.35865518833E+02 -0.17736547389E+02  0.40659159900E+02  0.00000000000E+00 0.  1.
         11    1    3    3    0    0  0.23798918479E+01  0.51311824690E+01  0.13244855820E+02  0.14402052794E+02  0.51100000000E-03 0.  1.
        -11    1    3    3    0    0  0.37361682663E+01  0.96860671558E+01 -0.15141166094E+01  0.10491491773E+02  0.51100000000E-03 0. -1.
        -12    1    3    3    0    0 -0.13344250017E+02  0.21048269208E+02  0.60058081791E+01  0.25635295533E+02  0.00000000000E+00 0.  1.
</event>
<event>
 7    1  0.7095249E-013  0.5052893E+02  0.7816164E-02  0.1300439E+00
        -11   -1    0    0    0    0  0.00000000000E+00  0.00000000000E+00  0.45593999997E+02  0.45594000000E+02  0.51100000000E-03 0. -1.
         11   -1    0    0    0    0 -0.00000000000E+00 -0.00000000000E+00 -0.45593999997E+02  0.45594000000E+02  0.51100000000E-03 0.  1.
    9900012    2    1    2    0    0 -0.87093670922E+01 -0.19039859935E+00  0.39714870603E+02  0.50528926305E+02  0.30000201995E+02 0.  0.
        -12    1    1    2    0    0  0.87093670922E+01  0.19039859935E+00 -0.39714870603E+02  0.40659073695E+02  0.00000000000E+00 0.  1.
         11    1    3    3    0    0  0.43500120463E+01  0.11437570661E+01  0.12788757239E+02  0.13556662458E+02  0.51100000000E-03 0. -1.
        -11    1    3    3    0    0 -0.12992460670E+01  0.42129242069E+01 -0.23084199903E+01  0.49765021680E+01  0.51100000000E-03 0.  1.
         12    1    3    3    0    0 -0.11760133071E+02 -0.55470798723E+01  0.29234533354E+02  0.31995761679E+02  0.00000000000E+00 0. -1.
</event>
<event>
 7    1  0.6857839E-013  0.5052886E+02  0.7816164E-02  0.1300439E+00
        -11   -1    0    0    0    0  0.00000000000E+00  0.00000000000E+00  0.45593999997E+02  0.45594000000E+02  0.51100000000E-03 0.  1.
         11   -1    0    0    0    0 -0.00000000000E+00 -0.00000000000E+00 -0.45593999997E+02  0.45594000000E+02  0.51100000000E-03 0. -1.
    9900012    2    1    2    0    0  0.10821176496E+02  0.39169249056E+02  0.13555727560E+01  0.50528861914E+02  0.30000006275E+02 0.  0.
        -12    1    1    2    0    0 -0.10821176496E+02 -0.39169249056E+02 -0.13555727560E+01  0.40659138086E+02  0.00000000000E+00 0.  1.
         11    1    3    3    0    0 -0.36243479894E+01  0.14827053077E+02  0.72222695754E+00  0.15280674505E+02  0.51100000000E-03 0. -1.
        -11    1    3    3    0    0  0.44311913860E+01  0.10874544713E+02  0.10523311535E+02  0.15768045717E+02  0.51100000000E-03 0.  1.
        -12    1    3    3    0    0  0.10014333099E+02  0.13467651267E+02 -0.98899657370E+01  0.19480141692E+02  0.00000000000E+00 0.  1.
</event>
<event>
 7    1  0.6857839E-013  0.5052886E+02  0.7816164E-02  0.1300439E+00
        -11   -1    0    0    0    0  0.00000000000E+00  0.00000000000E+00  0.45593999997E+02  0.45594000000E+02  0.51100000000E-03 0.  1.
         11   -1    0    0    0    0 -0.00000000000E+00 -0.00000000000E+00 -0.45593999997E+02  0.45594000000E+02  0.51100000000E-03 0. -1.
    9900012    2    1    2    0    0  0.19778652650E+02  0.43451825757E+01 -0.35257479799E+02  0.50528860879E+02  0.30000003127E+02 0.  0.
        -12    1    1    2    0    0 -0.19778652650E+02 -0.43451825757E+01  0.35257479799E+02  0.40659139121E+02  0.00000000000E+00 0.  1.
         11    1    3    3    0    0  0.74396586132E+01  0.46022265942E+00 -0.67719295807E+01  0.10070717734E+02  0.51100000000E-03 0. -1.
        -11    1    3    3    0    0  0.19753260204E+02  0.61227237009E+01 -0.23213924926E+02  0.31089634043E+02  0.51100000000E-03 0.  1.
         12    1    3    3    0    0 -0.74142661674E+01 -0.22377637845E+01 -0.52716252928E+01  0.93685091014E+01  0.00000000000E+00 0. -1.
</event>
<event>
 7    1  0.6857839E-013  0.5052886E+02  0.7816164E-02  0.1300439E+00
        -11   -1    0    0    0    0  0.00000000000E+00  0.00000000000E+00  0.45593999997E+02  0.45594000000E+02  0.51100000000E-03 0.  1.
         11   -1    0    0    0    0 -0.00000000000E+00 -0.00000000000E+00 -0.45593999997E+02  0.45594000000E+02  0.51100000000E-03 0. -1.
    9900012    2    1    2    0    0 -0.14864548838E+02  0.30726945395E+00 -0.37843312983E+02  0.50528861246E+02  0.30000004244E+02 0.  0.
        -12    1    1    2    0    0  0.14864548838E+02 -0.30726945395E+00  0.37843312983E+02  0.40659138754E+02  0.00000000000E+00 0.  1.
         11    1    3    3    0    0  0.64917233344E+01  0.53262681438E+00 -0.96194879653E+01  0.11617259236E+02  0.51100000000E-03 0. -1.
        -11    1    3    3    0    0 -0.15421462827E+02  0.60513444138E+01 -0.11749333366E+02  0.20309778919E+02  0.51100000000E-03 0.  1.
         12    1    3    3    0    0 -0.59348093457E+01 -0.62767017743E+01 -0.16474491652E+02  0.18601823091E+02  0.00000000000E+00 0. -1.
</event>
<event>
 7    1  0.6857839E-013  0.5052887E+02  0.7816164E-02  0.1300439E+00
        -11   -1    0    0    0    0  0.00000000000E+00  0.00000000000E+00  0.45593999997E+02  0.45594000000E+02  0.51100000000E-03 0.  1.
         11   -1    0    0    0    0 -0.00000000000E+00 -0.00000000000E+00 -0.45593999997E+02  0.45594000000E+02  0.51100000000E-03 0. -1.
    9900012    2    1    2    0    0 -0.23990397235E+02 -0.17205554682E+02 -0.27957008313E+02  0.50528873285E+02  0.30000040838E+02 0.  0.
        -12    1    1    2    0    0  0.23990397235E+02  0.17205554682E+02  0.27957008313E+02  0.40659126715E+02  0.00000000000E+00 0.  1.
         11    1    3    3    0    0 -0.10739892464E+02 -0.10952177115E+02 -0.95756648205E+01  0.18082832486E+02  0.51100000000E-03 0.  1.
        -11    1    3    3    0    0 -0.11355450477E+02  0.69395954276E+01 -0.10590056711E+02  0.17007455472E+02  0.51100000000E-03 0. -1.
         12    1    3    3    0    0 -0.18950542942E+01 -0.13192972994E+02 -0.77912867817E+01  0.15438585327E+02  0.00000000000E+00 0. -1.
</event>
<event>
 7    1  0.6857839E-013  0.5052886E+02  0.7816164E-02  0.1300439E+00
        -11   -1    0    0    0    0  0.00000000000E+00  0.00000000000E+00  0.45593999997E+02  0.45594000000E+02  0.51100000000E-03 0.  1.
         11   -1    0    0    0    0 -0.00000000000E+00 -0.00000000000E+00 -0.45593999997E+02  0.45594000000E+02  0.51100000000E-03 0. -1.
    9900012    2    1    2    0    0 -0.31041795268E+02 -0.25960068092E+02  0.39556895181E+01  0.50528859965E+02  0.30000000351E+02 0.  0.
        -12    1    1    2    0    0  0.31041795268E+02  0.25960068092E+02 -0.39556895181E+01  0.40659140035E+02  0.00000000000E+00 0.  1.
         11    1    3    3    0    0 -0.10279195458E+02 -0.32066218078E+01 -0.67532222316E+01  0.12710243642E+02  0.51100000000E-03 0. -1.
        -11    1    3    3    0    0  0.78249457132E+00  0.27608685404E+01  0.64923157711E+00  0.29421411852E+01  0.51100000000E-03 0.  1.
        -12    1    3    3    0    0 -0.21545094382E+02 -0.25514314824E+02  0.10059680173E+02  0.34876475138E+02  0.00000000000E+00 0.  1.
</event>
<event>
 7    1  0.6857839E-013  0.5052885E+02  0.7816164E-02  0.1300439E+00
        -11   -1    0    0    0    0  0.00000000000E+00  0.00000000000E+00  0.45593999997E+02  0.45594000000E+02  0.51100000000E-03 0. -1.
         11   -1    0    0    0    0 -0.00000000000E+00 -0.00000000000E+00 -0.45593999997E+02  0.45594000000E+02  0.51100000000E-03 0.  1.
    9900012    2    1    2    0    0  0.43554707906E+01 -0.29587182387E+02 -0.27546231202E+02  0.50528851696E+02  0.29999975215E+02 0.  0.
        -12    1    1    2    0    0 -0.43554707906E+01  0.29587182387E+02  0.27546231202E+02  0.40659148304E+02  0.00000000000E+00 0.  1.
         11    1    3    3    0    0 -0.14245058502E+01 -0.17693162903E+02 -0.58577621418E+01  0.18691993153E+02  0.51100000000E-03 0. -1.
        -11    1    3    3    0    0  0.32453214488E+01 -0.16613327024E+02 -0.20039371604E+02  0.26231872992E+02  0.51100000000E-03 0.  1.
         12    1    3    3    0    0  0.25346551920E+01  0.47193075412E+01 -0.16490974558E+01  0.56049855512E+01  0.00000000000E+00 0. -1.
</event>
<event>
 7    1  0.6857839E-013  0.5052885E+02  0.7816164E-02  0.1300439E+00
        -11   -1    0    0    0    0  0.00000000000E+00  0.00000000000E+00  0.45593999997E+02  0.45594000000E+02  0.51100000000E-03 0. -1.
         11   -1    0    0    0    0 -0.00000000000E+00 -0.00000000000E+00 -0.45593999997E+02  0.45594000000E+02  0.51100000000E-03 0.  1.
    9900012    2    1    2    0    0  0.10073866424E+02  0.82580420289E+01  0.38516080808E+02  0.50528849447E+02  0.29999968379E+02 0.  0.
        -12    1    1    2    0    0 -0.10073866424E+02 -0.82580420289E+01 -0.38516080808E+02  0.40659150553E+02  0.00000000000E+00 0.  1.
         11    1    3    3    0    0  0.37941410759E+01  0.33660291596E+01 -0.37819435513E+01  0.63268282807E+01  0.51100000000E-03 0.  1.
        -11    1    3    3    0    0  0.33509918872E+01 -0.28238772403E+01  0.11179552920E+02  0.12007740547E+02  0.51100000000E-03 0. -1.
         12    1    3    3    0    0  0.29287334606E+01  0.77158901096E+01  0.31118471439E+02  0.32194280619E+02  0.00000000000E+00 0. -1.
</event>
<event>
 7    1  0.6857839E-013  0.5052886E+02  0.7816164E-02  0.1300439E+00
        -11   -1    0    0    0    0  0.00000000000E+00  0.00000000000E+00  0.45593999997E+02  0.45594000000E+02  0.51100000000E-03 0.  1.
         11   -1    0    0    0    0 -0.00000000000E+00 -0.00000000000E+00 -0.45593999997E+02  0.45594000000E+02  0.51100000000E-03 0. -1.
    9900012    2    1    2    0    0 -0.26171853836E+02  0.75030096679E+01 -0.30197762809E+02  0.50528856305E+02  0.29999989226E+02 0.  0.
        -12    1    1    2    0    0  0.26171853836E+02 -0.75030096679E+01  0.30197762809E+02  0.40659143695E+02  0.00000000000E+00 0.  1.
         11    1    3    3    0    0 -0.27159499140E+02 -0.18480349681E+01 -0.26368736363E+02  0.37899391610E+02  0.51100000000E-03 0. -1.
        -11    1    3    3    0    0 -0.51738073372E+00 -0.10949029184E+00  0.15537191989E+01  0.16412539590E+01  0.51100000000E-03 0.  1.
        -12    1    3    3    0    0  0.15050260379E+01  0.94605349278E+01 -0.53827456453E+01  0.10988210736E+02  0.00000000000E+00 0.  1.
</event>
<event>
 7    1  0.6857839E-013  0.5052886E+02  0.7816164E-02  0.1300439E+00
        -11   -1    0    0    0    0  0.00000000000E+00  0.00000000000E+00  0.45593999997E+02  0.45594000000E+02  0.51100000000E-03 0. -1.
         11   -1    0    0    0    0 -0.00000000000E+00 -0.00000000000E+00 -0.45593999997E+02  0.45594000000E+02  0.51100000000E-03 0.  1.
    9900012    2    1    2    0    0 -0.26111714960E+02 -0.29474446769E+02 -0.10129205124E+02  0.50528862442E+02  0.30000007880E+02 0.  0.
        -12    1    1    2    0    0  0.26111714960E+02  0.29474446769E+02  0.10129205124E+02  0.40659137558E+02  0.00000000000E+00 0.  1.
         11    1    3    3    0    0 -0.12980422562E+02 -0.85451491138E+01  0.65544122169E+01  0.16866275909E+02  0.51100000000E-03 0.  1.
        -11    1    3    3    0    0 -0.66974602040E+01 -0.20510461339E+02 -0.83723488796E+01  0.23143708077E+02  0.51100000000E-03 0. -1.
        -12    1    3    3    0    0 -0.64338321938E+01 -0.41883631636E+00 -0.83112684608E+01  0.10518878457E+02  0.00000000000E+00 0.  1.
</event>
<event>
 7    1  0.6857839E-013  0.5052888E+02  0.7816164E-02  0.1300439E+00
        -11   -1    0    0    0    0  0.00000000000E+00  0.00000000000E+00  0.45593999997E+02  0.45594000000E+02  0.51100000000E-03 0. -1.
         11   -1    0    0    0    0 -0.00000000000E+00 -0.00000000000E+00 -0.45593999997E+02  0.45594000000E+02  0.51100000000E-03 0.  1.
    9900012    2    1    2    0    0  0.71345427559E+01 -0.39388195508E+02  0.71296797024E+01  0.50528880747E+02  0.30000063519E+02 0.  0.
        -12    1    1    2    0    0 -0.71345427559E+01  0.39388195508E+02 -0.71296797024E+01  0.40659119253E+02  0.00000000000E+00 0.  1.
         11    1    3    3    0    0  0.70018663425E+01 -0.23373132607E+02 -0.37778663824E+01  0.24690114111E+02  0.51100000000E-03 0. -1.
        -11    1    3    3    0    0  0.26096804957E+01 -0.19080675610E+02  0.76371982171E+01  0.20717369787E+02  0.51100000000E-03 0.  1.
        -12    1    3    3    0    0 -0.24770040823E+01  0.30656127092E+01  0.32703478676E+01  0.51213968487E+01  0.00000000000E+00 0.  1.
</event>
<event>
 7    1  0.6857839E-013  0.5052888E+02  0.7816164E-02  0.1300439E+00
        -11   -1    0    0    0    0  0.00000000000E+00  0.00000000000E+00  0.45593999997E+02  0.45594000000E+02  0.51100000000E-03 0.  1.
         11   -1    0    0    0    0 -0.00000000000E+00 -0.00000000000E+00 -0.45593999997E+02  0.45594000000E+02  0.51100000000E-03 0. -1.
    9900012    2    1    2    0    0 -0.35428080884E+02 -0.17235702505E+02  0.10047186775E+02  0.50528876570E+02  0.30000050822E+02 0.  0.
        -12    1    1    2    0    0  0.35428080884E+02  0.17235702505E+02 -0.10047186775E+02  0.40659123430E+02  0.00000000000E+00 0.  1.
         11    1    3    3    0    0 -0.26163371786E+02 -0.13289970205E+02  0.11572250285E+01  0.29368086443E+02  0.51100000000E-03 0. -1.
        -11    1    3    3    0    0 -0.49575409764E+01  0.49207897025E+01 -0.11631939198E+01  0.70812713678E+01  0.51100000000E-03 0.  1.
         12    1    3    3    0    0 -0.43071681218E+01 -0.88665220029E+01  0.10053155666E+02  0.14079518760E+02  0.00000000000E+00 0. -1.
</event>
<event>
 7    1  0.6857839E-013  0.5052885E+02  0.7816164E-02  0.1300439E+00
        -11   -1    0    0    0    0  0.00000000000E+00  0.00000000000E+00  0.45593999997E+02  0.45594000000E+02  0.51100000000E-03 0.  1.
         11   -1    0    0    0    0 -0.00000000000E+00 -0.00000000000E+00 -0.45593999997E+02  0.45594000000E+02  0.51100000000E-03 0. -1.
    9900012    2    1    2    0    0  0.63752636866E+01  0.39661294805E+02 -0.62852049006E+01  0.50528854739E+02  0.29999984465E+02 0.  0.
        -12    1    1    2    0    0 -0.63752636866E+01 -0.39661294805E+02  0.62852049006E+01  0.40659145261E+02  0.00000000000E+00 0.  1.
         11    1    3    3    0    0 -0.26404658819E-02  0.19099782439E+02  0.88298832624E+00  0.19120182134E+02  0.51100000000E-03 0. -1.
        -11    1    3    3    0    0  0.27790458977E+01  0.82787223118E+01  0.78037757917E+01  0.11711501018E+02  0.51100000000E-03 0.  1.
         12    1    3    3    0    0  0.35988582548E+01  0.12282790054E+02 -0.14971969018E+02  0.19697171587E+02  0.00000000000E+00 0. -1.
</event>
<event>
 7    1  0.6857839E-013  0.5052886E+02  0.7816164E-02  0.1300439E+00
        -11   -1    0    0    0    0  0.00000000000E+00  0.00000000000E+00  0.45593999997E+02  0.45594000000E+02  0.51100000000E-03 0.  1.
         11   -1    0    0    0    0 -0.00000000000E+00 -0.00000000000E+00 -0.45593999997E+02  0.45594000000E+02  0.51100000000E-03 0. -1.
    9900012    2    1    2    0    0  0.16310473263E+02  0.63467728310E+01 -0.36699489849E+02  0.50528860577E+02  0.30000002211E+02 0.  0.
        -12    1    1    2    0    0 -0.16310473263E+02 -0.63467728310E+01  0.36699489849E+02  0.40659139423E+02  0.00000000000E+00 0.  1.
         11    1    3    3    0    0  0.10074679645E+01 -0.70596326898E+00 -0.47997810767E+01  0.49549242660E+01  0.51100000000E-03 0. -1.
        -11    1    3    3    0    0  0.14909702218E+02  0.28236099163E+01 -0.19209827183E+01  0.15295821915E+02  0.51100000000E-03 0.  1.
         12    1    3    3    0    0  0.39330308042E+00  0.42291261837E+01 -0.29978726054E+02  0.30278114396E+02  0.00000000000E+00 0. -1.
</event>
<event>
 7    1  0.6857839E-013  0.5052886E+02  0.7816164E-02  0.1300439E+00
        -11   -1    0    0    0    0  0.00000000000E+00  0.00000000000E+00  0.45593999997E+02  0.45594000000E+02  0.51100000000E-03 0.  1.
         11   -1    0    0    0    0 -0.00000000000E+00 -0.00000000000E+00 -0.45593999997E+02  0.45594000000E+02  0.51100000000E-03 0. -1.
    9900012    2    1    2    0    0 -0.14982067728E+02  0.22779042623E+02 -0.30163203998E+02  0.50528855744E+02  0.29999987519E+02 0.  0.
        -12    1    1    2    0    0  0.14982067728E+02 -0.22779042623E+02  0.30163203998E+02  0.40659144256E+02  0.00000000000E+00 0.  1.
         11    1    3    3    0    0 -0.96697586747E+00  0.14591891784E+02 -0.16221222804E+02  0.21840018720E+02  0.51100000000E-03 0. -1.
        -11    1    3    3    0    0  0.82001637036E+00 -0.11348561394E+01 -0.10797686205E+02  0.10888083070E+02  0.51100000000E-03 0.  1.
        -12    1    3    3    0    0 -0.14835108231E+02  0.93220069786E+01 -0.31442949887E+01  0.17800753954E+02  0.00000000000E+00 0.  1.
</event>
<event>
 7    1  0.6857839E-013  0.5052885E+02  0.7816164E-02  0.1300439E+00
        -11   -1    0    0    0    0  0.00000000000E+00  0.00000000000E+00  0.45593999997E+02  0.45594000000E+02  0.51100000000E-03 0. -1.
         11   -1    0    0    0    0 -0.00000000000E+00 -0.00000000000E+00 -0.45593999997E+02  0.45594000000E+02  0.51100000000E-03 0.  1.
    9900012    2    1    2    0    0 -0.19589573383E+02  0.22221817726E+02  0.27849697738E+02  0.50528853028E+02  0.29999979265E+02 0.  0.
        -12    1    1    2    0    0  0.19589573383E+02 -0.22221817726E+02 -0.27849697738E+02  0.40659146972E+02  0.00000000000E+00 0.  1.
         11    1    3    3    0    0 -0.26378988905E+01 -0.35436430323E+01  0.36630706509E+01  0.57388155007E+01  0.51100000000E-03 0.  1.
        -11    1    3    3    0    0 -0.55625805082E+01  0.16979035654E+02  0.24595052589E+02  0.30399779042E+02  0.51100000000E-03 0. -1.
        -12    1    3    3    0    0 -0.11389093984E+02  0.87864251048E+01 -0.40842550259E+00  0.14390258486E+02  0.00000000000E+00 0.  1.
</event>
<event>
 7    1  0.6857839E-013  0.5052887E+02  0.7816164E-02  0.1300439E+00
        -11   -1    0    0    0    0  0.00000000000E+00  0.00000000000E+00  0.45593999997E+02  0.45594000000E+02  0.51100000000E-03 0.  1.
         11   -1    0    0    0    0 -0.00000000000E+00 -0.00000000000E+00 -0.45593999997E+02  0.45594000000E+02  0.51100000000E-03 0. -1.
    9900012    2    1    2    0    0  0.85908800930E+01 -0.84264611764E+01 -0.38837560111E+02  0.50528873791E+02  0.30000042374E+02 0.  0.
        -12    1    1    2    0    0 -0.85908800930E+01  0.84264611764E+01  0.38837560111E+02  0.40659126209E+02  0.00000000000E+00 0.  1.
         11    1    3    3    0    0  0.40511168637E+01  0.41061625479E+01 -0.96088407108E+01  0.11207227078E+02  0.51100000000E-03 0. -1.
        -11    1    3    3    0    0  0.22649831410E+01 -0.99927862299E+01 -0.36032470898E+00  0.10252597691E+02  0.51100000000E-03 0.  1.
         12    1    3    3    0    0  0.22747800883E+01 -0.25398374945E+01 -0.28868394691E+02  0.29069049021E+02  0.00000000000E+00 0. -1.
</event>
<event>
 7    1  0.6857839E-013  0.5052886E+02  0.7816164E-02  0.1300439E+00
        -11   -1    0    0    0    0  0.00000000000E+00  0.00000000000E+00  0.45593999997E+02  0.45594000000E+02  0.51100000000E-03 0.  1.
         11   -1    0    0    0    0 -0.00000000000E+00 -0.00000000000E+00 -0.45593999997E+02  0.45594000000E+02  0.51100000000E-03 0. -1.
    9900012    2    1    2    0    0 -0.78580221305E-01 -0.36372479102E+02 -0.18171473672E+02  0.50528857531E+02  0.29999992951E+02 0.  0.
        -12    1    1    2    0    0  0.78580221305E-01  0.36372479102E+02  0.18171473672E+02  0.40659142469E+02  0.00000000000E+00 0.  1.
         11    1    3    3    0    0  0.53818373723E+01 -0.48079859118E+01  0.64332713812E+01  0.96678789274E+01  0.51100000000E-03 0. -1.
        -11    1    3    3    0    0  0.35292697645E+00 -0.66127152236E+01 -0.26928520813E+01  0.71487070629E+01  0.51100000000E-03 0.  1.
         12    1    3    3    0    0 -0.58133445701E+01 -0.24951777967E+02 -0.21911892972E+02  0.33712271541E+02  0.00000000000E+00 0. -1.
</event>
<event>
 7    1  0.6857839E-013  0.5052885E+02  0.7816164E-02  0.1300439E+00
        -11   -1    0    0    0    0  0.00000000000E+00  0.00000000000E+00  0.45593999997E+02  0.45594000000E+02  0.51100000000E-03 0. -1.
         11   -1    0    0    0    0 -0.00000000000E+00 -0.00000000000E+00 -0.45593999997E+02  0.45594000000E+02  0.51100000000E-03 0.  1.
    9900012    2    1    2    0    0 -0.25491329102E+02 -0.20245887226E+02  0.24361086347E+02  0.50528851743E+02  0.29999975359E+02 0.  0.
        -12    1    1    2    0    0  0.25491329102E+02  0.20245887226E+02 -0.24361086347E+02  0.40659148257E+02  0.00000000000E+00 0.  1.
         11    1    3    3    0    0 -0.21597417333E+02 -0.19701073814E+02  0.14195722066E+02  0.32497680996E+02  0.51100000000E-03 0. -1.
        -11    1    3    3    0    0 -0.84319345159E+01 -0.40065407346E+00  0.19794549583E+01  0.86704259158E+01  0.51100000000E-03 0.  1.
        -12    1    3    3    0    0  0.45380227469E+01 -0.14415933847E+00  0.81859093230E+01  0.93607448320E+01  0.00000000000E+00 0.  1.
</event>
<event>
 7    1  0.6857839E-013  0.5052888E+02  0.7816164E-02  0.1300439E+00
        -11   -1    0    0    0    0  0.00000000000E+00  0.00000000000E+00  0.45593999997E+02  0.45594000000E+02  0.51100000000E-03 0.  1.
         11   -1    0    0    0    0 -0.00000000000E+00 -0.00000000000E+00 -0.45593999997E+02  0.45594000000E+02  0.51100000000E-03 0. -1.
    9900012    2    1    2    0    0 -0.83895699385E+01 -0.39607725653E+02  0.37426487394E+01  0.50528877595E+02  0.30000053938E+02 0.  0.
        -12    1    1    2    0    0  0.83895699385E+01  0.39607725653E+02 -0.37426487394E+01  0.40659122405E+02  0.00000000000E+00 0.  1.
         11    1    3    3    0    0 -0.11718035671E+02 -0.10480682198E+02  0.35368066029E+01  0.16114157146E+02  0.51100000000E-03 0.  1.
        -11    1    3    3    0    0 -0.34704003319E+01 -0.20533082462E+02  0.64526566939E+01  0.21801099342E+02  0.51100000000E-03 0. -1.
         12    1    3    3    0    0  0.67988660645E+01 -0.85939609927E+01 -0.62468145574E+01  0.12613621107E+02  0.00000000000E+00 0. -1.
</event>
<event>
 7    1  0.6857839E-013  0.5052886E+02  0.7816164E-02  0.1300439E+00
        -11   -1    0    0    0    0  0.00000000000E+00  0.00000000000E+00  0.45593999997E+02  0.45594000000E+02  0.51100000000E-03 0.  1.
         11   -1    0    0    0    0 -0.00000000000E+00 -0.00000000000E+00 -0.45593999997E+02  0.45594000000E+02  0.51100000000E-03 0. -1.
    9900012    2    1    2    0    0 -0.39013779453E+02 -0.69864046108E+00 -0.11428150213E+02  0.50528859540E+02  0.29999999057E+02 0.  0.
        -12    1    1    2    0    0  0.39013779453E+02  0.69864046108E+00  0.11428150213E+02  0.40659140460E+02  0.00000000000E+00 0.  1.
         11    1    3    3    0    0 -0.42032152602E+01  0.22445368205E+01  0.95502577452E-01  0.47659296119E+01  0.51100000000E-03 0. -1.
        -11    1    3    3    0    0 -0.16042738002E+02  0.46325586384E+01  0.72064189583E+01  0.18186877594E+02  0.51100000000E-03 0.  1.
         12    1    3    3    0    0 -0.18767826190E+02 -0.75757359200E+01 -0.18730071748E+02  0.27576052334E+02  0.00000000000E+00 0. -1.
</event>
<event>
 7    1  0.6857839E-013  0.5052887E+02  0.7816164E-02  0.1300439E+00
        -11   -1    0    0    0    0  0.00000000000E+00  0.00000000000E+00  0.45593999997E+02  0.45594000000E+02  0.51100000000E-03 0.  1.
         11   -1    0    0    0    0 -0.00000000000E+00 -0.00000000000E+00 -0.45593999997E+02  0.45594000000E+02  0.51100000000E-03 0. -1.
    9900012    2    1    2    0    0 -0.33955587429E+01  0.32950447011E+02 -0.23577600906E+02  0.50528867669E+02  0.30000023767E+02 0.  0.
        -12    1    1    2    0    0  0.33955587429E+01 -0.32950447011E+02  0.23577600906E+02  0.40659132331E+02  0.00000000000E+00 0.  1.
         11    1    3    3    0    0  0.80707387442E+00  0.27315670823E+02 -0.12578752980E+02  0.30083588010E+02  0.51100000000E-03 0. -1.
        -11    1    3    3    0    0  0.54795834141E+01  0.43496048958E+01 -0.22954993194E+01  0.73630302545E+01  0.51100000000E-03 0.  1.
         12    1    3    3    0    0 -0.96822160315E+01  0.12851712924E+01 -0.87033486062E+01  0.13082249405E+02  0.00000000000E+00 0. -1.
</event>
<event>
 7    1  0.6857839E-013  0.5052887E+02  0.7816164E-02  0.1300439E+00
        -11   -1    0    0    0    0  0.00000000000E+00  0.00000000000E+00  0.45593999997E+02  0.45594000000E+02  0.51100000000E-03 0. -1.
         11   -1    0    0    0    0 -0.00000000000E+00 -0.00000000000E+00 -0.45593999997E+02  0.45594000000E+02  0.51100000000E-03 0.  1.
    9900012    2    1    2    0    0 -0.11899551968E+02  0.17746488869E+02  0.34592311930E+02  0.50528865124E+02  0.30000016030E+02 0.  0.
        -12    1    1    2    0    0  0.11899551968E+02 -0.17746488869E+02 -0.34592311930E+02  0.40659134876E+02  0.00000000000E+00 0.  1.
         11    1    3    3    0    0 -0.55186331685E+01 -0.59700804000E+01  0.43948053441E+01  0.92418334926E+01  0.51100000000E-03 0. -1.
        -11    1    3    3    0    0  0.27437535445E+01  0.44869333110E+01  0.13369762006E+01  0.54266250720E+01  0.51100000000E-03 0.  1.
         12    1    3    3    0    0 -0.91246723437E+01  0.19229635957E+02  0.28860530386E+02  0.35860406559E+02  0.00000000000E+00 0. -1.
</event>
<event>
 7    1  0.6857839E-013  0.5052887E+02  0.7816164E-02  0.1300439E+00
        -11   -1    0    0    0    0  0.00000000000E+00  0.00000000000E+00  0.45593999997E+02  0.45594000000E+02  0.51100000000E-03 0. -1.
         11   -1    0    0    0    0 -0.00000000000E+00 -0.00000000000E+00 -0.45593999997E+02  0.45594000000E+02  0.51100000000E-03 0.  1.
    9900012    2    1    2    0    0  0.48949979847E+01  0.39360054565E+02 -0.89436990857E+01  0.50528872440E+02  0.30000038269E+02 0.  0.
        -12    1    1    2    0    0 -0.48949979847E+01 -0.39360054565E+02  0.89436990857E+01  0.40659127560E+02  0.00000000000E+00 0.  1.
         11    1    3    3    0    0  0.70457318548E+01  0.75757983252E+01  0.52871112547E+01  0.11618459593E+02  0.51100000000E-03 0.  1.
        -11    1    3    3    0    0  0.74133669668E+01  0.17121113126E+02 -0.63100579908E+01  0.19695363834E+02  0.51100000000E-03 0. -1.
        -12    1    3    3    0    0 -0.95641008369E+01  0.14663143114E+02 -0.79207523496E+01  0.19215049013E+02  0.00000000000E+00 0.  1.
</event>
<event>
 7    1  0.6857839E-013  0.5052884E+02  0.7816164E-02  0.1300439E+00
        -11   -1    0    0    0    0  0.00000000000E+00  0.00000000000E+00  0.45593999997E+02  0.45594000000E+02  0.51100000000E-03 0.  1.
         11   -1    0    0    0    0 -0.00000000000E+00 -0.00000000000E+00 -0.45593999997E+02  0.45594000000E+02  0.51100000000E-03 0. -1.
    9900012    2    1    2    0    0  0.36130957237E+02 -0.90528243084E+01  0.16302388953E+02  0.50528836404E+02  0.29999928733E+02 0.  0.
        -12    1    1    2    0    0 -0.36130957237E+02  0.90528243084E+01 -0.16302388953E+02  0.40659163596E+02  0.00000000000E+00 0.  1.
         11    1    3    3    0    0  0.22218576073E+02 -0.14330736914E+02  0.11328318539E+02  0.28763969552E+02  0.51100000000E-03 0. -1.
        -11    1    3    3    0    0  0.14056995391E+02 -0.42487776722E+00  0.70025095056E+01  0.15710339912E+02  0.51100000000E-03 0.  1.
        -12    1    3    3    0    0 -0.14461422739E+00  0.57027903725E+01 -0.20284390918E+01  0.60545269391E+01  0.00000000000E+00 0.  1.
</event>
<event>
 7    1  0.6857839E-013  0.5052887E+02  0.7816164E-02  0.1300439E+00
        -11   -1    0    0    0    0  0.00000000000E+00  0.00000000000E+00  0.45593999997E+02  0.45594000000E+02  0.51100000000E-03 0.  1.
         11   -1    0    0    0    0 -0.00000000000E+00 -0.00000000000E+00 -0.45593999997E+02  0.45594000000E+02  0.51100000000E-03 0. -1.
    9900012    2    1    2    0    0  0.31480261843E+02 -0.18879600453E+02 -0.17484817894E+02  0.50528867499E+02  0.30000023250E+02 0.  0.
        -12    1    1    2    0    0 -0.31480261843E+02  0.18879600453E+02  0.17484817894E+02  0.40659132501E+02  0.00000000000E+00 0.  1.
         11    1    3    3    0    0  0.92365901367E+01 -0.14259315433E+02 -0.80166844507E+01  0.18785896407E+02  0.51100000000E-03 0. -1.
        -11    1    3    3    0    0  0.70902846673E+01 -0.86194514635E+01 -0.11397882129E+02  0.15952391591E+02  0.51100000000E-03 0.  1.
        -12    1    3    3    0    0  0.15153387039E+02  0.39991664437E+01  0.19297486851E+01  0.15790579501E+02  0.00000000000E+00 0.  1.
</event>
<event>
 7    1  0.6857839E-013  0.5052885E+02  0.7816164E-02  0.1300439E+00
        -11   -1    0    0    0    0  0.00000000000E+00  0.00000000000E+00  0.45593999997E+02  0.45594000000E+02  0.51100000000E-03 0.  1.
         11   -1    0    0    0    0 -0.00000000000E+00 -0.00000000000E+00 -0.45593999997E+02  0.45594000000E+02  0.51100000000E-03 0. -1.
    9900012    2    1    2    0    0 -0.69502703361E+01 -0.93630679191E+01 -0.38951160318E+02  0.50528853566E+02  0.29999980901E+02 0.  0.
        -12    1    1    2    0    0  0.69502703361E+01  0.93630679191E+01  0.38951160318E+02  0.40659146434E+02  0.00000000000E+00 0.  1.
         11    1    3    3    0    0 -0.27932270664E+01 -0.50574591432E+01 -0.82527332290E+01  0.10074106235E+02  0.51100000000E-03 0.  1.
        -11    1    3    3    0    0  0.33470357558E+01  0.89938667023E+01 -0.18757833091E+02  0.21070087545E+02  0.51100000000E-03 0. -1.
         12    1    3    3    0    0 -0.75040790256E+01 -0.13299475478E+02 -0.11940593998E+02  0.19384659787E+02  0.00000000000E+00 0. -1.
</event>
<event>
 7    1  0.6857839E-013  0.5052884E+02  0.7816164E-02  0.1300439E+00
        -11   -1    0    0    0    0  0.00000000000E+00  0.00000000000E+00  0.45593999997E+02  0.45594000000E+02  0.51100000000E-03 0.  1.
         11   -1    0    0    0    0 -0.00000000000E+00 -0.00000000000E+00 -0.45593999997E+02  0.45594000000E+02  0.51100000000E-03 0. -1.
    9900012    2    1    2    0    0 -0.30971305300E+02  0.21270629730E+02 -0.15540470186E+02  0.50528835539E+02  0.29999926104E+02 0.  0.
        -12    1    1    2    0    0  0.30971305300E+02 -0.21270629730E+02  0.15540470186E+02  0.40659164461E+02  0.00000000000E+00 0.  1.
         11    1    3    3    0    0 -0.16200433464E+02  0.51931961077E+01 -0.49496677274E+00  0.17019645196E+02  0.51100000000E-03 0. -1.
        -11    1    3    3    0    0 -0.11251355025E+02  0.17816462664E+01  0.13526696195E+01  0.11471572197E+02  0.51100000000E-03 0.  1.
         12    1    3    3    0    0 -0.35195168103E+01  0.14295787356E+02 -0.16398173032E+02  0.22037618145E+02  0.00000000000E+00 0. -1.
</event>
<event>
 7    1  0.6857839E-013  0.5052886E+02  0.7816164E-02  0.1300439E+00
        -11   -1    0    0    0    0  0.00000000000E+00  0.00000000000E+00  0.45593999997E+02  0.45594000000E+02  0.51100000000E-03 0. -1.
         11   -1    0    0    0    0 -0.00000000000E+00 -0.00000000000E+00 -0.45593999997E+02  0.45594000000E+02  0.51100000000E-03 0.  1.
    9900012    2    1    2    0    0 -0.33147240364E+01  0.34862546033E+02 -0.20658689802E+02  0.50528856186E+02  0.29999988862E+02 0.  0.
        -12    1    1    2    0    0  0.33147240364E+01 -0.34862546033E+02  0.20658689802E+02  0.40659143814E+02  0.00000000000E+00 0.  1.
         11    1    3    3    0    0 -0.74618784726E+01  0.12519242151E+02 -0.40050125646E+01  0.15114601558E+02  0.51100000000E-03 0. -1.
        -11    1    3    3    0    0 -0.49136938666E+01 -0.10157958000E+01 -0.68917627598E+01  0.85248239114E+01  0.51100000000E-03 0.  1.
        -12    1    3    3    0    0  0.90608483028E+01  0.23359099683E+02 -0.97619144777E+01  0.26889430716E+02  0.00000000000E+00 0.  1.
</event>
<event>
 7    1  0.6857839E-013  0.5052890E+02  0.7816164E-02  0.1300439E+00
        -11   -1    0    0    0    0  0.00000000000E+00  0.00000000000E+00  0.45593999997E+02  0.45594000000E+02  0.51100000000E-03 0.  1.
         11   -1    0    0    0    0 -0.00000000000E+00 -0.00000000000E+00 -0.45593999997E+02  0.45594000000E+02  0.51100000000E-03 0. -1.
    9900012    2    1    2    0    0  0.29562481475E+02 -0.68844838996E+01 -0.27052283702E+02  0.50528899137E+02  0.30000119416E+02 0.  0.
        -12    1    1    2    0    0 -0.29562481475E+02  0.68844838996E+01  0.27052283702E+02  0.40659100863E+02  0.00000000000E+00 0.  1.
         11    1    3    3    0    0  0.15839775577E+01 -0.31083082214E+00  0.20686231361E+01  0.26238907454E+01  0.51100000000E-03 0. -1.
        -11    1    3    3    0    0  0.19047857835E+02  0.78084879222E+01 -0.12004559984E+02  0.23830711957E+02  0.51100000000E-03 0.  1.
         12    1    3    3    0    0  0.89306460824E+01 -0.14382141000E+02 -0.17116346854E+02  0.24074296434E+02  0.00000000000E+00 0. -1.
</event>
<event>
 7    1  0.6857839E-013  0.5052887E+02  0.7816164E-02  0.1300439E+00
        -11   -1    0    0    0    0  0.00000000000E+00  0.00000000000E+00  0.45593999997E+02  0.45594000000E+02  0.51100000000E-03 0. -1.
         11   -1    0    0    0    0 -0.00000000000E+00 -0.00000000000E+00 -0.45593999997E+02  0.45594000000E+02  0.51100000000E-03 0.  1.
    9900012    2    1    2    0    0  0.31651679840E+02  0.23385259682E+02  0.10220840458E+02  0.50528870807E+02  0.30000033305E+02 0.  0.
        -12    1    1    2    0    0 -0.31651679840E+02 -0.23385259682E+02 -0.10220840458E+02  0.40659129193E+02  0.00000000000E+00 0.  1.
         11    1    3    3    0    0  0.13357597006E+02  0.83711609349E+01  0.42564916726E+01  0.16328485992E+02  0.51100000000E-03 0. -1.
        -11    1    3    3    0    0  0.13871807038E+02 -0.32660841309E+01  0.58162691262E+01  0.15392313759E+02  0.51100000000E-03 0.  1.
         12    1    3    3    0    0  0.44222757959E+01  0.18280182878E+02  0.14807965878E+00  0.18808071056E+02  0.00000000000E+00 0. -1.
</event>
<event>
 7    1  0.6857839E-013  0.5052887E+02  0.7816164E-02  0.1300439E+00
        -11   -1    0    0    0    0  0.00000000000E+00  0.00000000000E+00  0.45593999997E+02  0.45594000000E+02  0.51100000000E-03 0.  1.
         11   -1    0    0    0    0 -0.00000000000E+00 -0.00000000000E+00 -0.45593999997E+02  0.45594000000E+02  0.51100000000E-03 0. -1.
    9900012    2    1    2    0    0 -0.16887308582E+02  0.70598522774E+00 -0.36979529342E+02  0.50528865766E+02  0.30000017984E+02 0.  0.
        -12    1    1    2    0    0  0.16887308582E+02 -0.70598522774E+00  0.36979529342E+02  0.40659134234E+02  0.00000000000E+00 0.  1.
         11    1    3    3    0    0 -0.23932789886E+01  0.10482025587E+01  0.14499219796E+01  0.29881075833E+01  0.51100000000E-03 0. -1.
        -11    1    3    3    0    0  0.55139204501E+01 -0.44187578423E+01 -0.62711152193E+01  0.94475195662E+01  0.51100000000E-03 0.  1.
         12    1    3    3    0    0 -0.20007950043E+02  0.40765405113E+01 -0.32158336102E+02  0.38093238617E+02  0.00000000000E+00 0. -1.
</event>
<event>
 7    1  0.6857839E-013  0.5052887E+02  0.7816164E-02  0.1300439E+00
        -11   -1    0    0    0    0  0.00000000000E+00  0.00000000000E+00  0.45593999997E+02  0.45594000000E+02  0.51100000000E-03 0.  1.
         11   -1    0    0    0    0 -0.00000000000E+00 -0.00000000000E+00 -0.45593999997E+02  0.45594000000E+02  0.51100000000E-03 0. -1.
    9900012    2    1    2    0    0 -0.21044217185E+01 -0.99149667010E+01 -0.39375497957E+02  0.50528868249E+02  0.30000025528E+02 0.  0.
        -12    1    1    2    0    0  0.21044217185E+01  0.99149667010E+01  0.39375497957E+02  0.40659131751E+02  0.00000000000E+00 0.  1.
         11    1    3    3    0    0 -0.80176240036E+01  0.37318395150E+01 -0.32984016023E+01  0.94386637942E+01  0.51100000000E-03 0.  1.
        -11    1    3    3    0    0  0.28839155263E+00 -0.67144732446E+00 -0.18571566113E+02  0.18585937677E+02  0.51100000000E-03 0. -1.
        -12    1    3    3    0    0  0.56248107324E+01 -0.12975358892E+02 -0.17505530241E+02  0.22504266777E+02  0.00000000000E+00 0.  1.
</event>
<event>
 7    1  0.6857839E-013  0.5052886E+02  0.7816164E-02  0.1300439E+00
        -11   -1    0    0    0    0  0.00000000000E+00  0.00000000000E+00  0.45593999997E+02  0.45594000000E+02  0.51100000000E-03 0.  1.
         11   -1    0    0    0    0 -0.00000000000E+00 -0.00000000000E+00 -0.45593999997E+02  0.45594000000E+02  0.51100000000E-03 0. -1.
    9900012    2    1    2    0    0 -0.36727999431E+02 -0.56662988989E+01 -0.16495844344E+02  0.50528858764E+02  0.29999996700E+02 0.  0.
        -12    1    1    2    0    0  0.36727999431E+02  0.56662988989E+01  0.16495844344E+02  0.40659141236E+02  0.00000000000E+00 0.  1.
         11    1    3    3    0    0 -0.31129540107E+02 -0.10464071756E+02 -0.16568702112E+02  0.36784058435E+02  0.51100000000E-03 0. -1.
        -11    1    3    3    0    0 -0.37495534457E+00 -0.32935147361E+01 -0.20300264753E+01  0.38870089502E+01  0.51100000000E-03 0.  1.
        -12    1    3    3    0    0 -0.52235039792E+01  0.80912875930E+01  0.21028842436E+01  0.98577913792E+01  0.00000000000E+00 0.  1.
</event>
<event>
 7    1  0.6857839E-013  0.5052886E+02  0.7816164E-02  0.1300439E+00
        -11   -1    0    0    0    0  0.00000000000E+00  0.00000000000E+00  0.45593999997E+02  0.45594000000E+02  0.51100000000E-03 0.  1.
         11   -1    0    0    0    0 -0.00000000000E+00 -0.00000000000E+00 -0.45593999997E+02  0.45594000000E+02  0.51100000000E-03 0. -1.
    9900012    2    1    2    0    0 -0.37042176086E+02 -0.15662565043E+02  0.59771916455E+01  0.50528861140E+02  0.30000003920E+02 0.  0.
        -12    1    1    2    0    0  0.37042176086E+02  0.15662565043E+02 -0.59771916455E+01  0.40659138860E+02  0.00000000000E+00 0.  1.
         11    1    3    3    0    0 -0.21090520464E+02 -0.13158555478E+02  0.20677076889E+00  0.24859613636E+02  0.51100000000E-03 0. -1.
        -11    1    3    3    0    0 -0.96955365807E+01 -0.26763206699E+01 -0.64436104600E+01  0.11945134488E+02  0.51100000000E-03 0.  1.
        -12    1    3    3    0    0 -0.62561190409E+01  0.17231110550E+00  0.12214031337E+02  0.13724113016E+02  0.00000000000E+00 0.  1.
</event>
<event>
 7    1  0.6857839E-013  0.5052880E+02  0.7816164E-02  0.1300439E+00
        -11   -1    0    0    0    0  0.00000000000E+00  0.00000000000E+00  0.45593999997E+02  0.45594000000E+02  0.51100000000E-03 0.  1.
         11   -1    0    0    0    0 -0.00000000000E+00 -0.00000000000E+00 -0.45593999997E+02  0.45594000000E+02  0.51100000000E-03 0. -1.
    9900012    2    1    2    0    0 -0.16914151862E+02  0.49199817249E+01 -0.36645265510E+02  0.50528803775E+02  0.29999829553E+02 0.  0.
        -12    1    1    2    0    0  0.16914151862E+02 -0.49199817249E+01  0.36645265510E+02  0.40659196225E+02  0.00000000000E+00 0.  1.
         11    1    3    3    0    0 -0.12407171395E+02  0.50272447055E+01 -0.18304918450E+02  0.22677767330E+02  0.51100000000E-03 0. -1.
        -11    1    3    3    0    0 -0.67820772820E+01  0.36699780679E+01 -0.21224580453E+02  0.22582031063E+02  0.51100000000E-03 0.  1.
        -12    1    3    3    0    0  0.22750968150E+01 -0.37772410485E+01  0.28842333919E+01  0.52690053819E+01  0.00000000000E+00 0.  1.
</event>
<event>
 7    1  0.6857839E-013  0.5052887E+02  0.7816164E-02  0.1300439E+00
        -11   -1    0    0    0    0  0.00000000000E+00  0.00000000000E+00  0.45593999997E+02  0.45594000000E+02  0.51100000000E-03 0.  1.
         11   -1    0    0    0    0 -0.00000000000E+00 -0.00000000000E+00 -0.45593999997E+02  0.45594000000E+02  0.51100000000E-03 0. -1.
    9900012    2    1    2    0    0  0.20199059391E+02 -0.88290983769E+01 -0.34164451679E+02  0.50528871419E+02  0.30000035165E+02 0.  0.
        -12    1    1    2    0    0 -0.20199059391E+02  0.88290983769E+01  0.34164451679E+02  0.40659128581E+02  0.00000000000E+00 0.  1.
         11    1    3    3    0    0 -0.32349713622E+01  0.27566558774E+00 -0.56087852949E+01  0.64807024293E+01  0.51100000000E-03 0. -1.
        -11    1    3    3    0    0  0.22846259279E+01 -0.79107906334E+01  0.31465425312E+00  0.82400929386E+01  0.51100000000E-03 0.  1.
         12    1    3    3    0    0  0.21149404825E+02 -0.11939733312E+01 -0.28870320638E+02  0.35808076051E+02  0.00000000000E+00 0. -1.
</event>
<event>
 7    1  0.6857839E-013  0.5052886E+02  0.7816164E-02  0.1300439E+00
        -11   -1    0    0    0    0  0.00000000000E+00  0.00000000000E+00  0.45593999997E+02  0.45594000000E+02  0.51100000000E-03 0.  1.
         11   -1    0    0    0    0 -0.00000000000E+00 -0.00000000000E+00 -0.45593999997E+02  0.45594000000E+02  0.51100000000E-03 0. -1.
    9900012    2    1    2    0    0  0.87900482386E+01 -0.19496207421E+02 -0.34580324324E+02  0.50528857336E+02  0.29999992359E+02 0.  0.
        -12    1    1    2    0    0 -0.87900482386E+01  0.19496207421E+02  0.34580324324E+02  0.40659142664E+02  0.00000000000E+00 0.  1.
         11    1    3    3    0    0  0.12178741529E+02 -0.38543667419E+01 -0.13735033298E+02  0.18757106071E+02  0.51100000000E-03 0. -1.
        -11    1    3    3    0    0  0.11222255802E+01 -0.11662364754E+02 -0.22642051618E+02  0.25493776567E+02  0.51100000000E-03 0.  1.
        -12    1    3    3    0    0 -0.45109188702E+01 -0.39794759243E+01  0.17967605919E+01  0.62779746981E+01  0.00000000000E+00 0.  1.
</event>
<event>
 7    1  0.6857839E-013  0.5052886E+02  0.7816164E-02  0.1300439E+00
        -11   -1    0    0    0    0  0.00000000000E+00  0.00000000000E+00  0.45593999997E+02  0.45594000000E+02  0.51100000000E-03 0. -1.
         11   -1    0    0    0    0 -0.00000000000E+00 -0.00000000000E+00 -0.45593999997E+02  0.45594000000E+02  0.51100000000E-03 0.  1.
    9900012    2    1    2    0    0 -0.15034647008E+02 -0.15834061279E+02  0.34298799757E+02  0.50528858691E+02  0.29999996477E+02 0.  0.
        -12    1    1    2    0    0  0.15034647008E+02  0.15834061279E+02 -0.34298799757E+02  0.40659141309E+02  0.00000000000E+00 0.  1.
         11    1    3    3    0    0 -0.11758102957E+02 -0.89884319385E+01  0.69227680139E+01  0.16339204726E+02  0.51100000000E-03 0. -1.
        -11    1    3    3    0    0 -0.98079900434E+01  0.43551137443E+00  0.18674740482E+02  0.21098158004E+02  0.51100000000E-03 0.  1.
        -12    1    3    3    0    0  0.65314459925E+01 -0.72811407153E+01  0.87012912609E+01  0.13091495960E+02  0.00000000000E+00 0.  1.
</event>
<event>
 7    1  0.6857839E-013  0.5052886E+02  0.7816164E-02  0.1300439E+00
        -11   -1    0    0    0    0  0.00000000000E+00  0.00000000000E+00  0.45593999997E+02  0.45594000000E+02  0.51100000000E-03 0. -1.
         11   -1    0    0    0    0 -0.00000000000E+00 -0.00000000000E+00 -0.45593999997E+02  0.45594000000E+02  0.51100000000E-03 0.  1.
    9900012    2    1    2    0    0 -0.10288758167E+02  0.21470602454E+02  0.32959376856E+02  0.50528857890E+02  0.29999994044E+02 0.  0.
        -12    1    1    2    0    0  0.10288758167E+02 -0.21470602454E+02 -0.32959376856E+02  0.40659142110E+02  0.00000000000E+00 0.  1.
         11    1    3    3    0    0  0.20579790406E+01  0.49897261358E+01 -0.26887951786E+00  0.54041596107E+01  0.51100000000E-03 0. -1.
        -11    1    3    3    0    0  0.15388797723E+01 -0.47785908708E+01  0.70467374944E+01  0.86521437367E+01  0.51100000000E-03 0.  1.
        -12    1    3    3    0    0 -0.13885616979E+02  0.21259467189E+02  0.26181518880E+02  0.36472554543E+02  0.00000000000E+00 0.  1.
</event>
<event>
 7    1  0.6857839E-013  0.5052887E+02  0.7816164E-02  0.1300439E+00
        -11   -1    0    0    0    0  0.00000000000E+00  0.00000000000E+00  0.45593999997E+02  0.45594000000E+02  0.51100000000E-03 0.  1.
         11   -1    0    0    0    0 -0.00000000000E+00 -0.00000000000E+00 -0.45593999997E+02  0.45594000000E+02  0.51100000000E-03 0. -1.
    9900012    2    1    2    0    0 -0.31236513820E+02 -0.17442908867E+02 -0.19318127728E+02  0.50528869115E+02  0.30000028163E+02 0.  0.
        -12    1    1    2    0    0  0.31236513820E+02  0.17442908867E+02  0.19318127728E+02  0.40659130885E+02  0.00000000000E+00 0.  1.
         11    1    3    3    0    0 -0.66220910202E+01 -0.95415710958E+00  0.31767812064E+01  0.74063786268E+01  0.51100000000E-03 0.  1.
        -11    1    3    3    0    0 -0.73948201715E+00  0.40181397556E+01 -0.68491447898E+01  0.79751529993E+01  0.51100000000E-03 0. -1.
        -12    1    3    3    0    0 -0.23874940783E+02 -0.20506891513E+02 -0.15645764145E+02  0.35147337489E+02  0.00000000000E+00 0.  1.
</event>
<event>
 7    1  0.6857839E-013  0.5052888E+02  0.7816164E-02  0.1300439E+00
        -11   -1    0    0    0    0  0.00000000000E+00  0.00000000000E+00  0.45593999997E+02  0.45594000000E+02  0.51100000000E-03 0.  1.
         11   -1    0    0    0    0 -0.00000000000E+00 -0.00000000000E+00 -0.45593999997E+02  0.45594000000E+02  0.51100000000E-03 0. -1.
    9900012    2    1    2    0    0  0.31048476695E+02  0.22766363962E+02 -0.13070927248E+02  0.50528875904E+02  0.30000048799E+02 0.  0.
        -12    1    1    2    0    0 -0.31048476695E+02 -0.22766363962E+02  0.13070927248E+02  0.40659124096E+02  0.00000000000E+00 0.  1.
         11    1    3    3    0    0  0.26580642553E+02  0.25057138691E+02 -0.12926623416E+02  0.38749043228E+02  0.51100000000E-03 0. -1.
        -11    1    3    3    0    0  0.75297529591E+00  0.18381705703E+01 -0.43704348852E+01  0.48006816379E+01  0.51100000000E-03 0.  1.
         12    1    3    3    0    0  0.37148588462E+01 -0.41289452995E+01  0.42261310534E+01  0.69791510382E+01  0.00000000000E+00 0. -1.
</event>
<event>
 7    1  0.6857839E-013  0.5052886E+02  0.7816164E-02  0.1300439E+00
        -11   -1    0    0    0    0  0.00000000000E+00  0.00000000000E+00  0.45593999997E+02  0.45594000000E+02  0.51100000000E-03 0.  1.
         11   -1    0    0    0    0 -0.00000000000E+00 -0.00000000000E+00 -0.45593999997E+02  0.45594000000E+02  0.51100000000E-03 0. -1.
    9900012    2    1    2    0    0  0.12973330867E+02 -0.31925870541E+02 -0.21577697528E+02  0.50528861369E+02  0.30000004617E+02 0.  0.
        -12    1    1    2    0    0 -0.12973330867E+02  0.31925870541E+02  0.21577697528E+02  0.40659138631E+02  0.00000000000E+00 0.  1.
         11    1    3    3    0    0  0.24941332636E+01 -0.34398393456E+01 -0.10254341422E+02  0.11099761877E+02  0.51100000000E-03 0. -1.
        -11    1    3    3    0    0 -0.55340444700E+01 -0.13679832594E+02 -0.94854745175E+01  0.17542454078E+02  0.51100000000E-03 0.  1.
        -12    1    3    3    0    0  0.16013242074E+02 -0.14806198602E+02 -0.18378815880E+01  0.21886645414E+02  0.00000000000E+00 0.  1.
</event>
<event>
 7    1  0.6857839E-013  0.5052887E+02  0.7816164E-02  0.1300439E+00
        -11   -1    0    0    0    0  0.00000000000E+00  0.00000000000E+00  0.45593999997E+02  0.45594000000E+02  0.51100000000E-03 0.  1.
         11   -1    0    0    0    0 -0.00000000000E+00 -0.00000000000E+00 -0.45593999997E+02  0.45594000000E+02  0.51100000000E-03 0. -1.
    9900012    2    1    2    0    0 -0.26408028019E+01  0.31795572256E+02 -0.25203825146E+02  0.50528867489E+02  0.30000023221E+02 0.  0.
        -12    1    1    2    0    0  0.26408028019E+01 -0.31795572256E+02  0.25203825146E+02  0.40659132511E+02  0.00000000000E+00 0.  1.
         11    1    3    3    0    0 -0.83605812980E+01  0.75811187760E+01 -0.40146554331E+01  0.11978736997E+02  0.51100000000E-03 0. -1.
        -11    1    3    3    0    0 -0.35660436976E+01  0.22036800627E+02 -0.12179712166E+02  0.25429955529E+02  0.51100000000E-03 0.  1.
         12    1    3    3    0    0  0.92858221938E+01  0.21776528527E+01 -0.90094575474E+01  0.13120174963E+02  0.00000000000E+00 0. -1.
</event>
<event>
 7    1  0.6857839E-013  0.5052886E+02  0.7816164E-02  0.1300439E+00
        -11   -1    0    0    0    0  0.00000000000E+00  0.00000000000E+00  0.45593999997E+02  0.45594000000E+02  0.51100000000E-03 0.  1.
         11   -1    0    0    0    0 -0.00000000000E+00 -0.00000000000E+00 -0.45593999997E+02  0.45594000000E+02  0.51100000000E-03 0. -1.
    9900012    2    1    2    0    0 -0.15402338775E+02  0.25885891127E+02 -0.27310335965E+02  0.50528857735E+02  0.29999993572E+02 0.  0.
        -12    1    1    2    0    0  0.15402338775E+02 -0.25885891127E+02  0.27310335965E+02  0.40659142265E+02  0.00000000000E+00 0.  1.
         11    1    3    3    0    0 -0.26593416743E+01  0.18371710732E+02 -0.49283317181E+01  0.19206256979E+02  0.51100000000E-03 0. -1.
        -11    1    3    3    0    0 -0.24979707860E+01 -0.19927948513E+01  0.15934543571E+01  0.35707403177E+01  0.51100000000E-03 0.  1.
         12    1    3    3    0    0 -0.10245026314E+02  0.95069752463E+01 -0.23975458604E+02  0.27751860439E+02  0.00000000000E+00 0. -1.
</event>
<event>
 7    1  0.6857839E-013  0.5052886E+02  0.7816164E-02  0.1300439E+00
        -11   -1    0    0    0    0  0.00000000000E+00  0.00000000000E+00  0.45593999997E+02  0.45594000000E+02  0.51100000000E-03 0.  1.
         11   -1    0    0    0    0 -0.00000000000E+00 -0.00000000000E+00 -0.45593999997E+02  0.45594000000E+02  0.51100000000E-03 0. -1.
    9900012    2    1    2    0    0 -0.18320758306E+02 -0.32118477612E+02  0.16909133590E+02  0.50528860957E+02  0.30000003364E+02 0.  0.
        -12    1    1    2    0    0  0.18320758306E+02  0.32118477612E+02 -0.16909133590E+02  0.40659139043E+02  0.00000000000E+00 0.  1.
         11    1    3    3    0    0  0.43900058315E+00 -0.11040402878E+02  0.14413408213E+02  0.18161210142E+02  0.51100000000E-03 0. -1.
        -11    1    3    3    0    0  0.43265485573E+00  0.18670403013E+01 -0.11461883469E+01  0.22331094238E+01  0.51100000000E-03 0.  1.
         12    1    3    3    0    0 -0.19192413745E+02 -0.22945115035E+02  0.36419137235E+01  0.30134541391E+02  0.00000000000E+00 0. -1.
</event>
<event>
 7    1  0.6857839E-013  0.5052886E+02  0.7816164E-02  0.1300439E+00
        -11   -1    0    0    0    0  0.00000000000E+00  0.00000000000E+00  0.45593999997E+02  0.45594000000E+02  0.51100000000E-03 0.  1.
         11   -1    0    0    0    0 -0.00000000000E+00 -0.00000000000E+00 -0.45593999997E+02  0.45594000000E+02  0.51100000000E-03 0. -1.
    9900012    2    1    2    0    0 -0.24472532855E+02  0.31811977347E+02 -0.65006692106E+01  0.50528862438E+02  0.30000007868E+02 0.  0.
        -12    1    1    2    0    0  0.24472532855E+02 -0.31811977347E+02  0.65006692106E+01  0.40659137562E+02  0.00000000000E+00 0.  1.
         11    1    3    3    0    0 -0.79192496994E+01  0.61470425575E+01 -0.10600333460E+02  0.14589986900E+02  0.51100000000E-03 0. -1.
        -11    1    3    3    0    0  0.14851736677E+00 -0.11046313999E+01  0.42420825034E+01  0.43860611218E+01  0.51100000000E-03 0.  1.
         12    1    3    3    0    0 -0.16701800523E+02  0.26769566189E+02 -0.14241825387E+00  0.31552814417E+02  0.00000000000E+00 0. -1.
</event>
<event>
 7    1  0.6857839E-013  0.5052887E+02  0.7816164E-02  0.1300439E+00
        -11   -1    0    0    0    0  0.00000000000E+00  0.00000000000E+00  0.45593999997E+02  0.45594000000E+02  0.51100000000E-03 0. -1.
         11   -1    0    0    0    0 -0.00000000000E+00 -0.00000000000E+00 -0.45593999997E+02  0.45594000000E+02  0.51100000000E-03 0.  1.
    9900012    2    1    2    0    0  0.31963803746E+01 -0.13119759251E+02  0.38351271850E+02  0.50528868396E+02  0.30000025977E+02 0.  0.
        -12    1    1    2    0    0 -0.31963803746E+01  0.13119759251E+02 -0.38351271850E+02  0.40659131604E+02  0.00000000000E+00 0.  1.
         11    1    3    3    0    0 -0.61976575831E+01  0.46758837841E+01  0.52657377835E+01  0.93809830693E+01  0.51100000000E-03 0. -1.
        -11    1    3    3    0    0  0.13479406651E+01 -0.42000962218E+01 -0.80107843692E-01  0.44118216007E+01  0.51100000000E-03 0.  1.
        -12    1    3    3    0    0  0.80460972926E+01 -0.13595546813E+02  0.33165641910E+02  0.36736063726E+02  0.00000000000E+00 0.  1.
</event>
<event>
 7    1  0.6857839E-013  0.5052886E+02  0.7816164E-02  0.1300439E+00
        -11   -1    0    0    0    0  0.00000000000E+00  0.00000000000E+00  0.45593999997E+02  0.45594000000E+02  0.51100000000E-03 0. -1.
         11   -1    0    0    0    0 -0.00000000000E+00 -0.00000000000E+00 -0.45593999997E+02  0.45594000000E+02  0.51100000000E-03 0.  1.
    9900012    2    1    2    0    0  0.69840191986E+01 -0.54923677527E+01  0.39676481166E+02  0.50528858526E+02  0.29999995974E+02 0.  0.
        -12    1    1    2    0    0 -0.69840191986E+01  0.54923677527E+01 -0.39676481166E+02  0.40659141474E+02  0.00000000000E+00 0.  1.
         11    1    3    3    0    0  0.10403669054E+02 -0.97355250908E+01  0.89573773945E+01  0.16830073934E+02  0.51100000000E-03 0. -1.
        -11    1    3    3    0    0 -0.20547475171E+01 -0.43263299587E+01  0.14967462204E+02  0.15715089671E+02  0.51100000000E-03 0.  1.
        -12    1    3    3    0    0 -0.13649023379E+01  0.85694872969E+01  0.15751641568E+02  0.17983694921E+02  0.00000000000E+00 0.  1.
</event>
<event>
 7    1  0.6857839E-013  0.5052885E+02  0.7816164E-02  0.1300439E+00
        -11   -1    0    0    0    0  0.00000000000E+00  0.00000000000E+00  0.45593999997E+02  0.45594000000E+02  0.51100000000E-03 0. -1.
         11   -1    0    0    0    0 -0.00000000000E+00 -0.00000000000E+00 -0.45593999997E+02  0.45594000000E+02  0.51100000000E-03 0.  1.
    9900012    2    1    2    0    0  0.27455070439E+02 -0.29572690493E+02  0.49841187537E+01  0.50528851515E+02  0.29999974665E+02 0.  0.
        -12    1    1    2    0    0 -0.27455070439E+02  0.29572690493E+02 -0.49841187537E+01  0.40659148485E+02  0.00000000000E+00 0.  1.
         11    1    3    3    0    0  0.11921903752E+02 -0.83815556469E+01 -0.20632950898E+00  0.14574801414E+02  0.51100000000E-03 0. -1.
        -11    1    3    3    0    0  0.21800054625E+02 -0.15036166286E+02  0.18179200279E+01  0.26544933824E+02  0.51100000000E-03 0.  1.
        -12    1    3    3    0    0 -0.62668879385E+01 -0.61549685601E+01  0.33725282348E+01  0.94091162765E+01  0.00000000000E+00 0.  1.
</event>
<event>
 7    1  0.6857839E-013  0.5052886E+02  0.7816164E-02  0.1300439E+00
        -11   -1    0    0    0    0  0.00000000000E+00  0.00000000000E+00  0.45593999997E+02  0.45594000000E+02  0.51100000000E-03 0. -1.
         11   -1    0    0    0    0 -0.00000000000E+00 -0.00000000000E+00 -0.45593999997E+02  0.45594000000E+02  0.51100000000E-03 0.  1.
    9900012    2    1    2    0    0  0.18109339794E+02 -0.80897435260E+00  0.36394544012E+02  0.50528862514E+02  0.30000008096E+02 0.  0.
        -12    1    1    2    0    0 -0.18109339794E+02  0.80897435260E+00 -0.36394544012E+02  0.40659137486E+02  0.00000000000E+00 0.  1.
         11    1    3    3    0    0 -0.54743628583E+01  0.63904831900E+01  0.87202132601E+01  0.12118128720E+02  0.51100000000E-03 0. -1.
        -11    1    3    3    0    0  0.56779491809E+01  0.21614880661E+01  0.92491524451E+01  0.11066072419E+02  0.51100000000E-03 0.  1.
         12    1    3    3    0    0  0.17905753472E+02 -0.93609456087E+01  0.18425178307E+02  0.27344661375E+02  0.00000000000E+00 0. -1.
</event>
<event>
 7    1  0.6857839E-013  0.5052886E+02  0.7816164E-02  0.1300439E+00
        -11   -1    0    0    0    0  0.00000000000E+00  0.00000000000E+00  0.45593999997E+02  0.45594000000E+02  0.51100000000E-03 0. -1.
         11   -1    0    0    0    0 -0.00000000000E+00 -0.00000000000E+00 -0.45593999997E+02  0.45594000000E+02  0.51100000000E-03 0.  1.
    9900012    2    1    2    0    0 -0.31086718287E+02  0.25286812857E+02 -0.68817701613E+01  0.50528859344E+02  0.29999998462E+02 0.  0.
        -12    1    1    2    0    0  0.31086718287E+02 -0.25286812857E+02  0.68817701613E+01  0.40659140656E+02  0.00000000000E+00 0.  1.
         11    1    3    3    0    0  0.12822065392E+01 -0.15828298149E+01  0.32609613707E+01  0.38449022295E+01  0.51100000000E-03 0. -1.
        -11    1    3    3    0    0 -0.49783383164E+01  0.26984823692E+01 -0.83760739358E+01  0.10110602075E+02  0.51100000000E-03 0.  1.
        -12    1    3    3    0    0 -0.27390586510E+02  0.24171160302E+02 -0.17666575963E+01  0.36573355039E+02  0.00000000000E+00 0.  1.
</event>
<event>
 7    1  0.6857839E-013  0.5052886E+02  0.7816164E-02  0.1300439E+00
        -11   -1    0    0    0    0  0.00000000000E+00  0.00000000000E+00  0.45593999997E+02  0.45594000000E+02  0.51100000000E-03 0. -1.
         11   -1    0    0    0    0 -0.00000000000E+00 -0.00000000000E+00 -0.45593999997E+02  0.45594000000E+02  0.51100000000E-03 0.  1.
    9900012    2    1    2    0    0  0.37513383928E+02  0.13195317137E+02  0.84732107617E+01  0.50528859961E+02  0.30000000339E+02 0.  0.
        -12    1    1    2    0    0 -0.37513383928E+02 -0.13195317137E+02 -0.84732107617E+01  0.40659140039E+02  0.00000000000E+00 0.  1.
         11    1    3    3    0    0  0.21995879049E+02  0.20160923486E+00  0.14683341331E+02  0.26447303347E+02  0.51100000000E-03 0. -1.
        -11    1    3    3    0    0 -0.12911389709E+01 -0.76717109142E-01 -0.19924333766E+01  0.23754402493E+01  0.51100000000E-03 0.  1.
         12    1    3    3    0    0  0.16808643850E+02  0.13070425012E+02 -0.42176971928E+01  0.21706116365E+02  0.00000000000E+00 0. -1.
</event>
<event>
 7    1  0.6857839E-013  0.5052880E+02  0.7816164E-02  0.1300439E+00
        -11   -1    0    0    0    0  0.00000000000E+00  0.00000000000E+00  0.45593999997E+02  0.45594000000E+02  0.51100000000E-03 0.  1.
         11   -1    0    0    0    0 -0.00000000000E+00 -0.00000000000E+00 -0.45593999997E+02  0.45594000000E+02  0.51100000000E-03 0. -1.
    9900012    2    1    2    0    0  0.80710553467E+01 -0.96156125883E+01 -0.38672580040E+02  0.50528801941E+02  0.29999823979E+02 0.  0.
        -12    1    1    2    0    0 -0.80710553467E+01  0.96156125883E+01  0.38672580040E+02  0.40659198059E+02  0.00000000000E+00 0.  1.
         11    1    3    3    0    0 -0.14741398577E+01  0.28555929654E+01 -0.10508873148E+02  0.10989263607E+02  0.51100000000E-03 0. -1.
        -11    1    3    3    0    0 -0.16925737061E-01 -0.10362420438E+02 -0.27880066859E+02  0.29743540007E+02  0.51100000000E-03 0.  1.
        -12    1    3    3    0    0  0.95621209415E+01 -0.21087851152E+01 -0.28364003246E+00  0.97959983274E+01  0.00000000000E+00 0.  1.
</event>
<event>
 7    1  0.6857839E-013  0.5052888E+02  0.7816164E-02  0.1300439E+00
        -11   -1    0    0    0    0  0.00000000000E+00  0.00000000000E+00  0.45593999997E+02  0.45594000000E+02  0.51100000000E-03 0.  1.
         11   -1    0    0    0    0 -0.00000000000E+00 -0.00000000000E+00 -0.45593999997E+02  0.45594000000E+02  0.51100000000E-03 0. -1.
    9900012    2    1    2    0    0  0.10878108609E+02  0.33261144787E+02 -0.20700896371E+02  0.50528879129E+02  0.30000058599E+02 0.  0.
        -12    1    1    2    0    0 -0.10878108609E+02 -0.33261144787E+02  0.20700896371E+02  0.40659120871E+02  0.00000000000E+00 0.  1.
         11    1    3    3    0    0  0.30589161150E+01  0.33375488526E+01 -0.41275762282E+01  0.61264252157E+01  0.51100000000E-03 0. -1.
        -11    1    3    3    0    0  0.44656305239E+01  0.23533623328E+02  0.24285707552E+01  0.24076362663E+02  0.51100000000E-03 0.  1.
        -12    1    3    3    0    0  0.33535619704E+01  0.63899726068E+01 -0.19001890898E+02  0.20326091250E+02  0.00000000000E+00 0.  1.
</event>
<event>
 7    1  0.6857839E-013  0.5052887E+02  0.7816164E-02  0.1300439E+00
        -11   -1    0    0    0    0  0.00000000000E+00  0.00000000000E+00  0.45593999997E+02  0.45594000000E+02  0.51100000000E-03 0.  1.
         11   -1    0    0    0    0 -0.00000000000E+00 -0.00000000000E+00 -0.45593999997E+02  0.45594000000E+02  0.51100000000E-03 0. -1.
    9900012    2    1    2    0    0 -0.12149474568E+02  0.38480772013E+02 -0.49784880763E+01  0.50528869530E+02  0.30000029424E+02 0.  0.
        -12    1    1    2    0    0  0.12149474568E+02 -0.38480772013E+02  0.49784880763E+01  0.40659130470E+02  0.00000000000E+00 0.  1.
         11    1    3    3    0    0 -0.48339574589E+01  0.14594013526E+02 -0.13284483909E+02  0.20318215682E+02  0.51100000000E-03 0. -1.
        -11    1    3    3    0    0  0.33596195745E+01  0.82960498040E+00  0.21259337746E+01  0.40613892678E+01  0.51100000000E-03 0.  1.
         12    1    3    3    0    0 -0.10675136684E+02  0.23057153507E+02  0.61800620580E+01  0.26149264581E+02  0.00000000000E+00 0. -1.
</event>
<event>
 7    1  0.6857839E-013  0.5052886E+02  0.7816164E-02  0.1300439E+00
        -11   -1    0    0    0    0  0.00000000000E+00  0.00000000000E+00  0.45593999997E+02  0.45594000000E+02  0.51100000000E-03 0. -1.
         11   -1    0    0    0    0 -0.00000000000E+00 -0.00000000000E+00 -0.45593999997E+02  0.45594000000E+02  0.51100000000E-03 0.  1.
    9900012    2    1    2    0    0  0.12650864333E+02  0.33124180408E+02  0.19897481519E+02  0.50528862443E+02  0.30000007883E+02 0.  0.
        -12    1    1    2    0    0 -0.12650864333E+02 -0.33124180408E+02 -0.19897481519E+02  0.40659137557E+02  0.00000000000E+00 0.  1.
         11    1    3    3    0    0  0.14863013816E+02  0.15496174776E+02  0.42080501562E+01  0.21880317611E+02  0.51100000000E-03 0. -1.
        -11    1    3    3    0    0  0.12838767348E+00  0.44446225815E+00 -0.30679709774E+01  0.31026563253E+01  0.51100000000E-03 0.  1.
        -12    1    3    3    0    0 -0.23405371569E+01  0.17183543374E+02  0.18757402340E+02  0.25545888507E+02  0.00000000000E+00 0.  1.
</event>
<event>
 7    1  0.7288951E-013  0.5052886E+02  0.7816164E-02  0.1300439E+00
        -11   -1    0    0    0    0  0.00000000000E+00  0.00000000000E+00  0.45593999997E+02  0.45594000000E+02  0.51100000000E-03 0. -1.
         11   -1    0    0    0    0 -0.00000000000E+00 -0.00000000000E+00 -0.45593999997E+02  0.45594000000E+02  0.51100000000E-03 0.  1.
    9900012    2    1    2    0    0 -0.28527014977E+02 -0.13923605693E+02  0.25406850081E+02  0.50528863142E+02  0.30000010005E+02 0.  0.
        -12    1    1    2    0    0  0.28527014977E+02  0.13923605693E+02 -0.25406850081E+02  0.40659136858E+02  0.00000000000E+00 0.  1.
         11    1    3    3    0    0 -0.21408363228E+02 -0.15012040156E+02  0.21306558936E+02  0.33729050086E+02  0.51100000000E-03 0. -1.
        -11    1    3    3    0    0 -0.18324172651E+01 -0.97901159151E+00  0.90397388168E+01  0.92754026795E+01  0.51100000000E-03 0.  1.
        -12    1    3    3    0    0 -0.52862344846E+01  0.20674460549E+01 -0.49394476710E+01  0.75244103763E+01  0.00000000000E+00 0.  1.
</event>
<event>
 7    1  0.6857839E-013  0.5052887E+02  0.7816164E-02  0.1300439E+00
        -11   -1    0    0    0    0  0.00000000000E+00  0.00000000000E+00  0.45593999997E+02  0.45594000000E+02  0.51100000000E-03 0.  1.
         11   -1    0    0    0    0 -0.00000000000E+00 -0.00000000000E+00 -0.45593999997E+02  0.45594000000E+02  0.51100000000E-03 0. -1.
    9900012    2    1    2    0    0 -0.50975311378E+01 -0.95148065562E+01 -0.39200109865E+02  0.50528868419E+02  0.30000026047E+02 0.  0.
        -12    1    1    2    0    0  0.50975311378E+01  0.95148065562E+01  0.39200109865E+02  0.40659131581E+02  0.00000000000E+00 0.  1.
         11    1    3    3    0    0 -0.31497551911E+01 -0.28313193642E+01 -0.17811073182E+02  0.18307693881E+02  0.51100000000E-03 0. -1.
        -11    1    3    3    0    0 -0.90460010931E+01 -0.11939313429E+02 -0.15785085503E+02  0.21761118205E+02  0.51100000000E-03 0.  1.
         12    1    3    3    0    0  0.70982251465E+01  0.52558262368E+01 -0.56039511806E+01  0.10460056333E+02  0.00000000000E+00 0. -1.
</event>
<event>
 7    1  0.6857839E-013  0.5052885E+02  0.7816164E-02  0.1300439E+00
        -11   -1    0    0    0    0  0.00000000000E+00  0.00000000000E+00  0.45593999997E+02  0.45594000000E+02  0.51100000000E-03 0. -1.
         11   -1    0    0    0    0 -0.00000000000E+00 -0.00000000000E+00 -0.45593999997E+02  0.45594000000E+02  0.51100000000E-03 0.  1.
    9900012    2    1    2    0    0  0.29146150509E+02  0.25688829383E+02  0.11989696786E+02  0.50528845144E+02  0.29999955300E+02 0.  0.
        -12    1    1    2    0    0 -0.29146150509E+02 -0.25688829383E+02 -0.11989696786E+02  0.40659154856E+02  0.00000000000E+00 0.  1.
         11    1    3    3    0    0  0.10949990685E+02  0.60197098919E+01  0.10091847462E+02  0.16061898662E+02  0.51100000000E-03 0. -1.
        -11    1    3    3    0    0 -0.20110308476E+01 -0.31119495149E+01 -0.11077684097E+01  0.38672504397E+01  0.51100000000E-03 0.  1.
        -12    1    3    3    0    0  0.20207190672E+02  0.22781069006E+02  0.30056177334E+01  0.30599696042E+02  0.00000000000E+00 0.  1.
</event>
<event>
 7    1  0.6857839E-013  0.5052886E+02  0.7816164E-02  0.1300439E+00
        -11   -1    0    0    0    0  0.00000000000E+00  0.00000000000E+00  0.45593999997E+02  0.45594000000E+02  0.51100000000E-03 0.  1.
         11   -1    0    0    0    0 -0.00000000000E+00 -0.00000000000E+00 -0.45593999997E+02  0.45594000000E+02  0.51100000000E-03 0. -1.
    9900012    2    1    2    0    0  0.53504922287E+01  0.17550506332E+02 -0.36283851180E+02  0.50528857166E+02  0.29999991840E+02 0.  0.
        -12    1    1    2    0    0 -0.53504922287E+01 -0.17550506332E+02  0.36283851180E+02  0.40659142834E+02  0.00000000000E+00 0.  1.
         11    1    3    3    0    0  0.10588912438E+02  0.12061685981E+02 -0.27055472856E+02  0.31458034698E+02  0.51100000000E-03 0. -1.
        -11    1    3    3    0    0 -0.56373233807E+01  0.10343526939E+02 -0.71074216130E+01  0.13758030625E+02  0.51100000000E-03 0.  1.
        -12    1    3    3    0    0  0.39890317094E+00 -0.48547065879E+01 -0.21209567107E+01  0.53127918426E+01  0.00000000000E+00 0.  1.
</event>
<event>
 7    1  0.6857839E-013  0.5052885E+02  0.7816164E-02  0.1300439E+00
        -11   -1    0    0    0    0  0.00000000000E+00  0.00000000000E+00  0.45593999997E+02  0.45594000000E+02  0.51100000000E-03 0.  1.
         11   -1    0    0    0    0 -0.00000000000E+00 -0.00000000000E+00 -0.45593999997E+02  0.45594000000E+02  0.51100000000E-03 0. -1.
    9900012    2    1    2    0    0 -0.11561964956E+02  0.38269582019E+02 -0.74112237500E+01  0.50528853686E+02  0.29999981263E+02 0.  0.
        -12    1    1    2    0    0  0.11561964956E+02 -0.38269582019E+02  0.74112237500E+01  0.40659146314E+02  0.00000000000E+00 0.  1.
         11    1    3    3    0    0 -0.48278743223E+01  0.11936173051E+02 -0.36434530130E+01  0.13381156441E+02  0.51100000000E-03 0. -1.
        -11    1    3    3    0    0  0.34109835564E+01  0.11098408002E+02 -0.12333455802E+02  0.16938819360E+02  0.51100000000E-03 0.  1.
        -12    1    3    3    0    0 -0.10145074190E+02  0.15235000965E+02  0.85656850655E+01  0.20208877885E+02  0.00000000000E+00 0.  1.
</event>
<event>
 7    1  0.6857839E-013  0.5052886E+02  0.7816164E-02  0.1300439E+00
        -11   -1    0    0    0    0  0.00000000000E+00  0.00000000000E+00  0.45593999997E+02  0.45594000000E+02  0.51100000000E-03 0.  1.
         11   -1    0    0    0    0 -0.00000000000E+00 -0.00000000000E+00 -0.45593999997E+02  0.45594000000E+02  0.51100000000E-03 0. -1.
    9900012    2    1    2    0    0  0.26163873871E+01 -0.35060206665E+02 -0.20423075543E+02  0.50528860941E+02  0.30000003318E+02 0.  0.
        -12    1    1    2    0    0 -0.26163873871E+01  0.35060206665E+02  0.20423075543E+02  0.40659139059E+02  0.00000000000E+00 0.  1.
         11    1    3    3    0    0  0.23064753486E+01 -0.33551995942E+01 -0.10948857722E+02  0.11681381705E+02  0.51100000000E-03 0. -1.
        -11    1    3    3    0    0  0.41383406306E+01 -0.15086970359E+02  0.50585246147E+01  0.16441752015E+02  0.51100000000E-03 0.  1.
         12    1    3    3    0    0 -0.38284285921E+01 -0.16618036712E+02 -0.14532742436E+02  0.22405727222E+02  0.00000000000E+00 0. -1.
</event>
<event>
 7    1  0.6857839E-013  0.5052886E+02  0.7816164E-02  0.1300439E+00
        -11   -1    0    0    0    0  0.00000000000E+00  0.00000000000E+00  0.45593999997E+02  0.45594000000E+02  0.51100000000E-03 0.  1.
         11   -1    0    0    0    0 -0.00000000000E+00 -0.00000000000E+00 -0.45593999997E+02  0.45594000000E+02  0.51100000000E-03 0. -1.
    9900012    2    1    2    0    0  0.32096871847E+02 -0.22329419506E+02  0.11151389724E+02  0.50528860184E+02  0.30000001015E+02 0.  0.
        -12    1    1    2    0    0 -0.32096871847E+02  0.22329419506E+02 -0.11151389724E+02  0.40659139816E+02  0.00000000000E+00 0.  1.
         11    1    3    3    0    0  0.90802347415E+01 -0.11768096039E+02 -0.27709020275E+01  0.15120074261E+02  0.51100000000E-03 0. -1.
        -11    1    3    3    0    0  0.23815416338E+02 -0.13722347919E+02  0.79634799027E+01  0.28616322269E+02  0.51100000000E-03 0.  1.
         12    1    3    3    0    0 -0.79877923266E+00  0.31610244523E+01  0.59588118484E+01  0.67924636544E+01  0.00000000000E+00 0. -1.
</event>
<event>
 7    1  0.6857839E-013  0.5052886E+02  0.7816164E-02  0.1300439E+00
        -11   -1    0    0    0    0  0.00000000000E+00  0.00000000000E+00  0.45593999997E+02  0.45594000000E+02  0.51100000000E-03 0.  1.
         11   -1    0    0    0    0 -0.00000000000E+00 -0.00000000000E+00 -0.45593999997E+02  0.45594000000E+02  0.51100000000E-03 0. -1.
    9900012    2    1    2    0    0  0.13993256957E+02  0.23289559967E+02 -0.30248158026E+02  0.50528857022E+02  0.29999991404E+02 0.  0.
        -12    1    1    2    0    0 -0.13993256957E+02 -0.23289559967E+02  0.30248158026E+02  0.40659142978E+02  0.00000000000E+00 0.  1.
         11    1    3    3    0    0  0.42070656402E+01  0.12393854562E+02 -0.15589181444E+01  0.13180942995E+02  0.51100000000E-03 0.  1.
        -11    1    3    3    0    0  0.10288825829E+02  0.14267577425E+02 -0.14624021077E+02  0.22875438689E+02  0.51100000000E-03 0. -1.
        -12    1    3    3    0    0 -0.50263451281E+00 -0.33718720188E+01 -0.14065218805E+02  0.14472475338E+02  0.00000000000E+00 0.  1.
</event>
<event>
 7    1  0.6857839E-013  0.5052886E+02  0.7816164E-02  0.1300439E+00
        -11   -1    0    0    0    0  0.00000000000E+00  0.00000000000E+00  0.45593999997E+02  0.45594000000E+02  0.51100000000E-03 0.  1.
         11   -1    0    0    0    0 -0.00000000000E+00 -0.00000000000E+00 -0.45593999997E+02  0.45594000000E+02  0.51100000000E-03 0. -1.
    9900012    2    1    2    0    0 -0.34485142065E+02  0.21404047811E+02 -0.24099025129E+01  0.50528856919E+02  0.29999991092E+02 0.  0.
        -12    1    1    2    0    0  0.34485142065E+02 -0.21404047811E+02  0.24099025129E+01  0.40659143081E+02  0.00000000000E+00 0.  1.
         11    1    3    3    0    0 -0.20492192526E+02  0.38008199854E+01 -0.79408461286E+00  0.20856815618E+02  0.51100000000E-03 0. -1.
        -11    1    3    3    0    0  0.14833512607E+01  0.11142513508E+01 -0.63088760119E+01  0.65760021160E+01  0.51100000000E-03 0.  1.
         12    1    3    3    0    0 -0.15476300800E+02  0.16488976475E+02  0.46930581119E+01  0.23096039186E+02  0.00000000000E+00 0. -1.
</event>
<event>
 7    1  0.6857839E-013  0.5052886E+02  0.7816164E-02  0.1300439E+00
        -11   -1    0    0    0    0  0.00000000000E+00  0.00000000000E+00  0.45593999997E+02  0.45594000000E+02  0.51100000000E-03 0. -1.
         11   -1    0    0    0    0 -0.00000000000E+00 -0.00000000000E+00 -0.45593999997E+02  0.45594000000E+02  0.51100000000E-03 0.  1.
    9900012    2    1    2    0    0 -0.16423667858E+02 -0.16355458103E+02  0.33405505773E+02  0.50528859679E+02  0.29999999482E+02 0.  0.
        -12    1    1    2    0    0  0.16423667858E+02  0.16355458103E+02 -0.33405505773E+02  0.40659140321E+02  0.00000000000E+00 0.  1.
         11    1    3    3    0    0 -0.17165366049E+01  0.15884524588E+01 -0.14093475079E+01  0.27305566812E+01  0.51100000000E-03 0. -1.
        -11    1    3    3    0    0  0.61049357173E+01 -0.68133864906E+01  0.98729006107E+01  0.13459815835E+02  0.51100000000E-03 0.  1.
         12    1    3    3    0    0 -0.20812066970E+02 -0.11130524071E+02  0.24941952670E+02  0.34338487163E+02  0.00000000000E+00 0. -1.
</event>
<event>
 7    1  0.6857839E-013  0.5052886E+02  0.7816164E-02  0.1300439E+00
        -11   -1    0    0    0    0  0.00000000000E+00  0.00000000000E+00  0.45593999997E+02  0.45594000000E+02  0.51100000000E-03 0.  1.
         11   -1    0    0    0    0 -0.00000000000E+00 -0.00000000000E+00 -0.45593999997E+02  0.45594000000E+02  0.51100000000E-03 0. -1.
    9900012    2    1    2    0    0 -0.61548485867E+00 -0.64804454891E+01 -0.40134659720E+02  0.50528857040E+02  0.29999991460E+02 0.  0.
        -12    1    1    2    0    0  0.61548485867E+00  0.64804454891E+01  0.40134659720E+02  0.40659142960E+02  0.00000000000E+00 0.  1.
         11    1    3    3    0    0  0.44393942840E+00  0.58205178358E+01 -0.79966811311E+01  0.99006272259E+01  0.51100000000E-03 0. -1.
        -11    1    3    3    0    0 -0.45685853084E+01 -0.17600977573E+02 -0.26454000184E+02  0.32101098256E+02  0.51100000000E-03 0.  1.
         12    1    3    3    0    0  0.35091610213E+01  0.53000142481E+01 -0.56839784052E+01  0.85271315585E+01  0.00000000000E+00 0. -1.
</event>
<event>
 7    1  0.6857839E-013  0.5052885E+02  0.7816164E-02  0.1300439E+00
        -11   -1    0    0    0    0  0.00000000000E+00  0.00000000000E+00  0.45593999997E+02  0.45594000000E+02  0.51100000000E-03 0.  1.
         11   -1    0    0    0    0 -0.00000000000E+00 -0.00000000000E+00 -0.45593999997E+02  0.45594000000E+02  0.51100000000E-03 0. -1.
    9900012    2    1    2    0    0  0.16308489951E+02 -0.37231182288E+02  0.10191767793E+01  0.50528849734E+02  0.29999969252E+02 0.  0.
        -12    1    1    2    0    0 -0.16308489951E+02  0.37231182288E+02 -0.10191767793E+01  0.40659150266E+02  0.00000000000E+00 0.  1.
         11    1    3    3    0    0  0.13338780159E+02 -0.25400218087E+02 -0.72488262575E+01  0.29591208447E+02  0.51100000000E-03 0. -1.
        -11    1    3    3    0    0  0.47163175112E+01  0.20973889739E+01  0.16548665715E+01  0.54204497050E+01  0.51100000000E-03 0.  1.
        -12    1    3    3    0    0 -0.17466077192E+01 -0.13928353175E+02  0.66131364653E+01  0.15517191582E+02  0.00000000000E+00 0.  1.
</event>
<event>
 7    1  0.6857839E-013  0.5052887E+02  0.7816164E-02  0.1300439E+00
        -11   -1    0    0    0    0  0.00000000000E+00  0.00000000000E+00  0.45593999997E+02  0.45594000000E+02  0.51100000000E-03 0. -1.
         11   -1    0    0    0    0 -0.00000000000E+00 -0.00000000000E+00 -0.45593999997E+02  0.45594000000E+02  0.51100000000E-03 0.  1.
    9900012    2    1    2    0    0  0.13699768158E+02 -0.12185735536E+02  0.36290348434E+02  0.50528865878E+02  0.30000018322E+02 0.  0.
        -12    1    1    2    0    0 -0.13699768158E+02  0.12185735536E+02 -0.36290348434E+02  0.40659134122E+02  0.00000000000E+00 0.  1.
         11    1    3    3    0    0 -0.55519560349E+01 -0.52389342658E+01  0.14449155900E+02  0.16341626435E+02  0.51100000000E-03 0. -1.
        -11    1    3    3    0    0  0.81250493023E+00  0.35814906560E+01 -0.73524209239E-01  0.36732336777E+01  0.51100000000E-03 0.  1.
         12    1    3    3    0    0  0.18439219263E+02 -0.10528291926E+02  0.21914716743E+02  0.30514005765E+02  0.00000000000E+00 0. -1.
</event>
<event>
 7    1  0.6857839E-013  0.5052884E+02  0.7816164E-02  0.1300439E+00
        -11   -1    0    0    0    0  0.00000000000E+00  0.00000000000E+00  0.45593999997E+02  0.45594000000E+02  0.51100000000E-03 0. -1.
         11   -1    0    0    0    0 -0.00000000000E+00 -0.00000000000E+00 -0.45593999997E+02  0.45594000000E+02  0.51100000000E-03 0.  1.
    9900012    2    1    2    0    0 -0.86002786302E+01 -0.12077397537E+02  0.37859464940E+02  0.50528838556E+02  0.29999935274E+02 0.  0.
        -12    1    1    2    0    0  0.86002786302E+01  0.12077397537E+02 -0.37859464940E+02  0.40659161444E+02  0.00000000000E+00 0.  1.
         11    1    3    3    0    0 -0.93964785665E+01  0.14700439564E+01  0.17163028732E+02  0.19622038483E+02  0.51100000000E-03 0. -1.
        -11    1    3    3    0    0 -0.62981293680E+01 -0.11950433165E+02  0.19210752677E+02  0.23484724930E+02  0.51100000000E-03 0.  1.
         12    1    3    3    0    0  0.70943293043E+01 -0.15970083287E+01  0.14856835314E+01  0.74220751435E+01  0.00000000000E+00 0. -1.
</event>
<event>
 7    1  0.6857839E-013  0.5052886E+02  0.7816164E-02  0.1300439E+00
        -11   -1    0    0    0    0  0.00000000000E+00  0.00000000000E+00  0.45593999997E+02  0.45594000000E+02  0.51100000000E-03 0. -1.
         11   -1    0    0    0    0 -0.00000000000E+00 -0.00000000000E+00 -0.45593999997E+02  0.45594000000E+02  0.51100000000E-03 0.  1.
    9900012    2    1    2    0    0  0.73429202649E+01 -0.39869539615E+02 -0.31091837128E+01  0.50528859693E+02  0.29999999524E+02 0.  0.
        -12    1    1    2    0    0 -0.73429202649E+01  0.39869539615E+02  0.31091837128E+01  0.40659140307E+02  0.00000000000E+00 0.  1.
         11    1    3    3    0    0  0.40871011301E+01 -0.27276421160E+02  0.47468582954E+01  0.27986429049E+02  0.51100000000E-03 0. -1.
        -11    1    3    3    0    0  0.68682332588E+01 -0.15114414564E+02 -0.51939046304E+01  0.17395252263E+02  0.51100000000E-03 0.  1.
         12    1    3    3    0    0 -0.36124141239E+01  0.25212961096E+01 -0.26621373778E+01  0.51471783817E+01  0.00000000000E+00 0. -1.
</event>
<event>
 7    1  0.6857839E-013  0.5052883E+02  0.7816164E-02  0.1300439E+00
        -11   -1    0    0    0    0  0.00000000000E+00  0.00000000000E+00  0.45593999997E+02  0.45594000000E+02  0.51100000000E-03 0.  1.
         11   -1    0    0    0    0 -0.00000000000E+00 -0.00000000000E+00 -0.45593999997E+02  0.45594000000E+02  0.51100000000E-03 0. -1.
    9900012    2    1    2    0    0 -0.31966744938E+02 -0.16096739687E+02 -0.19292240615E+02  0.50528826885E+02  0.29999899799E+02 0.  0.
        -12    1    1    2    0    0  0.31966744938E+02  0.16096739687E+02  0.19292240615E+02  0.40659173115E+02  0.00000000000E+00 0.  1.
         11    1    3    3    0    0 -0.54902694517E+01  0.28826496912E+01 -0.51437974319E+01  0.80567599056E+01  0.51100000000E-03 0. -1.
        -11    1    3    3    0    0 -0.95660256114E+00  0.35792045105E+00  0.50409723003E+01  0.51434032997E+01  0.51100000000E-03 0.  1.
         12    1    3    3    0    0 -0.25519872925E+02 -0.19337309829E+02 -0.19189415483E+02  0.37328663680E+02  0.00000000000E+00 0. -1.
</event>
<event>
 7    1  0.6857839E-013  0.5052886E+02  0.7816164E-02  0.1300439E+00
        -11   -1    0    0    0    0  0.00000000000E+00  0.00000000000E+00  0.45593999997E+02  0.45594000000E+02  0.51100000000E-03 0. -1.
         11   -1    0    0    0    0 -0.00000000000E+00 -0.00000000000E+00 -0.45593999997E+02  0.45594000000E+02  0.51100000000E-03 0.  1.
    9900012    2    1    2    0    0 -0.34196647697E+02  0.17388834952E+02  0.13467869473E+02  0.50528858311E+02  0.29999995323E+02 0.  0.
        -12    1    1    2    0    0  0.34196647697E+02 -0.17388834952E+02 -0.13467869473E+02  0.40659141689E+02  0.00000000000E+00 0.  1.
         11    1    3    3    0    0 -0.37461207981E+02  0.13598399773E+02  0.15998105572E+02  0.42944126047E+02  0.51100000000E-03 0. -1.
        -11    1    3    3    0    0  0.38455212353E+00 -0.17790378796E+00  0.12970997555E+01  0.13645505232E+01  0.51100000000E-03 0.  1.
         12    1    3    3    0    0  0.28800081601E+01  0.39683389669E+01 -0.38273358541E+01  0.62201817416E+01  0.00000000000E+00 0. -1.
</event>
<event>
 7    1  0.6857839E-013  0.5052886E+02  0.7816164E-02  0.1300439E+00
        -11   -1    0    0    0    0  0.00000000000E+00  0.00000000000E+00  0.45593999997E+02  0.45594000000E+02  0.51100000000E-03 0. -1.
         11   -1    0    0    0    0 -0.00000000000E+00 -0.00000000000E+00 -0.45593999997E+02  0.45594000000E+02  0.51100000000E-03 0.  1.
    9900012    2    1    2    0    0 -0.95503027043E+01 -0.31784802113E+02 -0.23487946212E+02  0.50528861490E+02  0.30000004985E+02 0.  0.
        -12    1    1    2    0    0  0.95503027043E+01  0.31784802113E+02  0.23487946212E+02  0.40659138510E+02  0.00000000000E+00 0.  1.
         11    1    3    3    0    0 -0.89900045187E+01 -0.10511047286E+02  0.10188161629E+01  0.13868679927E+02  0.51100000000E-03 0. -1.
        -11    1    3    3    0    0  0.80626027053E+01 -0.78856642020E+01 -0.89462408672E+01  0.14395293960E+02  0.51100000000E-03 0.  1.
        -12    1    3    3    0    0 -0.86229008909E+01 -0.13388090625E+02 -0.15560521508E+02  0.22264887603E+02  0.00000000000E+00 0.  1.
</event>
<event>
 7    1  0.6857839E-013  0.5052886E+02  0.7816164E-02  0.1300439E+00
        -11   -1    0    0    0    0  0.00000000000E+00  0.00000000000E+00  0.45593999997E+02  0.45594000000E+02  0.51100000000E-03 0.  1.
         11   -1    0    0    0    0 -0.00000000000E+00 -0.00000000000E+00 -0.45593999997E+02  0.45594000000E+02  0.51100000000E-03 0. -1.
    9900012    2    1    2    0    0  0.58871801612E+01 -0.13848678691E+02 -0.37771962218E+02  0.50528856851E+02  0.29999990886E+02 0.  0.
        -12    1    1    2    0    0 -0.58871801612E+01  0.13848678691E+02  0.37771962218E+02  0.40659143149E+02  0.00000000000E+00 0.  1.
         11    1    3    3    0    0 -0.51787192849E+01 -0.16074551092E+02 -0.31316134342E+02  0.35579637387E+02  0.51100000000E-03 0. -1.
        -11    1    3    3    0    0  0.64821898770E+01 -0.19298551402E+01 -0.54391142546E+01  0.86791180772E+01  0.51100000000E-03 0.  1.
        -12    1    3    3    0    0  0.45837095691E+01  0.41557275414E+01 -0.10167136223E+01  0.62701013869E+01  0.00000000000E+00 0.  1.
</event>
<event>
 7    1  0.6857839E-013  0.5052887E+02  0.7816164E-02  0.1300439E+00
        -11   -1    0    0    0    0  0.00000000000E+00  0.00000000000E+00  0.45593999997E+02  0.45594000000E+02  0.51100000000E-03 0.  1.
         11   -1    0    0    0    0 -0.00000000000E+00 -0.00000000000E+00 -0.45593999997E+02  0.45594000000E+02  0.51100000000E-03 0. -1.
    9900012    2    1    2    0    0 -0.25424042359E+02  0.30163220328E+02 -0.98469974993E+01  0.50528866338E+02  0.30000019720E+02 0.  0.
        -12    1    1    2    0    0  0.25424042359E+02 -0.30163220328E+02  0.98469974993E+01  0.40659133662E+02  0.00000000000E+00 0.  1.
         11    1    3    3    0    0  0.21322423437E+00  0.10279276540E+02 -0.94633005059E+01  0.13973655480E+02  0.51100000000E-03 0. -1.
        -11    1    3    3    0    0 -0.16857785950E+01  0.10645749769E+02  0.11410300596E+01  0.10838624796E+02  0.51100000000E-03 0.  1.
        -12    1    3    3    0    0 -0.23951487998E+02  0.92381940193E+01 -0.15247270530E+01  0.25716586061E+02  0.00000000000E+00 0.  1.
</event>
<event>
 7    1  0.6857839E-013  0.5052888E+02  0.7816164E-02  0.1300439E+00
        -11   -1    0    0    0    0  0.00000000000E+00  0.00000000000E+00  0.45593999997E+02  0.45594000000E+02  0.51100000000E-03 0.  1.
         11   -1    0    0    0    0 -0.00000000000E+00 -0.00000000000E+00 -0.45593999997E+02  0.45594000000E+02  0.51100000000E-03 0. -1.
    9900012    2    1    2    0    0  0.46084109612E+01 -0.22827057615E+02 -0.33329450439E+02  0.50528877069E+02  0.30000052338E+02 0.  0.
        -12    1    1    2    0    0 -0.46084109612E+01  0.22827057615E+02  0.33329450439E+02  0.40659122931E+02  0.00000000000E+00 0.  1.
         11    1    3    3    0    0 -0.17036785514E+01  0.30183055375E+01 -0.37685685188E+01  0.51200388539E+01  0.51100000000E-03 0. -1.
        -11    1    3    3    0    0  0.13045643457E+02 -0.11705005807E+02 -0.94290146034E+01  0.19902318729E+02  0.51100000000E-03 0.  1.
         12    1    3    3    0    0 -0.67335539445E+01 -0.14140357346E+02 -0.20131867317E+02  0.25506519485E+02  0.00000000000E+00 0. -1.
</event>
<event>
 7    1  0.6857839E-013  0.5052887E+02  0.7816164E-02  0.1300439E+00
        -11   -1    0    0    0    0  0.00000000000E+00  0.00000000000E+00  0.45593999997E+02  0.45594000000E+02  0.51100000000E-03 0.  1.
         11   -1    0    0    0    0 -0.00000000000E+00 -0.00000000000E+00 -0.45593999997E+02  0.45594000000E+02  0.51100000000E-03 0. -1.
    9900012    2    1    2    0    0  0.26556533030E+02 -0.11546035283E+02 -0.28541283410E+02  0.50528865282E+02  0.30000016511E+02 0.  0.
        -12    1    1    2    0    0 -0.26556533030E+02  0.11546035283E+02  0.28541283410E+02  0.40659134718E+02  0.00000000000E+00 0.  1.
         11    1    3    3    0    0  0.29391051323E+00 -0.40834277728E+01 -0.13100963022E+02  0.13725742170E+02  0.51100000000E-03 0. -1.
        -11    1    3    3    0    0  0.36973251561E+01  0.46198141014E+01  0.15053803943E+01  0.61056585258E+01  0.51100000000E-03 0.  1.
        -12    1    3    3    0    0  0.22565297361E+02 -0.12082421611E+02 -0.16945700782E+02  0.30697464586E+02  0.00000000000E+00 0.  1.
</event>
<event>
 7    1  0.6857839E-013  0.5052872E+02  0.7816164E-02  0.1300439E+00
        -11   -1    0    0    0    0  0.00000000000E+00  0.00000000000E+00  0.45593999997E+02  0.45594000000E+02  0.51100000000E-03 0. -1.
         11   -1    0    0    0    0 -0.00000000000E+00 -0.00000000000E+00 -0.45593999997E+02  0.45594000000E+02  0.51100000000E-03 0.  1.
    9900012    2    1    2    0    0 -0.27539306911E+01  0.37825604488E+02  0.14656632368E+02  0.50528716171E+02  0.29999563270E+02 0.  0.
        -12    1    1    2    0    0  0.27539306911E+01 -0.37825604488E+02 -0.14656632368E+02  0.40659283829E+02  0.00000000000E+00 0.  1.
         11    1    3    3    0    0 -0.17874690654E+01  0.15496738521E+01 -0.61979795696E+01  0.66341152925E+01  0.51100000000E-03 0.  1.
        -11    1    3    3    0    0  0.59009151689E+01  0.16295259080E+02  0.73874076538E+01  0.18839587586E+02  0.51100000000E-03 0. -1.
        -12    1    3    3    0    0 -0.68673767946E+01  0.19980671556E+02  0.13467204284E+02  0.25055013292E+02  0.00000000000E+00 0.  1.
</event>
<event>
 7    1  0.6857839E-013  0.5052886E+02  0.7816164E-02  0.1300439E+00
        -11   -1    0    0    0    0  0.00000000000E+00  0.00000000000E+00  0.45593999997E+02  0.45594000000E+02  0.51100000000E-03 0.  1.
         11   -1    0    0    0    0 -0.00000000000E+00 -0.00000000000E+00 -0.45593999997E+02  0.45594000000E+02  0.51100000000E-03 0. -1.
    9900012    2    1    2    0    0 -0.28188164237E+02  0.67280792688E+01 -0.28518868252E+02  0.50528862035E+02  0.30000006642E+02 0.  0.
        -12    1    1    2    0    0  0.28188164237E+02 -0.67280792688E+01  0.28518868252E+02  0.40659137965E+02  0.00000000000E+00 0.  1.
         11    1    3    3    0    0 -0.13614636204E+02  0.44795593476E+00 -0.24663087213E+02  0.28174933090E+02  0.51100000000E-03 0. -1.
        -11    1    3    3    0    0 -0.68223504133E+01  0.10074106711E+02 -0.58446005434E+01  0.13497831194E+02  0.51100000000E-03 0.  1.
         12    1    3    3    0    0 -0.77511776197E+01 -0.37939833767E+01  0.19888195044E+01  0.88560977510E+01  0.00000000000E+00 0. -1.
</event>
<event>
 7    1  0.6857839E-013  0.5052886E+02  0.7816164E-02  0.1300439E+00
        -11   -1    0    0    0    0  0.00000000000E+00  0.00000000000E+00  0.45593999997E+02  0.45594000000E+02  0.51100000000E-03 0. -1.
         11   -1    0    0    0    0 -0.00000000000E+00 -0.00000000000E+00 -0.45593999997E+02  0.45594000000E+02  0.51100000000E-03 0.  1.
    9900012    2    1    2    0    0 -0.24679390561E+01  0.39175586079E+02 -0.10599455927E+02  0.50528859161E+02  0.29999997906E+02 0.  0.
        -12    1    1    2    0    0  0.24679390561E+01 -0.39175586079E+02  0.10599455927E+02  0.40659140839E+02  0.00000000000E+00 0.  1.
         11    1    3    3    0    0  0.12499111804E+01 -0.27523251773E+01  0.22156112964E+01  0.37478667957E+01  0.51100000000E-03 0. -1.
        -11    1    3    3    0    0  0.40245023657E+01  0.60443217579E+01 -0.60541020238E+01  0.94542369539E+01  0.51100000000E-03 0.  1.
        -12    1    3    3    0    0 -0.77423526022E+01  0.35883589498E+02 -0.67609651994E+01  0.37326755411E+02  0.00000000000E+00 0.  1.
</event>
<event>
 7    1  0.6857839E-013  0.5052885E+02  0.7816164E-02  0.1300439E+00
        -11   -1    0    0    0    0  0.00000000000E+00  0.00000000000E+00  0.45593999997E+02  0.45594000000E+02  0.51100000000E-03 0. -1.
         11   -1    0    0    0    0 -0.00000000000E+00 -0.00000000000E+00 -0.45593999997E+02  0.45594000000E+02  0.51100000000E-03 0.  1.
    9900012    2    1    2    0    0 -0.14918281161E+02  0.37781802177E+02 -0.17738615339E+01  0.50528852527E+02  0.29999977741E+02 0.  0.
        -12    1    1    2    0    0  0.14918281161E+02 -0.37781802177E+02  0.17738615339E+01  0.40659147473E+02  0.00000000000E+00 0.  1.
         11    1    3    3    0    0  0.31469643268E+01  0.94217682707E+01 -0.47389068399E+00  0.99447309899E+01  0.51100000000E-03 0. -1.
        -11    1    3    3    0    0 -0.78580910130E+01  0.10068189277E+01 -0.73062960126E+01  0.10777070122E+02  0.51100000000E-03 0.  1.
         12    1    3    3    0    0 -0.10207154475E+02  0.27353214978E+02  0.60063251627E+01  0.29807051415E+02  0.00000000000E+00 0. -1.
</event>
<event>
 7    1  0.6857839E-013  0.5052886E+02  0.7816164E-02  0.1300439E+00
        -11   -1    0    0    0    0  0.00000000000E+00  0.00000000000E+00  0.45593999997E+02  0.45594000000E+02  0.51100000000E-03 0.  1.
         11   -1    0    0    0    0 -0.00000000000E+00 -0.00000000000E+00 -0.45593999997E+02  0.45594000000E+02  0.51100000000E-03 0. -1.
    9900012    2    1    2    0    0  0.33566938839E+02 -0.71404174055E+00 -0.22932873040E+02  0.50528857062E+02  0.29999991525E+02 0.  0.
        -12    1    1    2    0    0 -0.33566938839E+02  0.71404174055E+00  0.22932873040E+02  0.40659142938E+02  0.00000000000E+00 0.  1.
         11    1    3    3    0    0  0.99107892047E+01  0.50026851609E+01  0.31857734609E+01  0.11549881137E+02  0.51100000000E-03 0. -1.
        -11    1    3    3    0    0 -0.16629205606E+01  0.59004139404E+00 -0.53387851824E+01  0.56228178988E+01  0.51100000000E-03 0.  1.
         12    1    3    3    0    0  0.25319070195E+02 -0.63067682955E+01 -0.20779861318E+02  0.33356158026E+02  0.00000000000E+00 0. -1.
</event>
<event>
 7    1  0.6857839E-013  0.5052886E+02  0.7816164E-02  0.1300439E+00
        -11   -1    0    0    0    0  0.00000000000E+00  0.00000000000E+00  0.45593999997E+02  0.45594000000E+02  0.51100000000E-03 0.  1.
         11   -1    0    0    0    0 -0.00000000000E+00 -0.00000000000E+00 -0.45593999997E+02  0.45594000000E+02  0.51100000000E-03 0. -1.
    9900012    2    1    2    0    0  0.24370199461E+02 -0.80448927578E+01 -0.31536308770E+02  0.50528859674E+02  0.29999999465E+02 0.  0.
        -12    1    1    2    0    0 -0.24370199461E+02  0.80448927578E+01  0.31536308770E+02  0.40659140326E+02  0.00000000000E+00 0.  1.
         11    1    3    3    0    0  0.18350624729E+02 -0.20536859467E+01 -0.16867247941E+02  0.25009340400E+02  0.51100000000E-03 0. -1.
        -11    1    3    3    0    0  0.47174856430E+00  0.61570797966E+01 -0.92170331504E+01  0.11094407541E+02  0.51100000000E-03 0.  1.
        -12    1    3    3    0    0  0.55478261677E+01 -0.12148286608E+02 -0.54520276784E+01  0.14425111732E+02  0.00000000000E+00 0.  1.
</event>
<event>
 7    1  0.7691467E-013  0.5052886E+02  0.7816164E-02  0.1300439E+00
        -11   -1    0    0    0    0  0.00000000000E+00  0.00000000000E+00  0.45593999997E+02  0.45594000000E+02  0.51100000000E-03 0.  1.
         11   -1    0    0    0    0 -0.00000000000E+00 -0.00000000000E+00 -0.45593999997E+02  0.45594000000E+02  0.51100000000E-03 0. -1.
    9900012    2    1    2    0    0  0.18217073017E+02  0.35413213256E+02 -0.81980711443E+01  0.50528858433E+02  0.29999995694E+02 0.  0.
        -12    1    1    2    0    0 -0.18217073017E+02 -0.35413213256E+02  0.81980711443E+01  0.40659141567E+02  0.00000000000E+00 0.  1.
         11    1    3    3    0    0  0.99260516098E+01  0.18905668719E+02 -0.58721078791E+01  0.22145709776E+02  0.51100000000E-03 0. -1.
        -11    1    3    3    0    0  0.78195664794E+01  0.12979021331E+02  0.82298031932E+01  0.17243267541E+02  0.51100000000E-03 0.  1.
        -12    1    3    3    0    0  0.47145492775E+00  0.35285232069E+01 -0.10555766458E+02  0.11139881117E+02  0.00000000000E+00 0.  1.
</event>
<event>
 7    1  0.6857839E-013  0.5052887E+02  0.7816164E-02  0.1300439E+00
        -11   -1    0    0    0    0  0.00000000000E+00  0.00000000000E+00  0.45593999997E+02  0.45594000000E+02  0.51100000000E-03 0.  1.
         11   -1    0    0    0    0 -0.00000000000E+00 -0.00000000000E+00 -0.45593999997E+02  0.45594000000E+02  0.51100000000E-03 0. -1.
    9900012    2    1    2    0    0  0.17624542592E+02 -0.13488128879E+02 -0.34067742195E+02  0.50528865965E+02  0.30000018586E+02 0.  0.
        -12    1    1    2    0    0 -0.17624542592E+02  0.13488128879E+02  0.34067742195E+02  0.40659134035E+02  0.00000000000E+00 0.  1.
         11    1    3    3    0    0  0.50298605734E+01  0.12989758802E+01 -0.18331819813E+02  0.19053672970E+02  0.51100000000E-03 0. -1.
        -11    1    3    3    0    0  0.20368041758E+01  0.71446615819E+00 -0.12199819347E+02  0.12389294794E+02  0.51100000000E-03 0.  1.
        -12    1    3    3    0    0  0.10557877843E+02 -0.15501570918E+02 -0.35361030354E+01  0.19085898201E+02  0.00000000000E+00 0.  1.
</event>
<event>
 7    1  0.6857839E-013  0.5052886E+02  0.7816164E-02  0.1300439E+00
        -11   -1    0    0    0    0  0.00000000000E+00  0.00000000000E+00  0.45593999997E+02  0.45594000000E+02  0.51100000000E-03 0.  1.
         11   -1    0    0    0    0 -0.00000000000E+00 -0.00000000000E+00 -0.45593999997E+02  0.45594000000E+02  0.51100000000E-03 0. -1.
    9900012    2    1    2    0    0 -0.17806616892E+01 -0.11705757930E+02 -0.38896919689E+02  0.50528857288E+02  0.29999992212E+02 0.  0.
        -12    1    1    2    0    0  0.17806616892E+01  0.11705757930E+02  0.38896919689E+02  0.40659142712E+02  0.00000000000E+00 0.  1.
         11    1    3    3    0    0 -0.66738366905E+01 -0.59852188257E+01 -0.13265868646E+02  0.16010815462E+02  0.51100000000E-03 0. -1.
        -11    1    3    3    0    0 -0.58844027493E+01 -0.99070198957E+01 -0.11840744153E+02  0.16522059838E+02  0.51100000000E-03 0.  1.
        -12    1    3    3    0    0  0.10777577751E+02  0.41864807912E+01 -0.13790306890E+02  0.17995981988E+02  0.00000000000E+00 0.  1.
</event>
<event>
 7    1  0.6857839E-013  0.5052886E+02  0.7816164E-02  0.1300439E+00
        -11   -1    0    0    0    0  0.00000000000E+00  0.00000000000E+00  0.45593999997E+02  0.45594000000E+02  0.51100000000E-03 0.  1.
         11   -1    0    0    0    0 -0.00000000000E+00 -0.00000000000E+00 -0.45593999997E+02  0.45594000000E+02  0.51100000000E-03 0. -1.
    9900012    2    1    2    0    0 -0.47491829077E+00  0.24379664891E+02 -0.32535707437E+02  0.50528857535E+02  0.29999992963E+02 0.  0.
        -12    1    1    2    0    0  0.47491829077E+00 -0.24379664891E+02  0.32535707437E+02  0.40659142465E+02  0.00000000000E+00 0.  1.
         11    1    3    3    0    0  0.66851235887E+01  0.17523830182E+02 -0.70158336426E+01  0.20024920065E+02  0.51100000000E-03 0.  1.
        -11    1    3    3    0    0  0.90071262742E+00 -0.28689765413E+01 -0.14887231934E+01  0.33553847230E+01  0.51100000000E-03 0. -1.
         12    1    3    3    0    0 -0.80607545069E+01  0.97248112503E+01 -0.24031150601E+02  0.27148552747E+02  0.00000000000E+00 0. -1.
</event>
<event>
 7    1  0.6857839E-013  0.5052886E+02  0.7816164E-02  0.1300439E+00
        -11   -1    0    0    0    0  0.00000000000E+00  0.00000000000E+00  0.45593999997E+02  0.45594000000E+02  0.51100000000E-03 0.  1.
         11   -1    0    0    0    0 -0.00000000000E+00 -0.00000000000E+00 -0.45593999997E+02  0.45594000000E+02  0.51100000000E-03 0. -1.
    9900012    2    1    2    0    0  0.17466516003E+02  0.12129324522E+01 -0.36696253346E+02  0.50528863314E+02  0.30000010531E+02 0.  0.
        -12    1    1    2    0    0 -0.17466516003E+02 -0.12129324522E+01  0.36696253346E+02  0.40659136686E+02  0.00000000000E+00 0.  1.
         11    1    3    3    0    0  0.11721147134E+02  0.47253150820E+01 -0.15748083712E+02  0.20191979438E+02  0.51100000000E-03 0. -1.
        -11    1    3    3    0    0  0.48155528965E+00 -0.39917043169E+01 -0.23931890080E+02  0.24267281717E+02  0.51100000000E-03 0.  1.
         12    1    3    3    0    0  0.52638135786E+01  0.47932168718E+00  0.29837204467E+01  0.60696021595E+01  0.00000000000E+00 0. -1.
</event>
<event>
 7    1  0.6857839E-013  0.5052886E+02  0.7816164E-02  0.1300439E+00
        -11   -1    0    0    0    0  0.00000000000E+00  0.00000000000E+00  0.45593999997E+02  0.45594000000E+02  0.51100000000E-03 0.  1.
         11   -1    0    0    0    0 -0.00000000000E+00 -0.00000000000E+00 -0.45593999997E+02  0.45594000000E+02  0.51100000000E-03 0. -1.
    9900012    2    1    2    0    0 -0.28792424375E+02 -0.11476461856E+02 -0.26314491859E+02  0.50528863758E+02  0.30000011879E+02 0.  0.
        -12    1    1    2    0    0  0.28792424375E+02  0.11476461856E+02  0.26314491859E+02  0.40659136242E+02  0.00000000000E+00 0.  1.
         11    1    3    3    0    0 -0.21375874753E+02  0.18565963246E+01 -0.10001946403E+02  0.23673062825E+02  0.51100000000E-03 0. -1.
        -11    1    3    3    0    0 -0.51346172137E+01  0.52413796056E+00 -0.10415364987E+02  0.11624063085E+02  0.51100000000E-03 0.  1.
        -12    1    3    3    0    0 -0.22819324082E+01 -0.13857196141E+02 -0.58971804689E+01  0.15231737848E+02  0.00000000000E+00 0.  1.
</event>
<event>
 7    1  0.6857839E-013  0.5052886E+02  0.7816164E-02  0.1300439E+00
        -11   -1    0    0    0    0  0.00000000000E+00  0.00000000000E+00  0.45593999997E+02  0.45594000000E+02  0.51100000000E-03 0.  1.
         11   -1    0    0    0    0 -0.00000000000E+00 -0.00000000000E+00 -0.45593999997E+02  0.45594000000E+02  0.51100000000E-03 0. -1.
    9900012    2    1    2    0    0  0.11966528376E+02 -0.10547715262E+02 -0.37399379514E+02  0.50528859740E+02  0.29999999666E+02 0.  0.
        -12    1    1    2    0    0 -0.11966528376E+02  0.10547715262E+02  0.37399379514E+02  0.40659140260E+02  0.00000000000E+00 0.  1.
         11    1    3    3    0    0  0.14150449774E+02 -0.11825568445E+02 -0.16932075263E+02  0.25035464262E+02  0.51100000000E-03 0. -1.
        -11    1    3    3    0    0  0.60974205825E+01  0.20196263658E+01 -0.59071891953E+01  0.87265292567E+01  0.51100000000E-03 0.  1.
        -12    1    3    3    0    0 -0.82813419803E+01 -0.74177318310E+00 -0.14560115056E+02  0.16766866222E+02  0.00000000000E+00 0.  1.
</event>
<event>
 7    1  0.6948945E-013  0.5052887E+02  0.7816164E-02  0.1300439E+00
        -11   -1    0    0    0    0  0.00000000000E+00  0.00000000000E+00  0.45593999997E+02  0.45594000000E+02  0.51100000000E-03 0.  1.
         11   -1    0    0    0    0 -0.00000000000E+00 -0.00000000000E+00 -0.45593999997E+02  0.45594000000E+02  0.51100000000E-03 0. -1.
    9900012    2    1    2    0    0  0.37956390435E+02  0.14332426290E+02  0.26568830457E+01  0.50528867622E+02  0.30000023624E+02 0.  0.
        -12    1    1    2    0    0 -0.37956390435E+02 -0.14332426290E+02 -0.26568830457E+01  0.40659132378E+02  0.00000000000E+00 0.  1.
         11    1    3    3    0    0  0.29567640506E+02  0.14066289744E+02  0.27964126685E+01  0.32862224458E+02  0.51100000000E-03 0. -1.
        -11    1    3    3    0    0 -0.23617417412E+01  0.52907161934E+01  0.15994869043E+00  0.57961267875E+01  0.51100000000E-03 0.  1.
        -12    1    3    3    0    0  0.10750491670E+02 -0.50245796477E+01 -0.29947831327E+00  0.11870516376E+02  0.00000000000E+00 0.  1.
</event>
<event>
 7    1  0.6857839E-013  0.5052885E+02  0.7816164E-02  0.1300439E+00
        -11   -1    0    0    0    0  0.00000000000E+00  0.00000000000E+00  0.45593999997E+02  0.45594000000E+02  0.51100000000E-03 0. -1.
         11   -1    0    0    0    0 -0.00000000000E+00 -0.00000000000E+00 -0.45593999997E+02  0.45594000000E+02  0.51100000000E-03 0.  1.
    9900012    2    1    2    0    0 -0.24936527588E+02  0.17863579101E+02  0.26687616579E+02  0.50528846724E+02  0.29999960104E+02 0.  0.
        -12    1    1    2    0    0  0.24936527588E+02 -0.17863579101E+02 -0.26687616579E+02  0.40659153276E+02  0.00000000000E+00 0.  1.
         11    1    3    3    0    0 -0.23246600701E+02  0.70999019515E+01  0.12847069674E+02  0.27492912747E+02  0.51100000000E-03 0.  1.
        -11    1    3    3    0    0 -0.31636321042E+01 -0.20926067895E+01  0.79690405280E+01  0.88257112158E+01  0.51100000000E-03 0. -1.
        -12    1    3    3    0    0  0.14737052172E+01  0.12856283939E+02  0.58715063761E+01  0.14210222761E+02  0.00000000000E+00 0.  1.
</event>
<event>
 7    1  0.6857839E-013  0.5052884E+02  0.7816164E-02  0.1300439E+00
        -11   -1    0    0    0    0  0.00000000000E+00  0.00000000000E+00  0.45593999997E+02  0.45594000000E+02  0.51100000000E-03 0.  1.
         11   -1    0    0    0    0 -0.00000000000E+00 -0.00000000000E+00 -0.45593999997E+02  0.45594000000E+02  0.51100000000E-03 0. -1.
    9900012    2    1    2    0    0 -0.31602993636E+02  0.19866351480E+02  0.16116643833E+02  0.50528839453E+02  0.29999938002E+02 0.  0.
        -12    1    1    2    0    0  0.31602993636E+02 -0.19866351480E+02 -0.16116643833E+02  0.40659160547E+02  0.00000000000E+00 0.  1.
         11    1    3    3    0    0 -0.15778739334E+02  0.43256012595E+01 -0.54366339940E+01  0.17240546124E+02  0.51100000000E-03 0. -1.
        -11    1    3    3    0    0 -0.44660219773E+01  0.29876542945E+01  0.13522814234E+02  0.14551217666E+02  0.51100000000E-03 0.  1.
         12    1    3    3    0    0 -0.11358232325E+02  0.12553095926E+02  0.80304635933E+01  0.18737075663E+02  0.00000000000E+00 0. -1.
</event>
<event>
 7    1  0.6857839E-013  0.5052886E+02  0.7816164E-02  0.1300439E+00
        -11   -1    0    0    0    0  0.00000000000E+00  0.00000000000E+00  0.45593999997E+02  0.45594000000E+02  0.51100000000E-03 0.  1.
         11   -1    0    0    0    0 -0.00000000000E+00 -0.00000000000E+00 -0.45593999997E+02  0.45594000000E+02  0.51100000000E-03 0. -1.
    9900012    2    1    2    0    0 -0.12896936676E+02 -0.29252516419E+02 -0.25122202593E+02  0.50528858892E+02  0.29999997089E+02 0.  0.
        -12    1    1    2    0    0  0.12896936676E+02  0.29252516419E+02  0.25122202593E+02  0.40659141108E+02  0.00000000000E+00 0.  1.
         11    1    3    3    0    0 -0.59132019460E+01 -0.16890425310E+02 -0.56398559814E+01  0.18763272640E+02  0.51100000000E-03 0. -1.
        -11    1    3    3    0    0 -0.50962970909E+01 -0.17100752909E+02 -0.19800937970E+02  0.26654927103E+02  0.51100000000E-03 0.  1.
        -12    1    3    3    0    0 -0.18874376388E+01  0.47386617997E+01  0.31859135850E+00  0.51106591498E+01  0.00000000000E+00 0.  1.
</event>
<event>
 7    1  0.6857839E-013  0.5052886E+02  0.7816164E-02  0.1300439E+00
        -11   -1    0    0    0    0  0.00000000000E+00  0.00000000000E+00  0.45593999997E+02  0.45594000000E+02  0.51100000000E-03 0.  1.
         11   -1    0    0    0    0 -0.00000000000E+00 -0.00000000000E+00 -0.45593999997E+02  0.45594000000E+02  0.51100000000E-03 0. -1.
    9900012    2    1    2    0    0  0.11557145059E+02  0.27697129357E+02 -0.27431134493E+02  0.50528859378E+02  0.29999998565E+02 0.  0.
        -12    1    1    2    0    0 -0.11557145059E+02 -0.27697129357E+02  0.27431134493E+02  0.40659140622E+02  0.00000000000E+00 0.  1.
         11    1    3    3    0    0 -0.12548541910E+01 -0.27766742999E+01 -0.99237638224E+01  0.10381024413E+02  0.51100000000E-03 0. -1.
        -11    1    3    3    0    0  0.70943457137E+01  0.25248278250E+01 -0.47030528185E+01  0.88782432229E+01  0.51100000000E-03 0.  1.
         12    1    3    3    0    0  0.57176535367E+01  0.27948975832E+02 -0.12804317852E+02  0.31269591742E+02  0.00000000000E+00 0. -1.
</event>
<event>
 7    1  0.6857839E-013  0.5052886E+02  0.7816164E-02  0.1300439E+00
        -11   -1    0    0    0    0  0.00000000000E+00  0.00000000000E+00  0.45593999997E+02  0.45594000000E+02  0.51100000000E-03 0.  1.
         11   -1    0    0    0    0 -0.00000000000E+00 -0.00000000000E+00 -0.45593999997E+02  0.45594000000E+02  0.51100000000E-03 0. -1.
    9900012    2    1    2    0    0  0.24094367737E+02  0.22886675701E+00 -0.32750187782E+02  0.50528859129E+02  0.29999997808E+02 0.  0.
        -12    1    1    2    0    0 -0.24094367737E+02 -0.22886675701E+00  0.32750187782E+02  0.40659140871E+02  0.00000000000E+00 0.  1.
         11    1    3    3    0    0  0.11810744169E+02  0.11346966119E+01 -0.32656917734E+02  0.34745582315E+02  0.51100000000E-03 0. -1.
        -11    1    3    3    0    0 -0.83545345408E+00  0.18518956395E+01 -0.11524099390E+01  0.23357116394E+01  0.51100000000E-03 0.  1.
         12    1    3    3    0    0  0.13119077022E+02 -0.27577254944E+01  0.10591398915E+01  0.13447565175E+02  0.00000000000E+00 0. -1.
</event>
<event>
 7    1  0.6857839E-013  0.5052885E+02  0.7816164E-02  0.1300439E+00
        -11   -1    0    0    0    0  0.00000000000E+00  0.00000000000E+00  0.45593999997E+02  0.45594000000E+02  0.51100000000E-03 0. -1.
         11   -1    0    0    0    0 -0.00000000000E+00 -0.00000000000E+00 -0.45593999997E+02  0.45594000000E+02  0.51100000000E-03 0.  1.
    9900012    2    1    2    0    0 -0.17571463391E+02 -0.23695211163E+02  0.27981199019E+02  0.50528845356E+02  0.29999955945E+02 0.  0.
        -12    1    1    2    0    0  0.17571463391E+02  0.23695211163E+02 -0.27981199019E+02  0.40659154644E+02  0.00000000000E+00 0.  1.
         11    1    3    3    0    0 -0.54344795372E+01 -0.19393724080E+02  0.55811365347E+01  0.20899741310E+02  0.51100000000E-03 0. -1.
        -11    1    3    3    0    0  0.26015798463E+01 -0.38325575712E+00  0.88368898853E+01  0.92198549760E+01  0.51100000000E-03 0.  1.
        -12    1    3    3    0    0 -0.14738563700E+02 -0.39182313262E+01  0.13563172599E+02  0.20409249071E+02  0.00000000000E+00 0.  1.
</event>
<event>
 7    1  0.6857839E-013  0.5052883E+02  0.7816164E-02  0.1300439E+00
        -11   -1    0    0    0    0  0.00000000000E+00  0.00000000000E+00  0.45593999997E+02  0.45594000000E+02  0.51100000000E-03 0.  1.
         11   -1    0    0    0    0 -0.00000000000E+00 -0.00000000000E+00 -0.45593999997E+02  0.45594000000E+02  0.51100000000E-03 0. -1.
    9900012    2    1    2    0    0  0.39963115419E+02  0.66380559549E+01 -0.34718222530E+01  0.50528832146E+02  0.29999915790E+02 0.  0.
        -12    1    1    2    0    0 -0.39963115419E+02 -0.66380559549E+01  0.34718222530E+01  0.40659167854E+02  0.00000000000E+00 0.  1.
         11    1    3    3    0    0  0.15830997830E+02 -0.54722178408E+00 -0.48220733215E+01  0.16558150119E+02  0.51100000000E-03 0. -1.
        -11    1    3    3    0    0  0.13989189438E+02 -0.53398580478E+01  0.74666928550E+01  0.16732095134E+02  0.51100000000E-03 0.  1.
        -12    1    3    3    0    0  0.10142928150E+02  0.12525135787E+02 -0.61164417866E+01  0.17238586893E+02  0.00000000000E+00 0.  1.
</event>
<event>
 7    1  0.6857839E-013  0.5052885E+02  0.7816164E-02  0.1300439E+00
        -11   -1    0    0    0    0  0.00000000000E+00  0.00000000000E+00  0.45593999997E+02  0.45594000000E+02  0.51100000000E-03 0.  1.
         11   -1    0    0    0    0 -0.00000000000E+00 -0.00000000000E+00 -0.45593999997E+02  0.45594000000E+02  0.51100000000E-03 0. -1.
    9900012    2    1    2    0    0 -0.10825137335E+02  0.20661492263E+02 -0.33302938031E+02  0.50528849218E+02  0.29999967682E+02 0.  0.
        -12    1    1    2    0    0  0.10825137335E+02 -0.20661492263E+02  0.33302938031E+02  0.40659150782E+02  0.00000000000E+00 0.  1.
         11    1    3    3    0    0 -0.44414802820E+01  0.14805881497E+02 -0.11511457654E+02  0.19273155724E+02  0.51100000000E-03 0.  1.
        -11    1    3    3    0    0  0.27480728841E+01  0.91934962063E+01 -0.18759759743E+02  0.21071327982E+02  0.51100000000E-03 0. -1.
        -12    1    3    3    0    0 -0.91317299373E+01 -0.33378854403E+01 -0.30317206339E+01  0.10184365511E+02  0.00000000000E+00 0.  1.
</event>
<event>
 7    1  0.6857839E-013  0.5052884E+02  0.7816164E-02  0.1300439E+00
        -11   -1    0    0    0    0  0.00000000000E+00  0.00000000000E+00  0.45593999997E+02  0.45594000000E+02  0.51100000000E-03 0.  1.
         11   -1    0    0    0    0 -0.00000000000E+00 -0.00000000000E+00 -0.45593999997E+02  0.45594000000E+02  0.51100000000E-03 0. -1.
    9900012    2    1    2    0    0  0.18039143630E+02  0.49090365456E+01 -0.36106202563E+02  0.50528841053E+02  0.29999942866E+02 0.  0.
        -12    1    1    2    0    0 -0.18039143630E+02 -0.49090365456E+01  0.36106202563E+02  0.40659158947E+02  0.00000000000E+00 0.  1.
         11    1    3    3    0    0  0.53454900717E+01 -0.93267923387E+01 -0.16702066195E+02  0.19862586309E+02  0.51100000000E-03 0. -1.
        -11    1    3    3    0    0 -0.30805629334E+01  0.18103102318E+01 -0.39594004961E+01  0.53332863857E+01  0.51100000000E-03 0.  1.
         12    1    3    3    0    0  0.15774216492E+02  0.12425518653E+02 -0.15444735873E+02  0.25332968359E+02  0.00000000000E+00 0. -1.
</event>
<event>
 7    1  0.6857839E-013  0.5052874E+02  0.7816164E-02  0.1300439E+00
        -11   -1    0    0    0    0  0.00000000000E+00  0.00000000000E+00  0.45593999997E+02  0.45594000000E+02  0.51100000000E-03 0.  1.
         11   -1    0    0    0    0 -0.00000000000E+00 -0.00000000000E+00 -0.45593999997E+02  0.45594000000E+02  0.51100000000E-03 0. -1.
    9900012    2    1    2    0    0 -0.12032923678E+02  0.10750540529E+02 -0.37320369822E+02  0.50528740568E+02  0.29999637430E+02 0.  0.
        -12    1    1    2    0    0  0.12032923678E+02 -0.10750540529E+02  0.37320369822E+02  0.40659259432E+02  0.00000000000E+00 0.  1.
         11    1    3    3    0    0 -0.34800745138E+01 -0.77922606252E+01 -0.98683844164E+01  0.13046656872E+02  0.51100000000E-03 0. -1.
        -11    1    3    3    0    0 -0.43347549558E+01  0.22146580973E+01  0.44062323359E+00  0.48876333853E+01  0.51100000000E-03 0.  1.
         12    1    3    3    0    0 -0.42180942080E+01  0.16328143057E+02 -0.27892608639E+02  0.32594450312E+02  0.00000000000E+00 0. -1.
</event>
<event>
 7    1  0.6857839E-013  0.5052888E+02  0.7816164E-02  0.1300439E+00
        -11   -1    0    0    0    0  0.00000000000E+00  0.00000000000E+00  0.45593999997E+02  0.45594000000E+02  0.51100000000E-03 0.  1.
         11   -1    0    0    0    0 -0.00000000000E+00 -0.00000000000E+00 -0.45593999997E+02  0.45594000000E+02  0.51100000000E-03 0. -1.
    9900012    2    1    2    0    0  0.12447028787E+01  0.19703187075E+02 -0.35544325819E+02  0.50528880923E+02  0.30000064053E+02 0.  0.
        -12    1    1    2    0    0 -0.12447028787E+01 -0.19703187075E+02  0.35544325819E+02  0.40659119077E+02  0.00000000000E+00 0.  1.
         11    1    3    3    0    0 -0.78131467040E+01  0.73910343200E+01 -0.18211305175E+02  0.21150042226E+02  0.51100000000E-03 0. -1.
        -11    1    3    3    0    0  0.34157134556E+01  0.16205492749E+02 -0.14307386571E+02  0.21885758026E+02  0.51100000000E-03 0.  1.
         12    1    3    3    0    0  0.56421361271E+01 -0.38933399935E+01 -0.30256340738E+01  0.74930806702E+01  0.00000000000E+00 0. -1.
</event>
<event>
 7    1  0.6857839E-013  0.5052887E+02  0.7816164E-02  0.1300439E+00
        -11   -1    0    0    0    0  0.00000000000E+00  0.00000000000E+00  0.45593999997E+02  0.45594000000E+02  0.51100000000E-03 0.  1.
         11   -1    0    0    0    0 -0.00000000000E+00 -0.00000000000E+00 -0.45593999997E+02  0.45594000000E+02  0.51100000000E-03 0. -1.
    9900012    2    1    2    0    0  0.78984615947E+00 -0.40586739509E+02  0.22929763308E+01  0.50528867921E+02  0.30000024533E+02 0.  0.
        -12    1    1    2    0    0 -0.78984615947E+00  0.40586739509E+02 -0.22929763308E+01  0.40659132079E+02  0.00000000000E+00 0.  1.
         11    1    3    3    0    0  0.19388464072E+01 -0.67699022391E+01 -0.82093557274E+01  0.10815924530E+02  0.51100000000E-03 0. -1.
        -11    1    3    3    0    0 -0.36813952684E+01 -0.86678112933E+00 -0.21217735691E+01  0.43365774509E+01  0.51100000000E-03 0.  1.
        -12    1    3    3    0    0  0.25323950207E+01 -0.32950056141E+02  0.12624105627E+02  0.35376365940E+02  0.00000000000E+00 0.  1.
</event>
<event>
 7    1  0.6857839E-013  0.5052887E+02  0.7816164E-02  0.1300439E+00
        -11   -1    0    0    0    0  0.00000000000E+00  0.00000000000E+00  0.45593999997E+02  0.45594000000E+02  0.51100000000E-03 0.  1.
         11   -1    0    0    0    0 -0.00000000000E+00 -0.00000000000E+00 -0.45593999997E+02  0.45594000000E+02  0.51100000000E-03 0. -1.
    9900012    2    1    2    0    0 -0.33669539630E+02 -0.21631229876E+02 -0.71845003632E+01  0.50528867566E+02  0.30000023454E+02 0.  0.
        -12    1    1    2    0    0  0.33669539630E+02  0.21631229876E+02  0.71845003632E+01  0.40659132434E+02  0.00000000000E+00 0.  1.
         11    1    3    3    0    0 -0.24004349273E+02 -0.21934513872E+02  0.21041734347E+01  0.32584647135E+02  0.51100000000E-03 0. -1.
        -11    1    3    3    0    0 -0.29991383914E+01  0.12797393049E+01  0.26725994225E+01  0.42160825079E+01  0.51100000000E-03 0.  1.
         12    1    3    3    0    0 -0.66660519651E+01 -0.97645530828E+00 -0.11961273221E+02  0.13728137923E+02  0.00000000000E+00 0. -1.
</event>
<event>
 7    1  0.6857839E-013  0.5052887E+02  0.7816164E-02  0.1300439E+00
        -11   -1    0    0    0    0  0.00000000000E+00  0.00000000000E+00  0.45593999997E+02  0.45594000000E+02  0.51100000000E-03 0.  1.
         11   -1    0    0    0    0 -0.00000000000E+00 -0.00000000000E+00 -0.45593999997E+02  0.45594000000E+02  0.51100000000E-03 0. -1.
    9900012    2    1    2    0    0  0.37277300654E+02 -0.15157351086E+02 -0.58156884078E+01  0.50528872272E+02  0.30000037756E+02 0.  0.
        -12    1    1    2    0    0 -0.37277300654E+02  0.15157351086E+02  0.58156884078E+01  0.40659127728E+02  0.00000000000E+00 0.  1.
         11    1    3    3    0    0  0.10308463606E+02  0.85509105798E+00  0.56028850139E+01  0.11763839652E+02  0.51100000000E-03 0. -1.
        -11    1    3    3    0    0  0.14497099214E+02 -0.45970745243E+01  0.41681622157E+01  0.15769354975E+02  0.51100000000E-03 0.  1.
        -12    1    3    3    0    0  0.12471737834E+02 -0.11415367619E+02 -0.15586735637E+02  0.22995677644E+02  0.00000000000E+00 0.  1.
</event>
<event>
 7    1  0.6857839E-013  0.5052887E+02  0.7816164E-02  0.1300439E+00
        -11   -1    0    0    0    0  0.00000000000E+00  0.00000000000E+00  0.45593999997E+02  0.45594000000E+02  0.51100000000E-03 0.  1.
         11   -1    0    0    0    0 -0.00000000000E+00 -0.00000000000E+00 -0.45593999997E+02  0.45594000000E+02  0.51100000000E-03 0. -1.
    9900012    2    1    2    0    0  0.27679047081E+02 -0.50861234160E+01 -0.29345639815E+02  0.50528869723E+02  0.30000030011E+02 0.  0.
        -12    1    1    2    0    0 -0.27679047081E+02  0.50861234160E+01  0.29345639815E+02  0.40659130277E+02  0.00000000000E+00 0.  1.
         11    1    3    3    0    0  0.13060069431E+01  0.70005532784E+01 -0.49131829366E+01  0.86517493704E+01  0.51100000000E-03 0.  1.
        -11    1    3    3    0    0  0.13251309702E+02 -0.21115924419E+01 -0.21185596280E+02  0.25077590025E+02  0.51100000000E-03 0. -1.
        -12    1    3    3    0    0  0.13121730436E+02 -0.99750842524E+01 -0.32468605977E+01  0.16799530327E+02  0.00000000000E+00 0.  1.
</event>
<event>
 7    1  0.6857839E-013  0.5052886E+02  0.7816164E-02  0.1300439E+00
        -11   -1    0    0    0    0  0.00000000000E+00  0.00000000000E+00  0.45593999997E+02  0.45594000000E+02  0.51100000000E-03 0.  1.
         11   -1    0    0    0    0 -0.00000000000E+00 -0.00000000000E+00 -0.45593999997E+02  0.45594000000E+02  0.51100000000E-03 0. -1.
    9900012    2    1    2    0    0 -0.29958562308E+02 -0.23904435186E+02 -0.13573056807E+02  0.50528863902E+02  0.30000012316E+02 0.  0.
        -12    1    1    2    0    0  0.29958562308E+02  0.23904435186E+02  0.13573056807E+02  0.40659136098E+02  0.00000000000E+00 0.  1.
         11    1    3    3    0    0 -0.37466058218E+01 -0.86959312785E+01 -0.87431357602E+01  0.12887928428E+02  0.51100000000E-03 0. -1.
        -11    1    3    3    0    0  0.31625026507E+01 -0.48232366848E+01  0.12388240475E+01  0.58991287844E+01  0.51100000000E-03 0.  1.
         12    1    3    3    0    0 -0.29374459137E+02 -0.10385267223E+02 -0.60687450942E+01  0.31741806689E+02  0.00000000000E+00 0. -1.
</event>
<event>
 7    1  0.6857839E-013  0.5052886E+02  0.7816164E-02  0.1300439E+00
        -11   -1    0    0    0    0  0.00000000000E+00  0.00000000000E+00  0.45593999997E+02  0.45594000000E+02  0.51100000000E-03 0.  1.
         11   -1    0    0    0    0 -0.00000000000E+00 -0.00000000000E+00 -0.45593999997E+02  0.45594000000E+02  0.51100000000E-03 0. -1.
    9900012    2    1    2    0    0 -0.22855614557E+02  0.30292422623E+01 -0.33490451962E+02  0.50528858370E+02  0.29999995503E+02 0.  0.
        -12    1    1    2    0    0  0.22855614557E+02 -0.30292422623E+01  0.33490451962E+02  0.40659141630E+02  0.00000000000E+00 0.  1.
         11    1    3    3    0    0 -0.48917332718E+01 -0.13779583529E+01 -0.10977507655E+02  0.12096838355E+02  0.51100000000E-03 0. -1.
        -11    1    3    3    0    0  0.46842514574E+01 -0.46027480283E+01 -0.30527383166E+01  0.72420102609E+01  0.51100000000E-03 0.  1.
         12    1    3    3    0    0 -0.22648132743E+02  0.90099486434E+01 -0.19460205990E+02  0.31190009754E+02  0.00000000000E+00 0. -1.
</event>
<event>
 7    1  0.6857839E-013  0.5052886E+02  0.7816164E-02  0.1300439E+00
        -11   -1    0    0    0    0  0.00000000000E+00  0.00000000000E+00  0.45593999997E+02  0.45594000000E+02  0.51100000000E-03 0.  1.
         11   -1    0    0    0    0 -0.00000000000E+00 -0.00000000000E+00 -0.45593999997E+02  0.45594000000E+02  0.51100000000E-03 0. -1.
    9900012    2    1    2    0    0 -0.20281903775E+02 -0.31321643533E+02 -0.16148214382E+02  0.50528858321E+02  0.29999995353E+02 0.  0.
        -12    1    1    2    0    0  0.20281903775E+02  0.31321643533E+02  0.16148214382E+02  0.40659141679E+02  0.00000000000E+00 0.  1.
         11    1    3    3    0    0  0.93449985214E+00 -0.77483037342E+01 -0.61168411357E+01  0.99159087567E+01  0.51100000000E-03 0. -1.
        -11    1    3    3    0    0 -0.10864696068E+01  0.33817217765E+01 -0.56681216916E+01  0.66891002498E+01  0.51100000000E-03 0.  1.
         12    1    3    3    0    0 -0.20129934020E+02 -0.26955061575E+02 -0.43632515552E+01  0.33923849314E+02  0.00000000000E+00 0. -1.
</event>
<event>
 7    1  0.6857839E-013  0.5052886E+02  0.7816164E-02  0.1300439E+00
        -11   -1    0    0    0    0  0.00000000000E+00  0.00000000000E+00  0.45593999997E+02  0.45594000000E+02  0.51100000000E-03 0. -1.
         11   -1    0    0    0    0 -0.00000000000E+00 -0.00000000000E+00 -0.45593999997E+02  0.45594000000E+02  0.51100000000E-03 0.  1.
    9900012    2    1    2    0    0 -0.50925018813E+01  0.37776744210E+01  0.40161689871E+02  0.50528859174E+02  0.29999997945E+02 0.  0.
        -12    1    1    2    0    0  0.50925018813E+01 -0.37776744210E+01 -0.40161689871E+02  0.40659140826E+02  0.00000000000E+00 0.  1.
         11    1    3    3    0    0 -0.11677439113E+01 -0.35190777159E+01  0.40135391301E+02  0.40306291928E+02  0.51100000000E-03 0. -1.
        -11    1    3    3    0    0  0.13299604745E+01  0.16967428834E+01  0.11790231328E+01  0.24571990325E+01  0.51100000000E-03 0.  1.
        -12    1    3    3    0    0 -0.52547184445E+01  0.56000092535E+01 -0.11527245633E+01  0.77653682133E+01  0.00000000000E+00 0.  1.
</event>
<event>
 7    1  0.6857839E-013  0.5052886E+02  0.7816164E-02  0.1300439E+00
        -11   -1    0    0    0    0  0.00000000000E+00  0.00000000000E+00  0.45593999997E+02  0.45594000000E+02  0.51100000000E-03 0.  1.
         11   -1    0    0    0    0 -0.00000000000E+00 -0.00000000000E+00 -0.45593999997E+02  0.45594000000E+02  0.51100000000E-03 0. -1.
    9900012    2    1    2    0    0 -0.66871539691E+00  0.97537149662E+01 -0.39466231779E+02  0.50528860969E+02  0.30000003402E+02 0.  0.
        -12    1    1    2    0    0  0.66871539691E+00 -0.97537149662E+01  0.39466231779E+02  0.40659139031E+02  0.00000000000E+00 0.  1.
         11    1    3    3    0    0  0.60068157415E+01  0.27000130027E+01 -0.84306997231E+01  0.10698065416E+02  0.51100000000E-03 0. -1.
        -11    1    3    3    0    0 -0.17396553638E+00 -0.81587666685E+01 -0.76535542112E+01  0.11188057467E+02  0.51100000000E-03 0.  1.
        -12    1    3    3    0    0 -0.65015656020E+01  0.15212468632E+02 -0.23381977844E+02  0.28642738086E+02  0.00000000000E+00 0.  1.
</event>
<event>
 7    1  0.6857839E-013  0.5052886E+02  0.7816164E-02  0.1300439E+00
        -11   -1    0    0    0    0  0.00000000000E+00  0.00000000000E+00  0.45593999997E+02  0.45594000000E+02  0.51100000000E-03 0. -1.
         11   -1    0    0    0    0 -0.00000000000E+00 -0.00000000000E+00 -0.45593999997E+02  0.45594000000E+02  0.51100000000E-03 0.  1.
    9900012    2    1    2    0    0 -0.33338311212E+02 -0.23215593865E+02  0.16609810504E+01  0.50528860178E+02  0.30000000998E+02 0.  0.
        -12    1    1    2    0    0  0.33338311212E+02  0.23215593865E+02 -0.16609810504E+01  0.40659139822E+02  0.00000000000E+00 0.  1.
         11    1    3    3    0    0 -0.11366330727E+02 -0.47791815849E+01 -0.40769611125E+00  0.12336947239E+02  0.51100000000E-03 0. -1.
        -11    1    3    3    0    0 -0.79284608050E+01 -0.97361701532E+01 -0.11336997941E+02  0.16916885723E+02  0.51100000000E-03 0.  1.
         12    1    3    3    0    0 -0.14043519681E+02 -0.87002421267E+01  0.13405675103E+02  0.21275027216E+02  0.00000000000E+00 0. -1.
</event>
<event>
 7    1  0.6857839E-013  0.5052886E+02  0.7816164E-02  0.1300439E+00
        -11   -1    0    0    0    0  0.00000000000E+00  0.00000000000E+00  0.45593999997E+02  0.45594000000E+02  0.51100000000E-03 0.  1.
         11   -1    0    0    0    0 -0.00000000000E+00 -0.00000000000E+00 -0.45593999997E+02  0.45594000000E+02  0.51100000000E-03 0. -1.
    9900012    2    1    2    0    0 -0.23481436057E+01 -0.39766632693E+02  0.81404295501E+01  0.50528862682E+02  0.30000008609E+02 0.  0.
        -12    1    1    2    0    0  0.23481436057E+01  0.39766632693E+02 -0.81404295501E+01  0.40659137318E+02  0.00000000000E+00 0.  1.
         11    1    3    3    0    0  0.45942994261E+00 -0.28750683994E+02  0.70943992094E-01  0.28754442080E+02  0.51100000000E-03 0. -1.
        -11    1    3    3    0    0 -0.77388009177E+01 -0.10915846597E+02  0.13636826414E+01  0.13450069783E+02  0.51100000000E-03 0.  1.
         12    1    3    3    0    0  0.49312273693E+01 -0.10010210200E+00  0.67058029166E+01  0.83243508189E+01  0.00000000000E+00 0. -1.
</event>
<event>
 7    1  0.6857839E-013  0.5052886E+02  0.7816164E-02  0.1300439E+00
        -11   -1    0    0    0    0  0.00000000000E+00  0.00000000000E+00  0.45593999997E+02  0.45594000000E+02  0.51100000000E-03 0. -1.
         11   -1    0    0    0    0 -0.00000000000E+00 -0.00000000000E+00 -0.45593999997E+02  0.45594000000E+02  0.51100000000E-03 0.  1.
    9900012    2    1    2    0    0  0.31351567903E+02 -0.19619146717E+02  0.16891829961E+02  0.50528860225E+02  0.30000001139E+02 0.  0.
        -12    1    1    2    0    0 -0.31351567903E+02  0.19619146717E+02 -0.16891829961E+02  0.40659139775E+02  0.00000000000E+00 0.  1.
         11    1    3    3    0    0  0.11419101409E+02 -0.14517676842E+02  0.15485213945E+02  0.24102918269E+02  0.51100000000E-03 0. -1.
        -11    1    3    3    0    0  0.20460526722E+02 -0.89368235010E+01  0.23223918518E+01  0.22447571633E+02  0.51100000000E-03 0.  1.
         12    1    3    3    0    0 -0.52806022819E+00  0.38353536264E+01 -0.91577583632E+00  0.39783703229E+01  0.00000000000E+00 0. -1.
</event>
<event>
 7    1  0.6857839E-013  0.5052886E+02  0.7816164E-02  0.1300439E+00
        -11   -1    0    0    0    0  0.00000000000E+00  0.00000000000E+00  0.45593999997E+02  0.45594000000E+02  0.51100000000E-03 0.  1.
         11   -1    0    0    0    0 -0.00000000000E+00 -0.00000000000E+00 -0.45593999997E+02  0.45594000000E+02  0.51100000000E-03 0. -1.
    9900012    2    1    2    0    0  0.32546858523E+01  0.34626877635E+02 -0.21060673971E+02  0.50528860525E+02  0.30000002053E+02 0.  0.
        -12    1    1    2    0    0 -0.32546858523E+01 -0.34626877635E+02  0.21060673971E+02  0.40659139475E+02  0.00000000000E+00 0.  1.
         11    1    3    3    0    0  0.55098872869E+01  0.11563613736E+02 -0.49009300458E+01  0.13714778019E+02  0.51100000000E-03 0. -1.
        -11    1    3    3    0    0  0.41237666165E+01  0.54705271605E-01  0.38648957832E+01  0.56520671838E+01  0.51100000000E-03 0.  1.
         12    1    3    3    0    0 -0.63789680511E+01  0.23008558627E+02 -0.20024639708E+02  0.31162015322E+02  0.00000000000E+00 0. -1.
</event>
<event>
 7    1  0.6857839E-013  0.5052885E+02  0.7816164E-02  0.1300439E+00
        -11   -1    0    0    0    0  0.00000000000E+00  0.00000000000E+00  0.45593999997E+02  0.45594000000E+02  0.51100000000E-03 0. -1.
         11   -1    0    0    0    0 -0.00000000000E+00 -0.00000000000E+00 -0.45593999997E+02  0.45594000000E+02  0.51100000000E-03 0.  1.
    9900012    2    1    2    0    0  0.36936993731E+02  0.25703888876E+00  0.16992914270E+02  0.50528847153E+02  0.29999961406E+02 0.  0.
        -12    1    1    2    0    0 -0.36936993731E+02 -0.25703888876E+00 -0.16992914270E+02  0.40659152847E+02  0.00000000000E+00 0.  1.
         11    1    3    3    0    0  0.24929664502E+02 -0.34665358038E+01  0.10359243665E+01  0.25190835282E+02  0.51100000000E-03 0. -1.
        -11    1    3    3    0    0  0.81545148304E+01 -0.53400287553E+01  0.67526899229E+01  0.11857944201E+02  0.51100000000E-03 0.  1.
         12    1    3    3    0    0  0.38528143985E+01  0.90636034478E+01  0.92042999808E+01  0.13480067670E+02  0.00000000000E+00 0. -1.
</event>
<event>
 7    1  0.6857839E-013  0.5052886E+02  0.7816164E-02  0.1300439E+00
        -11   -1    0    0    0    0  0.00000000000E+00  0.00000000000E+00  0.45593999997E+02  0.45594000000E+02  0.51100000000E-03 0.  1.
         11   -1    0    0    0    0 -0.00000000000E+00 -0.00000000000E+00 -0.45593999997E+02  0.45594000000E+02  0.51100000000E-03 0. -1.
    9900012    2    1    2    0    0  0.95887645363E+01 -0.35962852929E+02 -0.16367485917E+02  0.50528858453E+02  0.29999995753E+02 0.  0.
        -12    1    1    2    0    0 -0.95887645363E+01  0.35962852929E+02  0.16367485917E+02  0.40659141547E+02  0.00000000000E+00 0.  1.
         11    1    3    3    0    0  0.33830215578E+01  0.95833033690E-01 -0.48235232569E+01  0.58924015224E+01  0.51100000000E-03 0. -1.
        -11    1    3    3    0    0  0.78123176184E+01 -0.65876107836E+01  0.43590114998E+01  0.11109901166E+02  0.51100000000E-03 0.  1.
         12    1    3    3    0    0 -0.16065746399E+01 -0.29471075179E+02 -0.15902974160E+02  0.33526555764E+02  0.00000000000E+00 0. -1.
</event>
<event>
 7    1  0.6857839E-013  0.5052887E+02  0.7816164E-02  0.1300439E+00
        -11   -1    0    0    0    0  0.00000000000E+00  0.00000000000E+00  0.45593999997E+02  0.45594000000E+02  0.51100000000E-03 0. -1.
         11   -1    0    0    0    0 -0.00000000000E+00 -0.00000000000E+00 -0.45593999997E+02  0.45594000000E+02  0.51100000000E-03 0.  1.
    9900012    2    1    2    0    0 -0.27751646323E+02  0.23697541515E+01  0.29620860267E+02  0.50528868537E+02  0.30000026406E+02 0.  0.
        -12    1    1    2    0    0  0.27751646323E+02 -0.23697541515E+01 -0.29620860267E+02  0.40659131463E+02  0.00000000000E+00 0.  1.
         11    1    3    3    0    0 -0.12799805931E+02  0.28162455594E+01  0.43258333064E+01  0.13801416774E+02  0.51100000000E-03 0. -1.
        -11    1    3    3    0    0 -0.78090456076E+01 -0.77591131333E+01  0.18659129763E+01  0.11165422581E+02  0.51100000000E-03 0.  1.
         12    1    3    3    0    0 -0.71427947840E+01  0.73126217253E+01  0.23429113984E+02  0.25562029182E+02  0.00000000000E+00 0. -1.
</event>
<event>
 7    1  0.6857839E-013  0.5052886E+02  0.7816164E-02  0.1300439E+00
        -11   -1    0    0    0    0  0.00000000000E+00  0.00000000000E+00  0.45593999997E+02  0.45594000000E+02  0.51100000000E-03 0. -1.
         11   -1    0    0    0    0 -0.00000000000E+00 -0.00000000000E+00 -0.45593999997E+02  0.45594000000E+02  0.51100000000E-03 0.  1.
    9900012    2    1    2    0    0 -0.11780344602E+00 -0.40513183999E+02  0.34400434994E+01  0.50528857674E+02  0.29999993386E+02 0.  0.
        -12    1    1    2    0    0  0.11780344602E+00  0.40513183999E+02 -0.34400434994E+01  0.40659142326E+02  0.00000000000E+00 0.  1.
         11    1    3    3    0    0 -0.55087673602E+01 -0.17801673525E+02 -0.41621856301E+01  0.19093713301E+02  0.51100000000E-03 0.  1.
        -11    1    3    3    0    0 -0.56404831550E+01 -0.48020780378E+00  0.93722341866E+00  0.57379471725E+01  0.51100000000E-03 0. -1.
        -12    1    3    3    0    0  0.11031447069E+02 -0.22231302670E+02  0.66650057108E+01  0.25697197201E+02  0.00000000000E+00 0.  1.
</event>
<event>
 7    1  0.6857839E-013  0.5052886E+02  0.7816164E-02  0.1300439E+00
        -11   -1    0    0    0    0  0.00000000000E+00  0.00000000000E+00  0.45593999997E+02  0.45594000000E+02  0.51100000000E-03 0.  1.
         11   -1    0    0    0    0 -0.00000000000E+00 -0.00000000000E+00 -0.45593999997E+02  0.45594000000E+02  0.51100000000E-03 0. -1.
    9900012    2    1    2    0    0  0.15333795034E+02 -0.95050963409E+01 -0.36437529675E+02  0.50528859632E+02  0.29999999338E+02 0.  0.
        -12    1    1    2    0    0 -0.15333795034E+02  0.95050963409E+01  0.36437529675E+02  0.40659140368E+02  0.00000000000E+00 0.  1.
         11    1    3    3    0    0  0.13823764597E+02 -0.49718449005E+01 -0.15828721156E+02  0.21595465335E+02  0.51100000000E-03 0. -1.
        -11    1    3    3    0    0  0.21380896036E+01  0.74097444069E+01 -0.11730915388E+02  0.14038878710E+02  0.51100000000E-03 0.  1.
         12    1    3    3    0    0 -0.62805916609E+00 -0.11942995847E+02 -0.88778931314E+01  0.14894515587E+02  0.00000000000E+00 0. -1.
</event>
<event>
 7    1  0.6857839E-013  0.5052887E+02  0.7816164E-02  0.1300439E+00
        -11   -1    0    0    0    0  0.00000000000E+00  0.00000000000E+00  0.45593999997E+02  0.45594000000E+02  0.51100000000E-03 0.  1.
         11   -1    0    0    0    0 -0.00000000000E+00 -0.00000000000E+00 -0.45593999997E+02  0.45594000000E+02  0.51100000000E-03 0. -1.
    9900012    2    1    2    0    0  0.24448218906E+01  0.38027958667E+02  0.14179647550E+02  0.50528865736E+02  0.30000017890E+02 0.  0.
        -12    1    1    2    0    0 -0.24448218906E+01 -0.38027958667E+02 -0.14179647550E+02  0.40659134264E+02  0.00000000000E+00 0.  1.
         11    1    3    3    0    0  0.41536753092E+00  0.44890333054E+01  0.71695042870E+01  0.84691051585E+01  0.51100000000E-03 0.  1.
        -11    1    3    3    0    0  0.34492675959E+01  0.30131796545E+02 -0.38663304943E+01  0.30574026914E+02  0.51100000000E-03 0. -1.
         12    1    3    3    0    0 -0.14198132362E+01  0.34071288172E+01  0.10876473757E+02  0.11485733664E+02  0.00000000000E+00 0. -1.
</event>
<event>
 7    1  0.6857839E-013  0.5052885E+02  0.7816164E-02  0.1300439E+00
        -11   -1    0    0    0    0  0.00000000000E+00  0.00000000000E+00  0.45593999997E+02  0.45594000000E+02  0.51100000000E-03 0.  1.
         11   -1    0    0    0    0 -0.00000000000E+00 -0.00000000000E+00 -0.45593999997E+02  0.45594000000E+02  0.51100000000E-03 0. -1.
    9900012    2    1    2    0    0  0.17028352060E+02 -0.35582565083E+02 -0.98530590241E+01  0.50528849937E+02  0.29999969867E+02 0.  0.
        -12    1    1    2    0    0 -0.17028352060E+02  0.35582565083E+02  0.98530590241E+01  0.40659150063E+02  0.00000000000E+00 0.  1.
         11    1    3    3    0    0 -0.94972864282E+00 -0.14527572588E+01 -0.54855286354E+01  0.57535652268E+01  0.51100000000E-03 0. -1.
        -11    1    3    3    0    0 -0.27584756064E+01 -0.18185797929E+02 -0.13266372555E+01  0.18441594308E+02  0.51100000000E-03 0.  1.
        -12    1    3    3    0    0  0.20736556309E+02 -0.15944009896E+02 -0.30408931332E+01  0.26333690401E+02  0.00000000000E+00 0.  1.
</event>
<event>
 7    1  0.6857839E-013  0.5052886E+02  0.7816164E-02  0.1300439E+00
        -11   -1    0    0    0    0  0.00000000000E+00  0.00000000000E+00  0.45593999997E+02  0.45594000000E+02  0.51100000000E-03 0. -1.
         11   -1    0    0    0    0 -0.00000000000E+00 -0.00000000000E+00 -0.45593999997E+02  0.45594000000E+02  0.51100000000E-03 0.  1.
    9900012    2    1    2    0    0 -0.19758966657E+02  0.32235089680E+02  0.14954872657E+02  0.50528856057E+02  0.29999988470E+02 0.  0.
        -12    1    1    2    0    0  0.19758966657E+02 -0.32235089680E+02 -0.14954872657E+02  0.40659143943E+02  0.00000000000E+00 0.  1.
         11    1    3    3    0    0 -0.14396043119E+02  0.20587147419E+02 -0.69983801398E-01  0.25121337431E+02  0.51100000000E-03 0. -1.
        -11    1    3    3    0    0 -0.17841341557E+01  0.47820811241E+01 -0.29081784150E+01  0.58744307399E+01  0.51100000000E-03 0.  1.
         12    1    3    3    0    0 -0.35787893825E+01  0.68658611368E+01  0.17933034874E+02  0.19533087886E+02  0.00000000000E+00 0. -1.
</event>
<event>
 7    1  0.6857839E-013  0.5052886E+02  0.7816164E-02  0.1300439E+00
        -11   -1    0    0    0    0  0.00000000000E+00  0.00000000000E+00  0.45593999997E+02  0.45594000000E+02  0.51100000000E-03 0.  1.
         11   -1    0    0    0    0 -0.00000000000E+00 -0.00000000000E+00 -0.45593999997E+02  0.45594000000E+02  0.51100000000E-03 0. -1.
    9900012    2    1    2    0    0 -0.26275921514E+02  0.18830745413E+02  0.24660583513E+02  0.50528863224E+02  0.30000010255E+02 0.  0.
        -12    1    1    2    0    0  0.26275921514E+02 -0.18830745413E+02 -0.24660583513E+02  0.40659136776E+02  0.00000000000E+00 0.  1.
         11    1    3    3    0    0 -0.22326121341E+02  0.20615847166E+02  0.11721839804E+02  0.32571005160E+02  0.51100000000E-03 0. -1.
        -11    1    3    3    0    0  0.16534804601E+01 -0.87871442652E+00 -0.15284019360E+01  0.24170538708E+01  0.51100000000E-03 0.  1.
        -12    1    3    3    0    0 -0.56032806327E+01 -0.90638732704E+00  0.14467145645E+02  0.15540804193E+02  0.00000000000E+00 0.  1.
</event>
<event>
 7    1  0.6857839E-013  0.5052889E+02  0.7816164E-02  0.1300439E+00
        -11   -1    0    0    0    0  0.00000000000E+00  0.00000000000E+00  0.45593999997E+02  0.45594000000E+02  0.51100000000E-03 0.  1.
         11   -1    0    0    0    0 -0.00000000000E+00 -0.00000000000E+00 -0.45593999997E+02  0.45594000000E+02  0.51100000000E-03 0. -1.
    9900012    2    1    2    0    0 -0.72116342409E+01  0.40009472702E+02 -0.63063310784E+00  0.50528889429E+02  0.30000089909E+02 0.  0.
        -12    1    1    2    0    0  0.72116342409E+01 -0.40009472702E+02  0.63063310784E+00  0.40659110571E+02  0.00000000000E+00 0.  1.
         11    1    3    3    0    0 -0.76072802459E+01  0.13136318394E+02 -0.41499973615E+01  0.15737091600E+02  0.51100000000E-03 0. -1.
        -11    1    3    3    0    0 -0.92968290506E+01  0.10765265245E+02  0.67042160548E+01  0.15724772792E+02  0.51100000000E-03 0.  1.
         12    1    3    3    0    0  0.96924750556E+01  0.16107889062E+02 -0.31848518011E+01  0.19067025037E+02  0.00000000000E+00 0. -1.
</event>
<event>
 7    1  0.6857839E-013  0.5052886E+02  0.7816164E-02  0.1300439E+00
        -11   -1    0    0    0    0  0.00000000000E+00  0.00000000000E+00  0.45593999997E+02  0.45594000000E+02  0.51100000000E-03 0.  1.
         11   -1    0    0    0    0 -0.00000000000E+00 -0.00000000000E+00 -0.45593999997E+02  0.45594000000E+02  0.51100000000E-03 0. -1.
    9900012    2    1    2    0    0 -0.38509738999E+02  0.73606951013E+01 -0.10769665195E+02  0.50528861807E+02  0.30000005949E+02 0.  0.
        -12    1    1    2    0    0  0.38509738999E+02 -0.73606951013E+01  0.10769665195E+02  0.40659138193E+02  0.00000000000E+00 0.  1.
         11    1    3    3    0    0 -0.10869639899E+02 -0.26392381571E+01 -0.30600971261E+01  0.11596501381E+02  0.51100000000E-03 0. -1.
        -11    1    3    3    0    0 -0.18232398774E+01 -0.52877021858E+01  0.38378084130E+01  0.67832714624E+01  0.51100000000E-03 0.  1.
        -12    1    3    3    0    0 -0.25816859223E+02  0.15287635444E+02 -0.11547376482E+02  0.32149088964E+02  0.00000000000E+00 0.  1.
</event>
<event>
 7    1  0.6857839E-013  0.5052886E+02  0.7816164E-02  0.1300439E+00
        -11   -1    0    0    0    0  0.00000000000E+00  0.00000000000E+00  0.45593999997E+02  0.45594000000E+02  0.51100000000E-03 0. -1.
         11   -1    0    0    0    0 -0.00000000000E+00 -0.00000000000E+00 -0.45593999997E+02  0.45594000000E+02  0.51100000000E-03 0.  1.
    9900012    2    1    2    0    0  0.29509398746E+02 -0.18785226516E+02  0.20723814592E+02  0.50528857844E+02  0.29999993904E+02 0.  0.
        -12    1    1    2    0    0 -0.29509398746E+02  0.18785226516E+02 -0.20723814592E+02  0.40659142156E+02  0.00000000000E+00 0.  1.
         11    1    3    3    0    0 -0.29795295859E+01 -0.27032873583E+00  0.80357041056E+01  0.85745679140E+01  0.51100000000E-03 0. -1.
        -11    1    3    3    0    0  0.20596268581E+02 -0.68494443126E+01  0.12394587895E+01  0.21740685941E+02  0.51100000000E-03 0.  1.
         12    1    3    3    0    0  0.11892659751E+02 -0.11665453468E+02  0.11448651696E+02  0.20213603989E+02  0.00000000000E+00 0. -1.
</event>
<event>
 7    1  0.6857839E-013  0.5052886E+02  0.7816164E-02  0.1300439E+00
        -11   -1    0    0    0    0  0.00000000000E+00  0.00000000000E+00  0.45593999997E+02  0.45594000000E+02  0.51100000000E-03 0. -1.
         11   -1    0    0    0    0 -0.00000000000E+00 -0.00000000000E+00 -0.45593999997E+02  0.45594000000E+02  0.51100000000E-03 0.  1.
    9900012    2    1    2    0    0 -0.87602277028E+01 -0.40647609445E+01  0.39495591149E+02  0.50528860915E+02  0.30000003237E+02 0.  0.
        -12    1    1    2    0    0  0.87602277028E+01  0.40647609445E+01 -0.39495591149E+02  0.40659139085E+02  0.00000000000E+00 0.  1.
         11    1    3    3    0    0 -0.45991016043E+01 -0.60764088371E+01  0.79568180035E+01  0.11017505749E+02  0.51100000000E-03 0. -1.
        -11    1    3    3    0    0 -0.26737316171E+01 -0.43251207428E+01 -0.19125742520E+01  0.54326283446E+01  0.51100000000E-03 0.  1.
         12    1    3    3    0    0 -0.14873944814E+01  0.63367686354E+01  0.33451347397E+02  0.34078726822E+02  0.00000000000E+00 0. -1.
</event>
<event>
 7    1  0.6857839E-013  0.5052890E+02  0.7816164E-02  0.1300439E+00
        -11   -1    0    0    0    0  0.00000000000E+00  0.00000000000E+00  0.45593999997E+02  0.45594000000E+02  0.51100000000E-03 0.  1.
         11   -1    0    0    0    0 -0.00000000000E+00 -0.00000000000E+00 -0.45593999997E+02  0.45594000000E+02  0.51100000000E-03 0. -1.
    9900012    2    1    2    0    0  0.30179773641E+01  0.39306401836E+02 -0.99529265365E+01  0.50528903117E+02  0.30000131515E+02 0.  0.
        -12    1    1    2    0    0 -0.30179773641E+01 -0.39306401836E+02  0.99529265365E+01  0.40659096883E+02  0.00000000000E+00 0.  1.
         11    1    3    3    0    0  0.10178501696E+02  0.25738246498E+02 -0.18326083942E+01  0.27738379248E+02  0.51100000000E-03 0. -1.
        -11    1    3    3    0    0 -0.26975808769E+01  0.11938654766E+02  0.12310959196E+01  0.12301382753E+02  0.51100000000E-03 0.  1.
         12    1    3    3    0    0 -0.44629434548E+01  0.16295005730E+01 -0.93514140618E+01  0.10489141116E+02  0.00000000000E+00 0. -1.
</event>
<event>
 7    1  0.6857839E-013  0.5052885E+02  0.7816164E-02  0.1300439E+00
        -11   -1    0    0    0    0  0.00000000000E+00  0.00000000000E+00  0.45593999997E+02  0.45594000000E+02  0.51100000000E-03 0.  1.
         11   -1    0    0    0    0 -0.00000000000E+00 -0.00000000000E+00 -0.45593999997E+02  0.45594000000E+02  0.51100000000E-03 0. -1.
    9900012    2    1    2    0    0 -0.36225309888E+02  0.15253900966E+02 -0.10402480084E+02  0.50528853882E+02  0.29999981861E+02 0.  0.
        -12    1    1    2    0    0  0.36225309888E+02 -0.15253900966E+02  0.10402480084E+02  0.40659146118E+02  0.00000000000E+00 0.  1.
         11    1    3    3    0    0 -0.28584707287E+02  0.14961688568E+02 -0.11639358458E+02  0.34298867052E+02  0.51100000000E-03 0. -1.
        -11    1    3    3    0    0 -0.11631836817E+02  0.18585882050E+01  0.17616706976E+01  0.11910393015E+02  0.51100000000E-03 0.  1.
         12    1    3    3    0    0  0.39912342172E+01 -0.15663758071E+01 -0.52479232326E+00  0.43195938152E+01  0.00000000000E+00 0. -1.
</event>
<event>
 7    1  0.6857839E-013  0.5052885E+02  0.7816164E-02  0.1300439E+00
        -11   -1    0    0    0    0  0.00000000000E+00  0.00000000000E+00  0.45593999997E+02  0.45594000000E+02  0.51100000000E-03 0.  1.
         11   -1    0    0    0    0 -0.00000000000E+00 -0.00000000000E+00 -0.45593999997E+02  0.45594000000E+02  0.51100000000E-03 0. -1.
    9900012    2    1    2    0    0  0.13136308486E+02 -0.31100237424E+02 -0.22657869485E+02  0.50528850746E+02  0.29999972328E+02 0.  0.
        -12    1    1    2    0    0 -0.13136308486E+02  0.31100237424E+02  0.22657869485E+02  0.40659149254E+02  0.00000000000E+00 0.  1.
         11    1    3    3    0    0 -0.33791504750E+01 -0.14388787763E+02 -0.36117657090E+01  0.15215147815E+02  0.51100000000E-03 0. -1.
        -11    1    3    3    0    0  0.69003053112E+01 -0.90889780743E+01  0.13706735137E+01  0.11493584383E+02  0.51100000000E-03 0.  1.
        -12    1    3    3    0    0  0.96151536493E+01 -0.76224715864E+01 -0.20416777289E+02  0.23820118549E+02  0.00000000000E+00 0.  1.
</event>
<event>
 7    1  0.6857839E-013  0.5052885E+02  0.7816164E-02  0.1300439E+00
        -11   -1    0    0    0    0  0.00000000000E+00  0.00000000000E+00  0.45593999997E+02  0.45594000000E+02  0.51100000000E-03 0.  1.
         11   -1    0    0    0    0 -0.00000000000E+00 -0.00000000000E+00 -0.45593999997E+02  0.45594000000E+02  0.51100000000E-03 0. -1.
    9900012    2    1    2    0    0 -0.16399705536E+02  0.11824788676E+01 -0.37186255525E+02  0.50528853453E+02  0.29999980557E+02 0.  0.
        -12    1    1    2    0    0  0.16399705536E+02 -0.11824788676E+01  0.37186255525E+02  0.40659146547E+02  0.00000000000E+00 0.  1.
         11    1    3    3    0    0 -0.49954325302E+01  0.38034690800E+01 -0.13461034600E+02  0.14853288389E+02  0.51100000000E-03 0. -1.
        -11    1    3    3    0    0 -0.20182396061E+01  0.98997976853E+01 -0.50008719554E+01  0.11273331624E+02  0.51100000000E-03 0.  1.
        -12    1    3    3    0    0 -0.93860333999E+01 -0.12520787898E+02 -0.18724348969E+02  0.24402233440E+02  0.00000000000E+00 0.  1.
</event>
<event>
 7    1  0.6857839E-013  0.5052880E+02  0.7816164E-02  0.1300439E+00
        -11   -1    0    0    0    0  0.00000000000E+00  0.00000000000E+00  0.45593999997E+02  0.45594000000E+02  0.51100000000E-03 0. -1.
         11   -1    0    0    0    0 -0.00000000000E+00 -0.00000000000E+00 -0.45593999997E+02  0.45594000000E+02  0.51100000000E-03 0.  1.
    9900012    2    1    2    0    0 -0.37188351477E+02  0.16351476724E+02 -0.16812462388E+01  0.50528796054E+02  0.29999806084E+02 0.  0.
        -12    1    1    2    0    0  0.37188351477E+02 -0.16351476724E+02  0.16812462388E+01  0.40659203946E+02  0.00000000000E+00 0.  1.
         11    1    3    3    0    0 -0.38845610296E+01 -0.52863944874E+00 -0.54817160661E+01  0.67393238050E+01  0.51100000000E-03 0. -1.
        -11    1    3    3    0    0 -0.14876689386E+02  0.15712492763E+02 -0.65688036703E+01  0.22612994004E+02  0.51100000000E-03 0.  1.
        -12    1    3    3    0    0 -0.18427101062E+02  0.11676234090E+01  0.10369273498E+02  0.21176478244E+02  0.00000000000E+00 0.  1.
</event>
<event>
 7    1  0.6857839E-013  0.5052886E+02  0.7816164E-02  0.1300439E+00
        -11   -1    0    0    0    0  0.00000000000E+00  0.00000000000E+00  0.45593999997E+02  0.45594000000E+02  0.51100000000E-03 0.  1.
         11   -1    0    0    0    0 -0.00000000000E+00 -0.00000000000E+00 -0.45593999997E+02  0.45594000000E+02  0.51100000000E-03 0. -1.
    9900012    2    1    2    0    0  0.44476658688E+01  0.37720076024E+02 -0.14511376246E+02  0.50528857024E+02  0.29999991411E+02 0.  0.
        -12    1    1    2    0    0 -0.44476658688E+01 -0.37720076024E+02  0.14511376246E+02  0.40659142976E+02  0.00000000000E+00 0.  1.
         11    1    3    3    0    0  0.69355646344E+01  0.23900676373E+02 -0.10572786239E+01  0.24909079193E+02  0.51100000000E-03 0. -1.
        -11    1    3    3    0    0  0.68010683785E+01  0.88047189317E+01 -0.82494858779E+01  0.13850329385E+02  0.51100000000E-03 0.  1.
         12    1    3    3    0    0 -0.92889671440E+01  0.50146807191E+01 -0.52046117445E+01  0.11769448446E+02  0.00000000000E+00 0. -1.
</event>
<event>
 7    1  0.6857839E-013  0.5052883E+02  0.7816164E-02  0.1300439E+00
        -11   -1    0    0    0    0  0.00000000000E+00  0.00000000000E+00  0.45593999997E+02  0.45594000000E+02  0.51100000000E-03 0. -1.
         11   -1    0    0    0    0 -0.00000000000E+00 -0.00000000000E+00 -0.45593999997E+02  0.45594000000E+02  0.51100000000E-03 0.  1.
    9900012    2    1    2    0    0  0.23468223785E+02 -0.30054716279E+02  0.14111144521E+02  0.50528832548E+02  0.29999917012E+02 0.  0.
        -12    1    1    2    0    0 -0.23468223785E+02  0.30054716279E+02 -0.14111144521E+02  0.40659167452E+02  0.00000000000E+00 0.  1.
         11    1    3    3    0    0  0.10651991363E+01 -0.84369347528E+01  0.12044957795E+02  0.14744406592E+02  0.51100000000E-03 0. -1.
        -11    1    3    3    0    0  0.52132411559E+01  0.22846138258E+01 -0.20638103163E+01  0.60544741279E+01  0.51100000000E-03 0.  1.
         12    1    3    3    0    0  0.17189783493E+02 -0.23902395352E+02  0.41299970424E+01  0.29729951827E+02  0.00000000000E+00 0. -1.
</event>
<event>
 7    1  0.6857839E-013  0.5052886E+02  0.7816164E-02  0.1300439E+00
        -11   -1    0    0    0    0  0.00000000000E+00  0.00000000000E+00  0.45593999997E+02  0.45594000000E+02  0.51100000000E-03 0.  1.
         11   -1    0    0    0    0 -0.00000000000E+00 -0.00000000000E+00 -0.45593999997E+02  0.45594000000E+02  0.51100000000E-03 0. -1.
    9900012    2    1    2    0    0 -0.29109180279E+02  0.51747325889E+01 -0.27911347504E+02  0.50528861379E+02  0.30000004649E+02 0.  0.
        -12    1    1    2    0    0  0.29109180279E+02 -0.51747325889E+01  0.27911347504E+02  0.40659138621E+02  0.00000000000E+00 0.  1.
         11    1    3    3    0    0 -0.21702150511E+02  0.17348077866E+01 -0.79524696746E+01  0.23178323258E+02  0.51100000000E-03 0. -1.
        -11    1    3    3    0    0 -0.28745416646E+01  0.35650369475E+01  0.19499539971E+01  0.49774289618E+01  0.51100000000E-03 0.  1.
        -12    1    3    3    0    0 -0.45324881030E+01 -0.12511214520E+00 -0.21908831827E+02  0.22373109159E+02  0.00000000000E+00 0.  1.
</event>
<event>
 7    1  0.6857839E-013  0.5052886E+02  0.7816164E-02  0.1300439E+00
        -11   -1    0    0    0    0  0.00000000000E+00  0.00000000000E+00  0.45593999997E+02  0.45594000000E+02  0.51100000000E-03 0.  1.
         11   -1    0    0    0    0 -0.00000000000E+00 -0.00000000000E+00 -0.45593999997E+02  0.45594000000E+02  0.51100000000E-03 0. -1.
    9900012    2    1    2    0    0  0.23717576880E+02 -0.19556750744E+02 -0.26611569657E+02  0.50528860900E+02  0.30000003193E+02 0.  0.
        -12    1    1    2    0    0 -0.23717576880E+02  0.19556750744E+02  0.26611569657E+02  0.40659139100E+02  0.00000000000E+00 0.  1.
         11    1    3    3    0    0  0.28568837221E+00 -0.85034396157E+01 -0.77991633979E+01  0.11541969204E+02  0.51100000000E-03 0. -1.
        -11    1    3    3    0    0  0.37689144420E+00 -0.43115146662E+01  0.39756136046E+01  0.58767941662E+01  0.51100000000E-03 0.  1.
        -12    1    3    3    0    0  0.23054997063E+02 -0.67417964617E+01 -0.22788019864E+02  0.33110097530E+02  0.00000000000E+00 0.  1.
</event>
<event>
 7    1  0.6857839E-013  0.5052886E+02  0.7816164E-02  0.1300439E+00
        -11   -1    0    0    0    0  0.00000000000E+00  0.00000000000E+00  0.45593999997E+02  0.45594000000E+02  0.51100000000E-03 0. -1.
         11   -1    0    0    0    0 -0.00000000000E+00 -0.00000000000E+00 -0.45593999997E+02  0.45594000000E+02  0.51100000000E-03 0.  1.
    9900012    2    1    2    0    0 -0.39734570569E+02 -0.63627537126E+01  0.58176251182E+01  0.50528862095E+02  0.30000006825E+02 0.  0.
        -12    1    1    2    0    0  0.39734570569E+02  0.63627537126E+01 -0.58176251182E+01  0.40659137905E+02  0.00000000000E+00 0.  1.
         11    1    3    3    0    0 -0.23362733513E+02  0.40319305352E+01 -0.27640098980E+01  0.23868672607E+02  0.51100000000E-03 0. -1.
        -11    1    3    3    0    0  0.31927538560E+01 -0.28256172271E+01  0.14609594739E+01  0.45069050073E+01  0.51100000000E-03 0.  1.
         12    1    3    3    0    0 -0.19564590912E+02 -0.75690670207E+01  0.71206755423E+01  0.22153284481E+02  0.00000000000E+00 0. -1.
</event>
<event>
 7    1  0.6857839E-013  0.5052887E+02  0.7816164E-02  0.1300439E+00
        -11   -1    0    0    0    0  0.00000000000E+00  0.00000000000E+00  0.45593999997E+02  0.45594000000E+02  0.51100000000E-03 0. -1.
         11   -1    0    0    0    0 -0.00000000000E+00 -0.00000000000E+00 -0.45593999997E+02  0.45594000000E+02  0.51100000000E-03 0.  1.
    9900012    2    1    2    0    0  0.46871374180E+01 -0.37589017917E+02  0.14773658012E+02  0.50528874380E+02  0.30000044166E+02 0.  0.
        -12    1    1    2    0    0 -0.46871374180E+01  0.37589017917E+02 -0.14773658012E+02  0.40659125620E+02  0.00000000000E+00 0.  1.
         11    1    3    3    0    0 -0.46882703277E+01 -0.25169223096E+02  0.23810772913E+01  0.25712627233E+02  0.51100000000E-03 0. -1.
        -11    1    3    3    0    0 -0.25034290338E+01 -0.76606427219E+01  0.19309172342E+01  0.82874028179E+01  0.51100000000E-03 0.  1.
        -12    1    3    3    0    0  0.11878836780E+02 -0.47591520989E+01  0.10461663487E+02  0.16528844329E+02  0.00000000000E+00 0.  1.
</event>
<event>
 7    1  0.6857839E-013  0.5052887E+02  0.7816164E-02  0.1300439E+00
        -11   -1    0    0    0    0  0.00000000000E+00  0.00000000000E+00  0.45593999997E+02  0.45594000000E+02  0.51100000000E-03 0. -1.
         11   -1    0    0    0    0 -0.00000000000E+00 -0.00000000000E+00 -0.45593999997E+02  0.45594000000E+02  0.51100000000E-03 0.  1.
    9900012    2    1    2    0    0  0.38622056624E+02 -0.10591300866E+02 -0.70232539922E+01  0.50528868080E+02  0.30000025015E+02 0.  0.
        -12    1    1    2    0    0 -0.38622056624E+02  0.10591300866E+02  0.70232539922E+01  0.40659131920E+02  0.00000000000E+00 0.  1.
         11    1    3    3    0    0  0.27885208844E+02  0.15450156037E+01  0.40356412654E+01  0.28218050007E+02  0.51100000000E-03 0. -1.
        -11    1    3    3    0    0  0.10900650236E+02 -0.45962441548E+01 -0.64994560168E+01  0.13497872598E+02  0.51100000000E-03 0.  1.
        -12    1    3    3    0    0 -0.16380245595E+00 -0.75400723152E+01 -0.45594392408E+01  0.88129454754E+01  0.00000000000E+00 0.  1.
</event>
<event>
 7    1  0.6857839E-013  0.5052886E+02  0.7816164E-02  0.1300439E+00
        -11   -1    0    0    0    0  0.00000000000E+00  0.00000000000E+00  0.45593999997E+02  0.45594000000E+02  0.51100000000E-03 0.  1.
         11   -1    0    0    0    0 -0.00000000000E+00 -0.00000000000E+00 -0.45593999997E+02  0.45594000000E+02  0.51100000000E-03 0. -1.
    9900012    2    1    2    0    0  0.38695368521E+02  0.75997071730E+01 -0.99034570726E+01  0.50528861346E+02  0.30000004549E+02 0.  0.
        -12    1    1    2    0    0 -0.38695368521E+02 -0.75997071730E+01  0.99034570726E+01  0.40659138654E+02  0.00000000000E+00 0.  1.
         11    1    3    3    0    0  0.15994893378E+02  0.65257400648E+01 -0.46097602951E+01  0.17879367657E+02  0.51100000000E-03 0. -1.
        -11    1    3    3    0    0  0.25907806796E+02 -0.35102390940E+01 -0.21520129709E+01  0.26232944775E+02  0.51100000000E-03 0.  1.
        -12    1    3    3    0    0 -0.32073316532E+01  0.45842062022E+01 -0.31416838066E+01  0.64165489150E+01  0.00000000000E+00 0.  1.
</event>
<event>
 7    1  0.6857839E-013  0.5052887E+02  0.7816164E-02  0.1300439E+00
        -11   -1    0    0    0    0  0.00000000000E+00  0.00000000000E+00  0.45593999997E+02  0.45594000000E+02  0.51100000000E-03 0.  1.
         11   -1    0    0    0    0 -0.00000000000E+00 -0.00000000000E+00 -0.45593999997E+02  0.45594000000E+02  0.51100000000E-03 0. -1.
    9900012    2    1    2    0    0 -0.16512862026E+01  0.79952163978E+01 -0.39831079784E+02  0.50528866363E+02  0.30000019796E+02 0.  0.
        -12    1    1    2    0    0  0.16512862026E+01 -0.79952163978E+01  0.39831079784E+02  0.40659133637E+02  0.00000000000E+00 0.  1.
         11    1    3    3    0    0  0.45619989627E+01 -0.39356692689E+00 -0.22494086287E+01  0.51016241435E+01  0.51100000000E-03 0.  1.
        -11    1    3    3    0    0  0.40064465106E+01  0.74190934956E+01 -0.33220137892E+02  0.34273490101E+02  0.51100000000E-03 0. -1.
         12    1    3    3    0    0 -0.10219731676E+02  0.96968982905E+00 -0.43615332639E+01  0.11153752118E+02  0.00000000000E+00 0. -1.
</event>
<event>
 7    1  0.6857839E-013  0.5052897E+02  0.7816164E-02  0.1300438E+00
        -11   -1    0    0    0    0  0.00000000000E+00  0.00000000000E+00  0.45593999997E+02  0.45594000000E+02  0.51100000000E-03 0.  1.
         11   -1    0    0    0    0 -0.00000000000E+00 -0.00000000000E+00 -0.45593999997E+02  0.45594000000E+02  0.51100000000E-03 0. -1.
    9900012    2    1    2    0    0  0.50618944448E+01  0.13114360027E+02 -0.38151636237E+02  0.50528971952E+02  0.30000340743E+02 0.  0.
        -12    1    1    2    0    0 -0.50618944448E+01 -0.13114360027E+02  0.38151636237E+02  0.40659028048E+02  0.00000000000E+00 0.  1.
         11    1    3    3    0    0  0.16759143029E+00 -0.34786473564E+01 -0.14966135763E+02  0.15366011007E+02  0.51100000000E-03 0. -1.
        -11    1    3    3    0    0  0.15792858462E+01  0.90575345954E+01 -0.25082758319E+02  0.26714749519E+02  0.51100000000E-03 0.  1.
        -12    1    3    3    0    0  0.33150171683E+01  0.75354727877E+01  0.18972578454E+01  0.84482114256E+01  0.00000000000E+00 0.  1.
</event>
<event>
 7    1  0.6857839E-013  0.5052883E+02  0.7816164E-02  0.1300439E+00
        -11   -1    0    0    0    0  0.00000000000E+00  0.00000000000E+00  0.45593999997E+02  0.45594000000E+02  0.51100000000E-03 0.  1.
         11   -1    0    0    0    0 -0.00000000000E+00 -0.00000000000E+00 -0.45593999997E+02  0.45594000000E+02  0.51100000000E-03 0. -1.
    9900012    2    1    2    0    0  0.33584789353E+02  0.15203183222E+02 -0.17149143660E+02  0.50528831486E+02  0.29999913785E+02 0.  0.
        -12    1    1    2    0    0 -0.33584789353E+02 -0.15203183222E+02  0.17149143660E+02  0.40659168514E+02  0.00000000000E+00 0.  1.
         11    1    3    3    0    0  0.59860725730E+01 -0.55250492500E+01 -0.25474319112E+01  0.85351416899E+01  0.51100000000E-03 0. -1.
        -11    1    3    3    0    0  0.46202590301E+01  0.10383758706E+02  0.23727513926E+01  0.11610305242E+02  0.51100000000E-03 0.  1.
         12    1    3    3    0    0  0.22978457750E+02  0.10344473766E+02 -0.16974463142E+02  0.30383384555E+02  0.00000000000E+00 0. -1.
</event>
<event>
 7    1  0.6857839E-013  0.5052891E+02  0.7816164E-02  0.1300439E+00
        -11   -1    0    0    0    0  0.00000000000E+00  0.00000000000E+00  0.45593999997E+02  0.45594000000E+02  0.51100000000E-03 0.  1.
         11   -1    0    0    0    0 -0.00000000000E+00 -0.00000000000E+00 -0.45593999997E+02  0.45594000000E+02  0.51100000000E-03 0. -1.
    9900012    2    1    2    0    0 -0.39840477422E+02  0.24163305884E+01  0.77497935822E+01  0.50528910054E+02  0.30000152599E+02 0.  0.
        -12    1    1    2    0    0  0.39840477422E+02 -0.24163305884E+01 -0.77497935822E+01  0.40659089946E+02  0.00000000000E+00 0.  1.
         11    1    3    3    0    0 -0.21474244483E+02  0.34692476320E+01 -0.19387211580E+01  0.21838898673E+02  0.51100000000E-03 0. -1.
        -11    1    3    3    0    0  0.29168642549E+01  0.75089791015E+00 -0.26596265191E+01  0.40181535853E+01  0.51100000000E-03 0.  1.
         12    1    3    3    0    0 -0.21283097194E+02 -0.18038149538E+01  0.12348141259E+02  0.24671857796E+02  0.00000000000E+00 0. -1.
</event>
<event>
 7    1  0.6857839E-013  0.5052886E+02  0.7816164E-02  0.1300439E+00
        -11   -1    0    0    0    0  0.00000000000E+00  0.00000000000E+00  0.45593999997E+02  0.45594000000E+02  0.51100000000E-03 0.  1.
         11   -1    0    0    0    0 -0.00000000000E+00 -0.00000000000E+00 -0.45593999997E+02  0.45594000000E+02  0.51100000000E-03 0. -1.
    9900012    2    1    2    0    0  0.84690015378E+01 -0.28596734683E+02 -0.27634557771E+02  0.50528855829E+02  0.29999987777E+02 0.  0.
        -12    1    1    2    0    0 -0.84690015378E+01  0.28596734683E+02  0.27634557771E+02  0.40659144171E+02  0.00000000000E+00 0.  1.
         11    1    3    3    0    0 -0.43430806792E+01 -0.68119865512E-02 -0.70729910018E+01  0.82999757929E+01  0.51100000000E-03 0. -1.
        -11    1    3    3    0    0  0.35127090893E+01  0.17418281405E+01  0.77423567513E+00  0.39965649699E+01  0.51100000000E-03 0.  1.
         12    1    3    3    0    0  0.92993731278E+01 -0.30331750837E+02 -0.21335802444E+02  0.38232315066E+02  0.00000000000E+00 0. -1.
</event>
<event>
 7    1  0.6857839E-013  0.5052886E+02  0.7816164E-02  0.1300439E+00
        -11   -1    0    0    0    0  0.00000000000E+00  0.00000000000E+00  0.45593999997E+02  0.45594000000E+02  0.51100000000E-03 0. -1.
         11   -1    0    0    0    0 -0.00000000000E+00 -0.00000000000E+00 -0.45593999997E+02  0.45594000000E+02  0.51100000000E-03 0.  1.
    9900012    2    1    2    0    0  0.27607675026E+02 -0.89473339379E+01  0.28476784254E+02  0.50528859006E+02  0.29999997435E+02 0.  0.
        -12    1    1    2    0    0 -0.27607675026E+02  0.89473339379E+01 -0.28476784254E+02  0.40659140994E+02  0.00000000000E+00 0.  1.
         11    1    3    3    0    0  0.18269233897E+02 -0.45871858239E+01  0.26537674852E+02  0.32543130885E+02  0.51100000000E-03 0. -1.
        -11    1    3    3    0    0  0.23413717114E+00 -0.77503104001E+01 -0.10421557708E+01  0.78235682668E+01  0.51100000000E-03 0.  1.
         12    1    3    3    0    0  0.91043039574E+01  0.33901622862E+01  0.29812651722E+01  0.10162159854E+02  0.00000000000E+00 0. -1.
</event>
<event>
 7    1  0.6857839E-013  0.5052885E+02  0.7816164E-02  0.1300439E+00
        -11   -1    0    0    0    0  0.00000000000E+00  0.00000000000E+00  0.45593999997E+02  0.45594000000E+02  0.51100000000E-03 0.  1.
         11   -1    0    0    0    0 -0.00000000000E+00 -0.00000000000E+00 -0.45593999997E+02  0.45594000000E+02  0.51100000000E-03 0. -1.
    9900012    2    1    2    0    0  0.13231206264E+02  0.15279917720E+02 -0.35279248640E+02  0.50528854788E+02  0.29999984615E+02 0.  0.
        -12    1    1    2    0    0 -0.13231206264E+02 -0.15279917720E+02  0.35279248640E+02  0.40659145212E+02  0.00000000000E+00 0.  1.
         11    1    3    3    0    0 -0.20541451623E+01  0.11066982980E+02 -0.61088566649E+01  0.12806863576E+02  0.51100000000E-03 0. -1.
        -11    1    3    3    0    0  0.13607063147E+01  0.27714255302E+01 -0.21575735138E+02  0.21795519451E+02  0.51100000000E-03 0.  1.
        -12    1    3    3    0    0  0.13924645112E+02  0.14415092091E+01 -0.75946568374E+01  0.15926471761E+02  0.00000000000E+00 0.  1.
</event>
<event>
 7    1  0.6857839E-013  0.5052886E+02  0.7816164E-02  0.1300439E+00
        -11   -1    0    0    0    0  0.00000000000E+00  0.00000000000E+00  0.45593999997E+02  0.45594000000E+02  0.51100000000E-03 0.  1.
         11   -1    0    0    0    0 -0.00000000000E+00 -0.00000000000E+00 -0.45593999997E+02  0.45594000000E+02  0.51100000000E-03 0. -1.
    9900012    2    1    2    0    0 -0.17688253081E+02 -0.90086173422E+01 -0.35484309529E+02  0.50528859500E+02  0.29999998935E+02 0.  0.
        -12    1    1    2    0    0  0.17688253081E+02  0.90086173422E+01  0.35484309529E+02  0.40659140500E+02  0.00000000000E+00 0.  1.
         11    1    3    3    0    0 -0.15513248299E+01 -0.79047505346E+01 -0.55554310322E+01  0.97854230341E+01  0.51100000000E-03 0. -1.
        -11    1    3    3    0    0  0.36453006417E+01  0.39416491354E+01 -0.12032661826E+01  0.55020600181E+01  0.51100000000E-03 0.  1.
         12    1    3    3    0    0 -0.19782228893E+02 -0.50455159430E+01 -0.28725612314E+02  0.35241376448E+02  0.00000000000E+00 0. -1.
</event>
<event>
 7    1  0.6857839E-013  0.5052886E+02  0.7816164E-02  0.1300439E+00
        -11   -1    0    0    0    0  0.00000000000E+00  0.00000000000E+00  0.45593999997E+02  0.45594000000E+02  0.51100000000E-03 0.  1.
         11   -1    0    0    0    0 -0.00000000000E+00 -0.00000000000E+00 -0.45593999997E+02  0.45594000000E+02  0.51100000000E-03 0. -1.
    9900012    2    1    2    0    0 -0.21526839183E+02 -0.15550592897E+01 -0.34457842358E+02  0.50528856938E+02  0.29999991148E+02 0.  0.
        -12    1    1    2    0    0  0.21526839183E+02  0.15550592897E+01  0.34457842358E+02  0.40659143062E+02  0.00000000000E+00 0.  1.
         11    1    3    3    0    0 -0.91330080503E+01  0.44328862703E+01 -0.21289088893E+02  0.23585750421E+02  0.51100000000E-03 0. -1.
        -11    1    3    3    0    0 -0.13410767164E+02  0.29939512657E+01 -0.46068213113E+01  0.14492592003E+02  0.51100000000E-03 0.  1.
         12    1    3    3    0    0  0.10169360314E+01 -0.89818968258E+01 -0.85619321530E+01  0.12450514514E+02  0.00000000000E+00 0. -1.
</event>
<event>
 7    1  0.6857839E-013  0.5052886E+02  0.7816164E-02  0.1300439E+00
        -11   -1    0    0    0    0  0.00000000000E+00  0.00000000000E+00  0.45593999997E+02  0.45594000000E+02  0.51100000000E-03 0.  1.
         11   -1    0    0    0    0 -0.00000000000E+00 -0.00000000000E+00 -0.45593999997E+02  0.45594000000E+02  0.51100000000E-03 0. -1.
    9900012    2    1    2    0    0  0.25333687434E+02 -0.88268161975E+01 -0.30552535259E+02  0.50528858175E+02  0.29999994910E+02 0.  0.
        -12    1    1    2    0    0 -0.25333687434E+02  0.88268161975E+01  0.30552535259E+02  0.40659141825E+02  0.00000000000E+00 0.  1.
         11    1    3    3    0    0  0.53480604913E+01 -0.11149238761E+02 -0.43869924576E+01  0.13120708024E+02  0.51100000000E-03 0. -1.
        -11    1    3    3    0    0  0.93911433003E+01  0.46062230486E+01 -0.16308580620E+01  0.10586338439E+02  0.51100000000E-03 0.  1.
        -12    1    3    3    0    0  0.10594483642E+02 -0.22838004853E+01 -0.24534684739E+02  0.26821811713E+02  0.00000000000E+00 0.  1.
</event>
<event>
 7    1  0.7929040E-013  0.5052889E+02  0.7816164E-02  0.1300439E+00
        -11   -1    0    0    0    0  0.00000000000E+00  0.00000000000E+00  0.45593999997E+02  0.45594000000E+02  0.51100000000E-03 0.  1.
         11   -1    0    0    0    0 -0.00000000000E+00 -0.00000000000E+00 -0.45593999997E+02  0.45594000000E+02  0.51100000000E-03 0. -1.
    9900012    2    1    2    0    0  0.22728663317E+02 -0.28310031543E+02 -0.18306097108E+02  0.50528890154E+02  0.30000092111E+02 0.  0.
        -12    1    1    2    0    0 -0.22728663317E+02  0.28310031543E+02  0.18306097108E+02  0.40659109846E+02  0.00000000000E+00 0.  1.
         11    1    3    3    0    0  0.94396092899E+01 -0.18291528479E+02 -0.13840378774E+02  0.24804078748E+02  0.51100000000E-03 0. -1.
        -11    1    3    3    0    0 -0.33526221000E+01 -0.39499629535E+01 -0.60207862865E+01  0.79430567194E+01  0.51100000000E-03 0.  1.
        -12    1    3    3    0    0  0.16641676127E+02 -0.60685401102E+01  0.15550679524E+01  0.17781754687E+02  0.00000000000E+00 0.  1.
</event>
<event>
 7    1  0.6857839E-013  0.5052886E+02  0.7816164E-02  0.1300439E+00
        -11   -1    0    0    0    0  0.00000000000E+00  0.00000000000E+00  0.45593999997E+02  0.45594000000E+02  0.51100000000E-03 0.  1.
         11   -1    0    0    0    0 -0.00000000000E+00 -0.00000000000E+00 -0.45593999997E+02  0.45594000000E+02  0.51100000000E-03 0. -1.
    9900012    2    1    2    0    0  0.32134388896E+02  0.24211080698E+02 -0.58626243310E+01  0.50528859056E+02  0.29999997586E+02 0.  0.
        -12    1    1    2    0    0 -0.32134388896E+02 -0.24211080698E+02  0.58626243310E+01  0.40659140944E+02  0.00000000000E+00 0.  1.
         11    1    3    3    0    0  0.32247431141E+01 -0.15410693825E+01 -0.13519040507E+00  0.35766100851E+01  0.51100000000E-03 0. -1.
        -11    1    3    3    0    0  0.17134490557E+02  0.13397288749E+01  0.48492603026E+01  0.17857798461E+02  0.51100000000E-03 0.  1.
         12    1    3    3    0    0  0.11775155225E+02  0.24412421205E+02 -0.10576694229E+02  0.29094450510E+02  0.00000000000E+00 0. -1.
</event>
<event>
 7    1  0.6857839E-013  0.5052886E+02  0.7816164E-02  0.1300439E+00
        -11   -1    0    0    0    0  0.00000000000E+00  0.00000000000E+00  0.45593999997E+02  0.45594000000E+02  0.51100000000E-03 0. -1.
         11   -1    0    0    0    0 -0.00000000000E+00 -0.00000000000E+00 -0.45593999997E+02  0.45594000000E+02  0.51100000000E-03 0.  1.
    9900012    2    1    2    0    0  0.50376564909E+01 -0.64959032076E+01  0.39819478066E+02  0.50528861115E+02  0.30000003847E+02 0.  0.
        -12    1    1    2    0    0 -0.50376564909E+01  0.64959032076E+01 -0.39819478066E+02  0.40659138885E+02  0.00000000000E+00 0.  1.
         11    1    3    3    0    0 -0.73361190871E-01  0.13667788172E+01 -0.11769681915E+01  0.18051926724E+01  0.51100000000E-03 0. -1.
        -11    1    3    3    0    0 -0.67290358591E+01  0.27689692531E+01  0.25477715242E+02  0.26496435393E+02  0.51100000000E-03 0.  1.
        -12    1    3    3    0    0  0.11840053541E+02 -0.10631651278E+02  0.15518731016E+02  0.22227233050E+02  0.00000000000E+00 0.  1.
</event>
<event>
 7    1  0.6857839E-013  0.5052885E+02  0.7816164E-02  0.1300439E+00
        -11   -1    0    0    0    0  0.00000000000E+00  0.00000000000E+00  0.45593999997E+02  0.45594000000E+02  0.51100000000E-03 0. -1.
         11   -1    0    0    0    0 -0.00000000000E+00 -0.00000000000E+00 -0.45593999997E+02  0.45594000000E+02  0.51100000000E-03 0.  1.
    9900012    2    1    2    0    0 -0.96924170528E+01  0.14343519426E+02  0.36789767241E+02  0.50528850088E+02  0.29999970329E+02 0.  0.
        -12    1    1    2    0    0  0.96924170528E+01 -0.14343519426E+02 -0.36789767241E+02  0.40659149912E+02  0.00000000000E+00 0.  1.
         11    1    3    3    0    0 -0.63588487037E+01 -0.41439872052E+01  0.11986894879E+02  0.14187784742E+02  0.51100000000E-03 0.  1.
        -11    1    3    3    0    0 -0.55482952707E+01  0.21037836816E+02  0.16281458400E+02  0.27174621363E+02  0.51100000000E-03 0. -1.
         12    1    3    3    0    0  0.22147269216E+01 -0.25503301848E+01  0.85214139621E+01  0.91664439835E+01  0.00000000000E+00 0. -1.
</event>
<event>
 7    1  0.6857839E-013  0.5052882E+02  0.7816164E-02  0.1300439E+00
        -11   -1    0    0    0    0  0.00000000000E+00  0.00000000000E+00  0.45593999997E+02  0.45594000000E+02  0.51100000000E-03 0. -1.
         11   -1    0    0    0    0 -0.00000000000E+00 -0.00000000000E+00 -0.45593999997E+02  0.45594000000E+02  0.51100000000E-03 0.  1.
    9900012    2    1    2    0    0 -0.13823768694E+02 -0.32676068245E+02  0.19858166833E+02  0.50528821370E+02  0.29999883037E+02 0.  0.
        -12    1    1    2    0    0  0.13823768694E+02  0.32676068245E+02 -0.19858166833E+02  0.40659178630E+02  0.00000000000E+00 0.  1.
         11    1    3    3    0    0  0.18176944600E+01  0.33265303444E+01  0.66020997355E+01  0.76129848588E+01  0.51100000000E-03 0. -1.
        -11    1    3    3    0    0 -0.78166458574E+01 -0.10952716153E+02  0.93445354981E+01  0.16382377347E+02  0.51100000000E-03 0.  1.
        -12    1    3    3    0    0 -0.78248172965E+01 -0.25049882436E+02  0.39115315997E+01  0.26533459165E+02  0.00000000000E+00 0.  1.
</event>
<event>
 7    1  0.6857839E-013  0.5052886E+02  0.7816164E-02  0.1300439E+00
        -11   -1    0    0    0    0  0.00000000000E+00  0.00000000000E+00  0.45593999997E+02  0.45594000000E+02  0.51100000000E-03 0. -1.
         11   -1    0    0    0    0 -0.00000000000E+00 -0.00000000000E+00 -0.45593999997E+02  0.45594000000E+02  0.51100000000E-03 0.  1.
    9900012    2    1    2    0    0  0.16215877662E+02  0.16861871525E+02  0.33254900405E+02  0.50528858339E+02  0.29999995406E+02 0.  0.
        -12    1    1    2    0    0 -0.16215877662E+02 -0.16861871525E+02 -0.33254900405E+02  0.40659141661E+02  0.00000000000E+00 0.  1.
         11    1    3    3    0    0  0.84616732762E+01 -0.33304711297E+01  0.21557564830E+02  0.23397020200E+02  0.51100000000E-03 0.  1.
        -11    1    3    3    0    0  0.66256542702E+01  0.34043244694E+01  0.52487806153E+01  0.91125417865E+01  0.51100000000E-03 0. -1.
        -12    1    3    3    0    0  0.11285501153E+01  0.16788018185E+02  0.64485549605E+01  0.18019296352E+02  0.00000000000E+00 0.  1.
</event>
<event>
 7    1  0.6857839E-013  0.5052885E+02  0.7816164E-02  0.1300439E+00
        -11   -1    0    0    0    0  0.00000000000E+00  0.00000000000E+00  0.45593999997E+02  0.45594000000E+02  0.51100000000E-03 0.  1.
         11   -1    0    0    0    0 -0.00000000000E+00 -0.00000000000E+00 -0.45593999997E+02  0.45594000000E+02  0.51100000000E-03 0. -1.
    9900012    2    1    2    0    0 -0.27428804456E+02 -0.73343754670E+01 -0.29103845746E+02  0.50528853248E+02  0.29999979934E+02 0.  0.
        -12    1    1    2    0    0  0.27428804456E+02  0.73343754670E+01  0.29103845746E+02  0.40659146752E+02  0.00000000000E+00 0.  1.
         11    1    3    3    0    0  0.52425119860E+00 -0.66482983220E+01 -0.24030830569E+01  0.70886894655E+01  0.51100000000E-03 0.  1.
        -11    1    3    3    0    0 -0.23656637295E+02  0.74689340736E+01 -0.17096104293E+02  0.30128030911E+02  0.51100000000E-03 0. -1.
         12    1    3    3    0    0 -0.42964183591E+01 -0.81550112186E+01 -0.96046583964E+01  0.13312132872E+02  0.00000000000E+00 0. -1.
</event>
<event>
 7    1  0.6857839E-013  0.5052885E+02  0.7816164E-02  0.1300439E+00
        -11   -1    0    0    0    0  0.00000000000E+00  0.00000000000E+00  0.45593999997E+02  0.45594000000E+02  0.51100000000E-03 0.  1.
         11   -1    0    0    0    0 -0.00000000000E+00 -0.00000000000E+00 -0.45593999997E+02  0.45594000000E+02  0.51100000000E-03 0. -1.
    9900012    2    1    2    0    0 -0.14662481907E+02  0.29333064163E+02 -0.24036414618E+02  0.50528852732E+02  0.29999978364E+02 0.  0.
        -12    1    1    2    0    0  0.14662481907E+02 -0.29333064163E+02  0.24036414618E+02  0.40659147268E+02  0.00000000000E+00 0.  1.
         11    1    3    3    0    0 -0.14156429628E+02  0.18785167384E+02 -0.27762869689E+02  0.36387689499E+02  0.51100000000E-03 0. -1.
        -11    1    3    3    0    0  0.10218123831E+01  0.82013466255E+01 -0.13203928374E+01  0.83695653725E+01  0.51100000000E-03 0.  1.
        -12    1    3    3    0    0 -0.15278646621E+01  0.23465501533E+01  0.50468479084E+01  0.57715978600E+01  0.00000000000E+00 0.  1.
</event>
<event>
 7    1  0.6857839E-013  0.5052888E+02  0.7816164E-02  0.1300439E+00
        -11   -1    0    0    0    0  0.00000000000E+00  0.00000000000E+00  0.45593999997E+02  0.45594000000E+02  0.51100000000E-03 0.  1.
         11   -1    0    0    0    0 -0.00000000000E+00 -0.00000000000E+00 -0.45593999997E+02  0.45594000000E+02  0.51100000000E-03 0. -1.
    9900012    2    1    2    0    0  0.15495055441E+02  0.14777295135E+02 -0.34564421199E+02  0.50528875471E+02  0.30000047483E+02 0.  0.
        -12    1    1    2    0    0 -0.15495055441E+02 -0.14777295135E+02  0.34564421199E+02  0.40659124529E+02  0.00000000000E+00 0.  1.
         11    1    3    3    0    0  0.10799027382E+02  0.73447226800E+00 -0.14503423429E+02  0.18097174734E+02  0.51100000000E-03 0. -1.
        -11    1    3    3    0    0  0.11116990570E+02  0.14344896527E+02 -0.18285758728E+02  0.25763006583E+02  0.51100000000E-03 0.  1.
        -12    1    3    3    0    0 -0.64209625110E+01 -0.30207365982E+00 -0.17752390413E+01  0.66686941538E+01  0.00000000000E+00 0.  1.
</event>
<event>
 7    1  0.6857839E-013  0.5052886E+02  0.7816164E-02  0.1300439E+00
        -11   -1    0    0    0    0  0.00000000000E+00  0.00000000000E+00  0.45593999997E+02  0.45594000000E+02  0.51100000000E-03 0.  1.
         11   -1    0    0    0    0 -0.00000000000E+00 -0.00000000000E+00 -0.45593999997E+02  0.45594000000E+02  0.51100000000E-03 0. -1.
    9900012    2    1    2    0    0  0.34451864734E+02 -0.86309355436E+01 -0.19792460994E+02  0.50528861492E+02  0.30000004990E+02 0.  0.
        -12    1    1    2    0    0 -0.34451864734E+02  0.86309355436E+01  0.19792460994E+02  0.40659138508E+02  0.00000000000E+00 0.  1.
         11    1    3    3    0    0  0.30242120559E+02 -0.10165974712E+02 -0.10614297674E+02  0.33624339594E+02  0.51100000000E-03 0. -1.
        -11    1    3    3    0    0  0.10608525982E+01 -0.59421474992E+01 -0.32426843169E+01  0.68519724881E+01  0.51100000000E-03 0.  1.
        -12    1    3    3    0    0  0.31488915766E+01  0.74771866680E+01 -0.59354790031E+01  0.10052549409E+02  0.00000000000E+00 0.  1.
</event>
<event>
 7    1  0.6857839E-013  0.5052887E+02  0.7816164E-02  0.1300439E+00
        -11   -1    0    0    0    0  0.00000000000E+00  0.00000000000E+00  0.45593999997E+02  0.45594000000E+02  0.51100000000E-03 0.  1.
         11   -1    0    0    0    0 -0.00000000000E+00 -0.00000000000E+00 -0.45593999997E+02  0.45594000000E+02  0.51100000000E-03 0. -1.
    9900012    2    1    2    0    0  0.58950153951E+01  0.24241206074E+02 -0.32105725418E+02  0.50528869623E+02  0.30000029705E+02 0.  0.
        -12    1    1    2    0    0 -0.58950153951E+01 -0.24241206074E+02  0.32105725418E+02  0.40659130377E+02  0.00000000000E+00 0.  1.
         11    1    3    3    0    0 -0.23645394485E+01  0.57601027229E+00  0.16343140122E+01  0.29315213096E+01  0.51100000000E-03 0. -1.
        -11    1    3    3    0    0  0.31053670059E+00  0.11246264760E+02 -0.53223267885E+00  0.11263133489E+02  0.51100000000E-03 0.  1.
         12    1    3    3    0    0  0.79490181430E+01  0.12418931041E+02 -0.33207806752E+02  0.36334214824E+02  0.00000000000E+00 0. -1.
</event>
<event>
 7    1  0.6857839E-013  0.5052882E+02  0.7816164E-02  0.1300439E+00
        -11   -1    0    0    0    0  0.00000000000E+00  0.00000000000E+00  0.45593999997E+02  0.45594000000E+02  0.51100000000E-03 0.  1.
         11   -1    0    0    0    0 -0.00000000000E+00 -0.00000000000E+00 -0.45593999997E+02  0.45594000000E+02  0.51100000000E-03 0. -1.
    9900012    2    1    2    0    0  0.22418482867E+02 -0.59170648887E+01 -0.33400136726E+02  0.50528816975E+02  0.29999869678E+02 0.  0.
        -12    1    1    2    0    0 -0.22418482867E+02  0.59170648887E+01  0.33400136726E+02  0.40659183025E+02  0.00000000000E+00 0.  1.
         11    1    3    3    0    0  0.39869660600E+00 -0.79984274440E+00  0.46295048088E+00  0.10064943161E+01  0.51100000000E-03 0. -1.
        -11    1    3    3    0    0  0.88589695463E+01 -0.16495737303E+02 -0.18228779015E+02  0.26131955059E+02  0.51100000000E-03 0.  1.
         12    1    3    3    0    0  0.13160816714E+02  0.11378515159E+02 -0.15634308192E+02  0.23390367600E+02  0.00000000000E+00 0. -1.
</event>
<event>
 7    1  0.6857839E-013  0.5052885E+02  0.7816164E-02  0.1300439E+00
        -11   -1    0    0    0    0  0.00000000000E+00  0.00000000000E+00  0.45593999997E+02  0.45594000000E+02  0.51100000000E-03 0.  1.
         11   -1    0    0    0    0 -0.00000000000E+00 -0.00000000000E+00 -0.45593999997E+02  0.45594000000E+02  0.51100000000E-03 0. -1.
    9900012    2    1    2    0    0 -0.10065906093E+02 -0.26844853997E+02 -0.28830497938E+02  0.50528852653E+02  0.29999978125E+02 0.  0.
        -12    1    1    2    0    0  0.10065906093E+02  0.26844853997E+02  0.28830497938E+02  0.40659147347E+02  0.00000000000E+00 0.  1.
         11    1    3    3    0    0  0.13698752653E+01 -0.23386928915E+02 -0.13049163376E+02  0.26816145647E+02  0.51100000000E-03 0. -1.
        -11    1    3    3    0    0  0.29408573156E+01 -0.35256653640E+00 -0.31655952848E+01  0.43351976520E+01  0.51100000000E-03 0.  1.
         12    1    3    3    0    0 -0.14376638674E+02 -0.31053585464E+01 -0.12615739277E+02  0.19377509354E+02  0.00000000000E+00 0. -1.
</event>
<event>
 7    1  0.9232679E-013  0.5052886E+02  0.7816164E-02  0.1300439E+00
        -11   -1    0    0    0    0  0.00000000000E+00  0.00000000000E+00  0.45593999997E+02  0.45594000000E+02  0.51100000000E-03 0. -1.
         11   -1    0    0    0    0 -0.00000000000E+00 -0.00000000000E+00 -0.45593999997E+02  0.45594000000E+02  0.51100000000E-03 0.  1.
    9900012    2    1    2    0    0  0.11303282449E+02 -0.38695761960E+02  0.52952584821E+01  0.50528856500E+02  0.29999989817E+02 0.  0.
        -12    1    1    2    0    0 -0.11303282449E+02  0.38695761960E+02 -0.52952584821E+01  0.40659143500E+02  0.00000000000E+00 0.  1.
         11    1    3    3    0    0  0.23980211137E+01 -0.22635340408E+02  0.68054672906E+01  0.23757599330E+02  0.51100000000E-03 0. -1.
        -11    1    3    3    0    0  0.23446111712E+01 -0.15501029948E+01  0.78234061642E+01  0.83129841279E+01  0.51100000000E-03 0.  1.
        -12    1    3    3    0    0  0.65606501645E+01 -0.14510318557E+02 -0.93336149727E+01  0.18458273041E+02  0.00000000000E+00 0.  1.
</event>
<event>
 7    1  0.6857839E-013  0.5052887E+02  0.7816164E-02  0.1300439E+00
        -11   -1    0    0    0    0  0.00000000000E+00  0.00000000000E+00  0.45593999997E+02  0.45594000000E+02  0.51100000000E-03 0.  1.
         11   -1    0    0    0    0 -0.00000000000E+00 -0.00000000000E+00 -0.45593999997E+02  0.45594000000E+02  0.51100000000E-03 0. -1.
    9900012    2    1    2    0    0  0.10320264029E+01  0.22462467793E+02 -0.33875322223E+02  0.50528868264E+02  0.30000025575E+02 0.  0.
        -12    1    1    2    0    0 -0.10320264029E+01 -0.22462467793E+02  0.33875322223E+02  0.40659131736E+02  0.00000000000E+00 0.  1.
         11    1    3    3    0    0  0.27780012854E+00  0.12219761118E+02 -0.13446224947E+02  0.18171425378E+02  0.51100000000E-03 0. -1.
        -11    1    3    3    0    0 -0.91002857931E+01  0.60643039150E+01 -0.21055344794E+01  0.11136617942E+02  0.51100000000E-03 0.  1.
         12    1    3    3    0    0  0.98545120674E+01  0.41784027601E+01 -0.18323562797E+02  0.21220824943E+02  0.00000000000E+00 0. -1.
</event>
<event>
 7    1  0.6857839E-013  0.5052886E+02  0.7816164E-02  0.1300439E+00
        -11   -1    0    0    0    0  0.00000000000E+00  0.00000000000E+00  0.45593999997E+02  0.45594000000E+02  0.51100000000E-03 0. -1.
         11   -1    0    0    0    0 -0.00000000000E+00 -0.00000000000E+00 -0.45593999997E+02  0.45594000000E+02  0.51100000000E-03 0.  1.
    9900012    2    1    2    0    0 -0.25215341747E+01 -0.39584533781E+02  0.89371097466E+01  0.50528863513E+02  0.30000011133E+02 0.  0.
        -12    1    1    2    0    0  0.25215341747E+01  0.39584533781E+02 -0.89371097466E+01  0.40659136487E+02  0.00000000000E+00 0.  1.
         11    1    3    3    0    0 -0.30847006504E+01 -0.13141901104E+02 -0.33463813401E+01  0.13907667348E+02  0.51100000000E-03 0. -1.
        -11    1    3    3    0    0 -0.10361576724E+02 -0.14495045791E+02  0.95075114361E+01  0.20195578691E+02  0.51100000000E-03 0.  1.
         12    1    3    3    0    0  0.10924743199E+02 -0.11947586887E+02  0.27759796506E+01  0.16425617474E+02  0.00000000000E+00 0. -1.
</event>
<event>
 7    1  0.6857839E-013  0.5052887E+02  0.7816164E-02  0.1300439E+00
        -11   -1    0    0    0    0  0.00000000000E+00  0.00000000000E+00  0.45593999997E+02  0.45594000000E+02  0.51100000000E-03 0.  1.
         11   -1    0    0    0    0 -0.00000000000E+00 -0.00000000000E+00 -0.45593999997E+02  0.45594000000E+02  0.51100000000E-03 0. -1.
    9900012    2    1    2    0    0 -0.23146784979E+02  0.28183154936E+02 -0.17975014608E+02  0.50528867850E+02  0.30000024317E+02 0.  0.
        -12    1    1    2    0    0  0.23146784979E+02 -0.28183154936E+02  0.17975014608E+02  0.40659132150E+02  0.00000000000E+00 0.  1.
         11    1    3    3    0    0 -0.19945484177E+02  0.28995394864E+02 -0.10374236820E+02  0.36690326412E+02  0.51100000000E-03 0. -1.
        -11    1    3    3    0    0 -0.25421294516E+01  0.47098344770E+01 -0.14472029628E+01  0.55443087600E+01  0.51100000000E-03 0.  1.
        -12    1    3    3    0    0 -0.65917135076E+00 -0.55220744044E+01 -0.61535748246E+01  0.82942326782E+01  0.00000000000E+00 0.  1.
</event>
<event>
 7    1  0.1128883E-012  0.5052888E+02  0.7816164E-02  0.1300439E+00
        -11   -1    0    0    0    0  0.00000000000E+00  0.00000000000E+00  0.45593999997E+02  0.45594000000E+02  0.51100000000E-03 0. -1.
         11   -1    0    0    0    0 -0.00000000000E+00 -0.00000000000E+00 -0.45593999997E+02  0.45594000000E+02  0.51100000000E-03 0.  1.
    9900012    2    1    2    0    0 -0.40580519071E+02 -0.21887116391E+01  0.12628264743E+01  0.50528883957E+02  0.30000073275E+02 0.  0.
        -12    1    1    2    0    0  0.40580519071E+02  0.21887116391E+01 -0.12628264743E+01  0.40659116043E+02  0.00000000000E+00 0.  1.
         11    1    3    3    0    0 -0.25001171860E+02  0.46906619225E+01  0.97312209781E+01  0.27235226557E+02  0.51100000000E-03 0. -1.
        -11    1    3    3    0    0 -0.96909868369E+01  0.29620620535E+01 -0.50768718571E+01  0.11334181294E+02  0.51100000000E-03 0.  1.
        -12    1    3    3    0    0 -0.58883603743E+01 -0.98414356151E+01 -0.33915226467E+01  0.11959476106E+02  0.00000000000E+00 0.  1.
</event>
<event>
 7    1  0.6857839E-013  0.5052886E+02  0.7816164E-02  0.1300439E+00
        -11   -1    0    0    0    0  0.00000000000E+00  0.00000000000E+00  0.45593999997E+02  0.45594000000E+02  0.51100000000E-03 0.  1.
         11   -1    0    0    0    0 -0.00000000000E+00 -0.00000000000E+00 -0.45593999997E+02  0.45594000000E+02  0.51100000000E-03 0. -1.
    9900012    2    1    2    0    0  0.81262986988E+01  0.19923763470E+02 -0.34498877722E+02  0.50528860248E+02  0.30000001208E+02 0.  0.
        -12    1    1    2    0    0 -0.81262986988E+01 -0.19923763470E+02  0.34498877722E+02  0.40659139752E+02  0.00000000000E+00 0.  1.
         11    1    3    3    0    0  0.10475307708E+01 -0.12804315158E+01 -0.19174896687E+02  0.19246129191E+02  0.51100000000E-03 0. -1.
        -11    1    3    3    0    0  0.81616366101E+01  0.14635027470E+02 -0.17547557135E+02  0.24263410784E+02  0.51100000000E-03 0.  1.
        -12    1    3    3    0    0 -0.10828686822E+01  0.65691675154E+01  0.22235761000E+01  0.70193202734E+01  0.00000000000E+00 0.  1.
</event>
<event>
 7    1  0.6857839E-013  0.5052886E+02  0.7816164E-02  0.1300439E+00
        -11   -1    0    0    0    0  0.00000000000E+00  0.00000000000E+00  0.45593999997E+02  0.45594000000E+02  0.51100000000E-03 0.  1.
         11   -1    0    0    0    0 -0.00000000000E+00 -0.00000000000E+00 -0.45593999997E+02  0.45594000000E+02  0.51100000000E-03 0. -1.
    9900012    2    1    2    0    0 -0.35327896099E+02  0.18370009068E+02 -0.82248443019E+01  0.50528861547E+02  0.30000005159E+02 0.  0.
        -12    1    1    2    0    0  0.35327896099E+02 -0.18370009068E+02  0.82248443019E+01  0.40659138453E+02  0.00000000000E+00 0.  1.
         11    1    3    3    0    0 -0.19668967987E+02  0.18032940303E+01 -0.31902017918E+01  0.20007437586E+02  0.51100000000E-03 0. -1.
        -11    1    3    3    0    0 -0.14124534023E+01 -0.42316979942E+01  0.10598613449E+01  0.45853679089E+01  0.51100000000E-03 0.  1.
         12    1    3    3    0    0 -0.14246474710E+02  0.20798413032E+02 -0.60945038550E+01  0.25936056052E+02  0.00000000000E+00 0. -1.
</event>
<event>
 7    1  0.7963408E-013  0.5052886E+02  0.7816164E-02  0.1300439E+00
        -11   -1    0    0    0    0  0.00000000000E+00  0.00000000000E+00  0.45593999997E+02  0.45594000000E+02  0.51100000000E-03 0.  1.
         11   -1    0    0    0    0 -0.00000000000E+00 -0.00000000000E+00 -0.45593999997E+02  0.45594000000E+02  0.51100000000E-03 0. -1.
    9900012    2    1    2    0    0  0.18580962824E+02 -0.24438018771E+02 -0.26658893065E+02  0.50528861785E+02  0.30000005883E+02 0.  0.
        -12    1    1    2    0    0 -0.18580962824E+02  0.24438018771E+02  0.26658893065E+02  0.40659138215E+02  0.00000000000E+00 0.  1.
         11    1    3    3    0    0  0.12334618250E+02 -0.13337890625E+02 -0.16211271483E+02  0.24348459028E+02  0.51100000000E-03 0. -1.
        -11    1    3    3    0    0  0.41161900599E+01 -0.16985992712E+02 -0.93632751475E+01  0.19827705131E+02  0.51100000000E-03 0.  1.
        -12    1    3    3    0    0  0.21301545147E+01  0.58858645659E+01 -0.10843464348E+01  0.63526976266E+01  0.00000000000E+00 0.  1.
</event>
<event>
 7    1  0.6857839E-013  0.5052886E+02  0.7816164E-02  0.1300439E+00
        -11   -1    0    0    0    0  0.00000000000E+00  0.00000000000E+00  0.45593999997E+02  0.45594000000E+02  0.51100000000E-03 0. -1.
         11   -1    0    0    0    0 -0.00000000000E+00 -0.00000000000E+00 -0.45593999997E+02  0.45594000000E+02  0.51100000000E-03 0.  1.
    9900012    2    1    2    0    0  0.33514346356E+02 -0.13095848180E+02 -0.18932848669E+02  0.50528863143E+02  0.30000010010E+02 0.  0.
        -12    1    1    2    0    0 -0.33514346356E+02  0.13095848180E+02  0.18932848669E+02  0.40659136857E+02  0.00000000000E+00 0.  1.
         11    1    3    3    0    0  0.28650174160E+02 -0.11948601821E+02 -0.95031708816E+01  0.32464008100E+02  0.51100000000E-03 0. -1.
        -11    1    3    3    0    0  0.14061933984E+01  0.16215023736E+01  0.36616596543E+01  0.42443375816E+01  0.51100000000E-03 0.  1.
        -12    1    3    3    0    0  0.34579787980E+01 -0.27687487328E+01 -0.13091337441E+02  0.13820517462E+02  0.00000000000E+00 0.  1.
</event>
<event>
 7    1  0.6857839E-013  0.5052880E+02  0.7816164E-02  0.1300439E+00
        -11   -1    0    0    0    0  0.00000000000E+00  0.00000000000E+00  0.45593999997E+02  0.45594000000E+02  0.51100000000E-03 0.  1.
         11   -1    0    0    0    0 -0.00000000000E+00 -0.00000000000E+00 -0.45593999997E+02  0.45594000000E+02  0.51100000000E-03 0. -1.
    9900012    2    1    2    0    0 -0.22477605514E+02 -0.19301249761E+02 -0.27845821738E+02  0.50528797103E+02  0.29999809273E+02 0.  0.
        -12    1    1    2    0    0  0.22477605514E+02  0.19301249761E+02  0.27845821738E+02  0.40659202897E+02  0.00000000000E+00 0.  1.
         11    1    3    3    0    0 -0.38769737830E+01 -0.74546989206E+01 -0.19702629242E+02  0.21419548572E+02  0.51100000000E-03 0. -1.
        -11    1    3    3    0    0 -0.11031231204E+02 -0.15899714181E+02 -0.52976805517E+01  0.20063758183E+02  0.51100000000E-03 0.  1.
         12    1    3    3    0    0 -0.75694005270E+01  0.40531633413E+01 -0.28455119441E+01  0.90454903478E+01  0.00000000000E+00 0. -1.
</event>
<event>
 7    1  0.6857839E-013  0.5052886E+02  0.7816164E-02  0.1300439E+00
        -11   -1    0    0    0    0  0.00000000000E+00  0.00000000000E+00  0.45593999997E+02  0.45594000000E+02  0.51100000000E-03 0.  1.
         11   -1    0    0    0    0 -0.00000000000E+00 -0.00000000000E+00 -0.45593999997E+02  0.45594000000E+02  0.51100000000E-03 0. -1.
    9900012    2    1    2    0    0  0.23722018481E+02 -0.17800727396E+02 -0.27813042936E+02  0.50528863093E+02  0.30000009858E+02 0.  0.
        -12    1    1    2    0    0 -0.23722018481E+02  0.17800727396E+02  0.27813042936E+02  0.40659136907E+02  0.00000000000E+00 0.  1.
         11    1    3    3    0    0 -0.18709870564E+01  0.24418523667E+01  0.13867858158E+01  0.33743756024E+01  0.51100000000E-03 0. -1.
        -11    1    3    3    0    0  0.12588683326E+02 -0.18411456851E+02 -0.11439902281E+02  0.25066472742E+02  0.51100000000E-03 0.  1.
         12    1    3    3    0    0  0.13004322212E+02 -0.18311229120E+01 -0.17759926471E+02  0.22088014749E+02  0.00000000000E+00 0. -1.
</event>
<event>
 7    1  0.6857839E-013  0.5052886E+02  0.7816164E-02  0.1300439E+00
        -11   -1    0    0    0    0  0.00000000000E+00  0.00000000000E+00  0.45593999997E+02  0.45594000000E+02  0.51100000000E-03 0. -1.
         11   -1    0    0    0    0 -0.00000000000E+00 -0.00000000000E+00 -0.45593999997E+02  0.45594000000E+02  0.51100000000E-03 0.  1.
    9900012    2    1    2    0    0 -0.10244264610E+02 -0.48816807259E+01  0.39043438133E+02  0.50528858034E+02  0.29999994481E+02 0.  0.
        -12    1    1    2    0    0  0.10244264610E+02  0.48816807259E+01 -0.39043438133E+02  0.40659141966E+02  0.00000000000E+00 0.  1.
         11    1    3    3    0    0 -0.10157503930E+02  0.41705022559E+01  0.15753064481E+02  0.19202265907E+02  0.51100000000E-03 0. -1.
        -11    1    3    3    0    0  0.99869108652E+00 -0.98646804826E+01  0.26255977878E+02  0.28065738535E+02  0.51100000000E-03 0.  1.
        -12    1    3    3    0    0 -0.10854517665E+01  0.81249750078E+00 -0.29656042260E+01  0.32608535924E+01  0.00000000000E+00 0.  1.
</event>
<event>
 7    1  0.6857839E-013  0.5052890E+02  0.7816164E-02  0.1300439E+00
        -11   -1    0    0    0    0  0.00000000000E+00  0.00000000000E+00  0.45593999997E+02  0.45594000000E+02  0.51100000000E-03 0.  1.
         11   -1    0    0    0    0 -0.00000000000E+00 -0.00000000000E+00 -0.45593999997E+02  0.45594000000E+02  0.51100000000E-03 0. -1.
    9900012    2    1    2    0    0 -0.11899017248E+02 -0.32161129033E+02 -0.21845775132E+02  0.50528896182E+02  0.30000110435E+02 0.  0.
        -12    1    1    2    0    0  0.11899017248E+02  0.32161129033E+02  0.21845775132E+02  0.40659103818E+02  0.00000000000E+00 0.  1.
         11    1    3    3    0    0  0.45650732701E-01 -0.20478951050E+02 -0.88727196695E+01  0.22318482804E+02  0.51100000000E-03 0. -1.
        -11    1    3    3    0    0  0.28781682345E+01 -0.22223138020E+01  0.27993010118E+01  0.45889669248E+01  0.51100000000E-03 0.  1.
         12    1    3    3    0    0 -0.14822836215E+02 -0.94598641814E+01 -0.15772356474E+02  0.23621446453E+02  0.00000000000E+00 0. -1.
</event>
<event>
 7    1  0.6857839E-013  0.5052886E+02  0.7816164E-02  0.1300439E+00
        -11   -1    0    0    0    0  0.00000000000E+00  0.00000000000E+00  0.45593999997E+02  0.45594000000E+02  0.51100000000E-03 0. -1.
         11   -1    0    0    0    0 -0.00000000000E+00 -0.00000000000E+00 -0.45593999997E+02  0.45594000000E+02  0.51100000000E-03 0.  1.
    9900012    2    1    2    0    0  0.14215690748E+02 -0.52116043630E+01  0.37734850352E+02  0.50528860627E+02  0.30000002363E+02 0.  0.
        -12    1    1    2    0    0 -0.14215690748E+02  0.52116043630E+01 -0.37734850352E+02  0.40659139373E+02  0.00000000000E+00 0.  1.
         11    1    3    3    0    0  0.12003925268E+02 -0.11835499780E+02  0.13381474596E+02  0.21522944490E+02  0.51100000000E-03 0. -1.
        -11    1    3    3    0    0 -0.11960678305E+00  0.17402197092E+00 -0.18795105550E+01  0.18913354056E+01  0.51100000000E-03 0.  1.
         12    1    3    3    0    0  0.23313722628E+01  0.64498734458E+01  0.26232886311E+02  0.27114580732E+02  0.00000000000E+00 0. -1.
</event>
<event>
 7    1  0.6857839E-013  0.5052888E+02  0.7816164E-02  0.1300439E+00
        -11   -1    0    0    0    0  0.00000000000E+00  0.00000000000E+00  0.45593999997E+02  0.45594000000E+02  0.51100000000E-03 0.  1.
         11   -1    0    0    0    0 -0.00000000000E+00 -0.00000000000E+00 -0.45593999997E+02  0.45594000000E+02  0.51100000000E-03 0. -1.
    9900012    2    1    2    0    0 -0.30355177580E+01 -0.24658537813E+02 -0.32185497348E+02  0.50528879317E+02  0.30000059173E+02 0.  0.
        -12    1    1    2    0    0  0.30355177580E+01  0.24658537813E+02  0.32185497348E+02  0.40659120683E+02  0.00000000000E+00 0.  1.
         11    1    3    3    0    0  0.48090047169E+01 -0.15440743286E+02 -0.51439505783E+01  0.16970660193E+02  0.51100000000E-03 0. -1.
        -11    1    3    3    0    0 -0.34663151338E+01 -0.16009890122E+01  0.11835614172E+01  0.39974147037E+01  0.51100000000E-03 0.  1.
         12    1    3    3    0    0 -0.43782073411E+01 -0.76168055148E+01 -0.28225108187E+02  0.29560804420E+02  0.00000000000E+00 0. -1.
</event>
<event>
 7    1  0.6857839E-013  0.5052887E+02  0.7816164E-02  0.1300439E+00
        -11   -1    0    0    0    0  0.00000000000E+00  0.00000000000E+00  0.45593999997E+02  0.45594000000E+02  0.51100000000E-03 0.  1.
         11   -1    0    0    0    0 -0.00000000000E+00 -0.00000000000E+00 -0.45593999997E+02  0.45594000000E+02  0.51100000000E-03 0. -1.
    9900012    2    1    2    0    0  0.31343887810E+02 -0.19658170408E+02  0.16860664935E+02  0.50528868321E+02  0.30000025748E+02 0.  0.
        -12    1    1    2    0    0 -0.31343887810E+02  0.19658170408E+02 -0.16860664935E+02  0.40659131679E+02  0.00000000000E+00 0.  1.
         11    1    3    3    0    0  0.16530915008E+02 -0.28431198347E+01  0.85420053318E+01  0.18823398650E+02  0.51100000000E-03 0. -1.
        -11    1    3    3    0    0  0.35020668159E+01 -0.17702597424E+02  0.93298271064E+01  0.20314824677E+02  0.51100000000E-03 0.  1.
         12    1    3    3    0    0  0.11310905987E+02  0.88754685098E+00 -0.10111675036E+01  0.11390644994E+02  0.00000000000E+00 0. -1.
</event>
<event>
 7    1  0.6857839E-013  0.5052886E+02  0.7816164E-02  0.1300439E+00
        -11   -1    0    0    0    0  0.00000000000E+00  0.00000000000E+00  0.45593999997E+02  0.45594000000E+02  0.51100000000E-03 0. -1.
         11   -1    0    0    0    0 -0.00000000000E+00 -0.00000000000E+00 -0.45593999997E+02  0.45594000000E+02  0.51100000000E-03 0.  1.
    9900012    2    1    2    0    0 -0.22803546659E+01  0.27892628689E+02 -0.29495196592E+02  0.50528863578E+02  0.30000011331E+02 0.  0.
        -12    1    1    2    0    0  0.22803546659E+01 -0.27892628689E+02  0.29495196592E+02  0.40659136422E+02  0.00000000000E+00 0.  1.
         11    1    3    3    0    0 -0.53447527208E+01  0.20045760561E+02 -0.20345554415E+02  0.29057537453E+02  0.51100000000E-03 0. -1.
        -11    1    3    3    0    0  0.38986498365E+01  0.13017160352E+02 -0.40932729003E+01  0.14191575581E+02  0.51100000000E-03 0.  1.
        -12    1    3    3    0    0 -0.83425178156E+00 -0.51702922239E+01 -0.50563692766E+01  0.72797505436E+01  0.00000000000E+00 0.  1.
</event>
<event>
 7    1  0.6857839E-013  0.5052884E+02  0.7816164E-02  0.1300439E+00
        -11   -1    0    0    0    0  0.00000000000E+00  0.00000000000E+00  0.45593999997E+02  0.45594000000E+02  0.51100000000E-03 0.  1.
         11   -1    0    0    0    0 -0.00000000000E+00 -0.00000000000E+00 -0.45593999997E+02  0.45594000000E+02  0.51100000000E-03 0. -1.
    9900012    2    1    2    0    0  0.31789891242E+01 -0.35112167356E+02 -0.20253323436E+02  0.50528838935E+02  0.29999936426E+02 0.  0.
        -12    1    1    2    0    0 -0.31789891242E+01  0.35112167356E+02  0.20253323436E+02  0.40659161065E+02  0.00000000000E+00 0.  1.
         11    1    3    3    0    0  0.96635741954E+01 -0.46355597604E+01 -0.44718008097E+01  0.11613357967E+02  0.51100000000E-03 0. -1.
        -11    1    3    3    0    0 -0.19942871237E+01 -0.14125051198E+01  0.31147351695E+01  0.39590311040E+01  0.51100000000E-03 0.  1.
         12    1    3    3    0    0 -0.44902979475E+01 -0.29064102476E+02 -0.18896257796E+02  0.34956449864E+02  0.00000000000E+00 0. -1.
</event>
<event>
 7    1  0.6857839E-013  0.5052884E+02  0.7816164E-02  0.1300439E+00
        -11   -1    0    0    0    0  0.00000000000E+00  0.00000000000E+00  0.45593999997E+02  0.45594000000E+02  0.51100000000E-03 0.  1.
         11   -1    0    0    0    0 -0.00000000000E+00 -0.00000000000E+00 -0.45593999997E+02  0.45594000000E+02  0.51100000000E-03 0. -1.
    9900012    2    1    2    0    0  0.43257507221E+01  0.13407236869E+00 -0.40428169570E+02  0.50528843719E+02  0.29999950969E+02 0.  0.
        -12    1    1    2    0    0 -0.43257507221E+01 -0.13407236869E+00  0.40428169570E+02  0.40659156281E+02  0.00000000000E+00 0.  1.
         11    1    3    3    0    0  0.57092815152E+01 -0.11782236704E+02 -0.15550802411E+02  0.20328414917E+02  0.51100000000E-03 0. -1.
        -11    1    3    3    0    0 -0.25742471508E+01 -0.91261461059E+00 -0.10700819677E+02  0.11043874132E+02  0.51100000000E-03 0.  1.
        -12    1    3    3    0    0  0.11907163576E+01  0.12828923683E+02 -0.14176547482E+02  0.19156554670E+02  0.00000000000E+00 0.  1.
</event>
<event>
 7    1  0.6857839E-013  0.5052885E+02  0.7816164E-02  0.1300439E+00
        -11   -1    0    0    0    0  0.00000000000E+00  0.00000000000E+00  0.45593999997E+02  0.45594000000E+02  0.51100000000E-03 0.  1.
         11   -1    0    0    0    0 -0.00000000000E+00 -0.00000000000E+00 -0.45593999997E+02  0.45594000000E+02  0.51100000000E-03 0. -1.
    9900012    2    1    2    0    0  0.33233865804E+02 -0.37176624056E+00 -0.23420888969E+02  0.50528854823E+02  0.29999984720E+02 0.  0.
        -12    1    1    2    0    0 -0.33233865804E+02  0.37176624056E+00  0.23420888969E+02  0.40659145177E+02  0.00000000000E+00 0.  1.
         11    1    3    3    0    0  0.56481903710E+01  0.15441930804E+01  0.32636773056E+01  0.67035943010E+01  0.51100000000E-03 0. -1.
        -11    1    3    3    0    0  0.79361776084E+01 -0.99156950422E+01 -0.14819724830E+02  0.19517381164E+02  0.51100000000E-03 0.  1.
         12    1    3    3    0    0  0.19649497825E+02  0.79997357213E+01 -0.11864841444E+02  0.24307879358E+02  0.00000000000E+00 0. -1.
</event>
<event>
 7    1  0.6857839E-013  0.5052886E+02  0.7816164E-02  0.1300439E+00
        -11   -1    0    0    0    0  0.00000000000E+00  0.00000000000E+00  0.45593999997E+02  0.45594000000E+02  0.51100000000E-03 0.  1.
         11   -1    0    0    0    0 -0.00000000000E+00 -0.00000000000E+00 -0.45593999997E+02  0.45594000000E+02  0.51100000000E-03 0. -1.
    9900012    2    1    2    0    0 -0.19655481250E+02 -0.34835347032E+02 -0.73025035170E+01  0.50528857072E+02  0.29999991556E+02 0.  0.
        -12    1    1    2    0    0  0.19655481250E+02  0.34835347032E+02  0.73025035170E+01  0.40659142928E+02  0.00000000000E+00 0.  1.
         11    1    3    3    0    0 -0.72168315029E+01 -0.22709210455E+01 -0.53075497313E+01  0.92417435448E+01  0.51100000000E-03 0. -1.
        -11    1    3    3    0    0 -0.12869924404E+02 -0.17917128980E+02  0.80916774981E+01  0.23497525615E+02  0.51100000000E-03 0.  1.
         12    1    3    3    0    0  0.43127465633E+00 -0.14647297006E+02 -0.10086631284E+02  0.17789587912E+02  0.00000000000E+00 0. -1.
</event>
<event>
 7    1  0.6857839E-013  0.5052886E+02  0.7816164E-02  0.1300439E+00
        -11   -1    0    0    0    0  0.00000000000E+00  0.00000000000E+00  0.45593999997E+02  0.45594000000E+02  0.51100000000E-03 0. -1.
         11   -1    0    0    0    0 -0.00000000000E+00 -0.00000000000E+00 -0.45593999997E+02  0.45594000000E+02  0.51100000000E-03 0.  1.
    9900012    2    1    2    0    0  0.68612125719E+00 -0.39906008894E+02 -0.77591951921E+01  0.50528863041E+02  0.30000009699E+02 0.  0.
        -12    1    1    2    0    0 -0.68612125719E+00  0.39906008894E+02  0.77591951921E+01  0.40659136959E+02  0.00000000000E+00 0.  1.
         11    1    3    3    0    0  0.77432556328E+00 -0.64241519767E+01 -0.57311765914E+01  0.86438240426E+01  0.51100000000E-03 0. -1.
        -11    1    3    3    0    0  0.62509138194E+01  0.13160107446E+01  0.60554060008E+00  0.64165791148E+01  0.51100000000E-03 0.  1.
         12    1    3    3    0    0 -0.63391181255E+01 -0.34797867662E+02 -0.26335592009E+01  0.35468459883E+02  0.00000000000E+00 0. -1.
</event>
<event>
 7    1  0.6857839E-013  0.5052885E+02  0.7816164E-02  0.1300439E+00
        -11   -1    0    0    0    0  0.00000000000E+00  0.00000000000E+00  0.45593999997E+02  0.45594000000E+02  0.51100000000E-03 0. -1.
         11   -1    0    0    0    0 -0.00000000000E+00 -0.00000000000E+00 -0.45593999997E+02  0.45594000000E+02  0.51100000000E-03 0.  1.
    9900012    2    1    2    0    0  0.37035270702E+02 -0.11171657564E+02 -0.12519940840E+02  0.50528854321E+02  0.29999983194E+02 0.  0.
        -12    1    1    2    0    0 -0.37035270702E+02  0.11171657564E+02  0.12519940840E+02  0.40659145679E+02  0.00000000000E+00 0.  1.
         11    1    3    3    0    0  0.44370283795E+01  0.24661543359E+01 -0.20193281622E+01  0.54632247379E+01  0.51100000000E-03 0.  1.
        -11    1    3    3    0    0  0.92421927078E+01 -0.75449058190E+01 -0.16339524962E+02  0.20231752423E+02  0.51100000000E-03 0. -1.
         12    1    3    3    0    0  0.23356049615E+02 -0.60929060808E+01  0.58389122844E+01  0.24833877160E+02  0.00000000000E+00 0. -1.
</event>
<event>
 7    1  0.6857839E-013  0.5052883E+02  0.7816164E-02  0.1300439E+00
        -11   -1    0    0    0    0  0.00000000000E+00  0.00000000000E+00  0.45593999997E+02  0.45594000000E+02  0.51100000000E-03 0.  1.
         11   -1    0    0    0    0 -0.00000000000E+00 -0.00000000000E+00 -0.45593999997E+02  0.45594000000E+02  0.51100000000E-03 0. -1.
    9900012    2    1    2    0    0 -0.22481034414E+02  0.27702070312E+02 -0.19502986958E+02  0.50528829963E+02  0.29999909154E+02 0.  0.
        -12    1    1    2    0    0  0.22481034414E+02 -0.27702070312E+02  0.19502986958E+02  0.40659170037E+02  0.00000000000E+00 0.  1.
         11    1    3    3    0    0 -0.25985886582E+02  0.14325038519E+02 -0.18883621766E+02  0.35171923480E+02  0.51100000000E-03 0. -1.
        -11    1    3    3    0    0  0.18657711320E+00 -0.68767108408E+00  0.48811597532E+00  0.86368976231E+00  0.51100000000E-03 0.  1.
         12    1    3    3    0    0  0.33182750552E+01  0.14064702877E+02 -0.11074811666E+01  0.14493216720E+02  0.00000000000E+00 0. -1.
</event>
<event>
 7    1  0.6857839E-013  0.5052886E+02  0.7816164E-02  0.1300439E+00
        -11   -1    0    0    0    0  0.00000000000E+00  0.00000000000E+00  0.45593999997E+02  0.45594000000E+02  0.51100000000E-03 0. -1.
         11   -1    0    0    0    0 -0.00000000000E+00 -0.00000000000E+00 -0.45593999997E+02  0.45594000000E+02  0.51100000000E-03 0.  1.
    9900012    2    1    2    0    0 -0.12145578173E+02  0.38798613829E+02 -0.56425711729E+00  0.50528857236E+02  0.29999992055E+02 0.  0.
        -12    1    1    2    0    0  0.12145578173E+02 -0.38798613829E+02  0.56425711729E+00  0.40659142764E+02  0.00000000000E+00 0.  1.
         11    1    3    3    0    0 -0.61923737269E+01  0.18905995767E+01  0.40452339235E+00  0.64871795543E+01  0.51100000000E-03 0. -1.
        -11    1    3    3    0    0 -0.10549732078E+02  0.12171812621E+02  0.71239724316E+01  0.17612519776E+02  0.51100000000E-03 0.  1.
         12    1    3    3    0    0  0.45965276324E+01  0.24736201632E+02 -0.80927529413E+01  0.26429157906E+02  0.00000000000E+00 0. -1.
</event>
<event>
 7    1  0.6857839E-013  0.5052886E+02  0.7816164E-02  0.1300439E+00
        -11   -1    0    0    0    0  0.00000000000E+00  0.00000000000E+00  0.45593999997E+02  0.45594000000E+02  0.51100000000E-03 0. -1.
         11   -1    0    0    0    0 -0.00000000000E+00 -0.00000000000E+00 -0.45593999997E+02  0.45594000000E+02  0.51100000000E-03 0.  1.
    9900012    2    1    2    0    0  0.37571115231E+02  0.49037232294E+00  0.15535001814E+02  0.50528862699E+02  0.30000008659E+02 0.  0.
        -12    1    1    2    0    0 -0.37571115231E+02 -0.49037232294E+00 -0.15535001814E+02  0.40659137301E+02  0.00000000000E+00 0.  1.
         11    1    3    3    0    0  0.93220101884E+01 -0.34315399368E+01  0.17743342992E+00  0.99351307577E+01  0.51100000000E-03 0.  1.
        -11    1    3    3    0    0  0.12284588230E+02  0.83723612746E+00  0.20174708983E+02  0.23635375079E+02  0.51100000000E-03 0. -1.
         12    1    3    3    0    0  0.15964516813E+02  0.30846761323E+01 -0.48171405989E+01  0.16958356862E+02  0.00000000000E+00 0. -1.
</event>
<event>
 7    1  0.6857839E-013  0.5052885E+02  0.7816164E-02  0.1300439E+00
        -11   -1    0    0    0    0  0.00000000000E+00  0.00000000000E+00  0.45593999997E+02  0.45594000000E+02  0.51100000000E-03 0.  1.
         11   -1    0    0    0    0 -0.00000000000E+00 -0.00000000000E+00 -0.45593999997E+02  0.45594000000E+02  0.51100000000E-03 0. -1.
    9900012    2    1    2    0    0  0.48495589026E+01 -0.30942569349E+02 -0.25926922539E+02  0.50528854266E+02  0.29999983027E+02 0.  0.
        -12    1    1    2    0    0 -0.48495589026E+01  0.30942569349E+02  0.25926922539E+02  0.40659145734E+02  0.00000000000E+00 0.  1.
         11    1    3    3    0    0 -0.39364697839E+01 -0.12110875455E+02  0.15046571326E+01  0.12823146728E+02  0.51100000000E-03 0. -1.
        -11    1    3    3    0    0  0.67341326747E+00 -0.16029936931E+00 -0.12351943189E+02  0.12371324995E+02  0.51100000000E-03 0.  1.
         12    1    3    3    0    0  0.81126154191E+01 -0.18671394524E+02 -0.15079636483E+02  0.25334382544E+02  0.00000000000E+00 0. -1.
</event>
<event>
 7    1  0.6857839E-013  0.5052887E+02  0.7816164E-02  0.1300439E+00
        -11   -1    0    0    0    0  0.00000000000E+00  0.00000000000E+00  0.45593999997E+02  0.45594000000E+02  0.51100000000E-03 0. -1.
         11   -1    0    0    0    0 -0.00000000000E+00 -0.00000000000E+00 -0.45593999997E+02  0.45594000000E+02  0.51100000000E-03 0.  1.
    9900012    2    1    2    0    0  0.10533648629E+02 -0.33913344142E+02  0.19801311134E+02  0.50528873264E+02  0.30000040772E+02 0.  0.
        -12    1    1    2    0    0 -0.10533648629E+02  0.33913344142E+02 -0.19801311134E+02  0.40659126736E+02  0.00000000000E+00 0.  1.
         11    1    3    3    0    0  0.37236065145E-01 -0.11077981294E+01  0.47292548894E+01  0.48574124068E+01  0.51100000000E-03 0. -1.
        -11    1    3    3    0    0  0.11937460598E+01 -0.31287549626E+02  0.17592980726E+02  0.35914464528E+02  0.51100000000E-03 0.  1.
        -12    1    3    3    0    0  0.93026665042E+01 -0.15179963866E+01 -0.25209244814E+01  0.97569963287E+01  0.00000000000E+00 0.  1.
</event>
<event>
 7    1  0.6857839E-013  0.5052887E+02  0.7816164E-02  0.1300439E+00
        -11   -1    0    0    0    0  0.00000000000E+00  0.00000000000E+00  0.45593999997E+02  0.45594000000E+02  0.51100000000E-03 0.  1.
         11   -1    0    0    0    0 -0.00000000000E+00 -0.00000000000E+00 -0.45593999997E+02  0.45594000000E+02  0.51100000000E-03 0. -1.
    9900012    2    1    2    0    0 -0.81178019798E+01  0.31551821704E+02 -0.24325890983E+02  0.50528866538E+02  0.30000020328E+02 0.  0.
        -12    1    1    2    0    0  0.81178019798E+01 -0.31551821704E+02  0.24325890983E+02  0.40659133462E+02  0.00000000000E+00 0.  1.
         11    1    3    3    0    0 -0.44753326887E+00  0.58291506046E+01 -0.23930752044E+01  0.63171268780E+01  0.51100000000E-03 0. -1.
        -11    1    3    3    0    0 -0.94146172132E+01 -0.27789409093E+01 -0.61855315652E+01  0.11602513988E+02  0.51100000000E-03 0.  1.
        -12    1    3    3    0    0  0.17443485023E+01  0.28501612008E+02 -0.15747284213E+02  0.32609225671E+02  0.00000000000E+00 0.  1.
</event>
<event>
 7    1  0.6857839E-013  0.5052886E+02  0.7816164E-02  0.1300439E+00
        -11   -1    0    0    0    0  0.00000000000E+00  0.00000000000E+00  0.45593999997E+02  0.45594000000E+02  0.51100000000E-03 0.  1.
         11   -1    0    0    0    0 -0.00000000000E+00 -0.00000000000E+00 -0.45593999997E+02  0.45594000000E+02  0.51100000000E-03 0. -1.
    9900012    2    1    2    0    0 -0.19722904137E+02 -0.34012262793E+02 -0.10360445132E+02  0.50528858454E+02  0.29999995757E+02 0.  0.
        -12    1    1    2    0    0  0.19722904137E+02  0.34012262793E+02  0.10360445132E+02  0.40659141546E+02  0.00000000000E+00 0.  1.
         11    1    3    3    0    0 -0.31715361001E+01 -0.22563419352E+02 -0.47713805934E+01  0.23279446023E+02  0.51100000000E-03 0. -1.
        -11    1    3    3    0    0 -0.87936595013E+01 -0.11936451547E+02  0.35568580089E+01  0.15246591819E+02  0.51100000000E-03 0.  1.
         12    1    3    3    0    0 -0.77577085359E+01  0.48760810579E+00 -0.91459225474E+01  0.12002820612E+02  0.00000000000E+00 0. -1.
</event>
<event>
 7    1  0.6857839E-013  0.5052882E+02  0.7816164E-02  0.1300439E+00
        -11   -1    0    0    0    0  0.00000000000E+00  0.00000000000E+00  0.45593999997E+02  0.45594000000E+02  0.51100000000E-03 0.  1.
         11   -1    0    0    0    0 -0.00000000000E+00 -0.00000000000E+00 -0.45593999997E+02  0.45594000000E+02  0.51100000000E-03 0. -1.
    9900012    2    1    2    0    0  0.27528594750E+02  0.25600380168E+02 -0.15490836896E+02  0.50528818732E+02  0.29999875017E+02 0.  0.
        -12    1    1    2    0    0 -0.27528594750E+02 -0.25600380168E+02  0.15490836896E+02  0.40659181268E+02  0.00000000000E+00 0.  1.
         11    1    3    3    0    0  0.15645858739E+02  0.10903642732E+02 -0.14271918057E+02  0.23819529084E+02  0.51100000000E-03 0. -1.
        -11    1    3    3    0    0  0.16147139439E+02  0.10000681778E+02  0.28021160633E+01  0.19198843788E+02  0.51100000000E-03 0.  1.
         12    1    3    3    0    0 -0.42644034277E+01  0.46960556576E+01 -0.40210349026E+01  0.75104458604E+01  0.00000000000E+00 0. -1.
</event>
<event>
 7    1  0.6857839E-013  0.5052888E+02  0.7816164E-02  0.1300439E+00
        -11   -1    0    0    0    0  0.00000000000E+00  0.00000000000E+00  0.45593999997E+02  0.45594000000E+02  0.51100000000E-03 0. -1.
         11   -1    0    0    0    0 -0.00000000000E+00 -0.00000000000E+00 -0.45593999997E+02  0.45594000000E+02  0.51100000000E-03 0.  1.
    9900012    2    1    2    0    0  0.90552677995E+01 -0.20352778099E+02  0.34013683247E+02  0.50528879261E+02  0.30000059002E+02 0.  0.
        -12    1    1    2    0    0 -0.90552677995E+01  0.20352778099E+02 -0.34013683247E+02  0.40659120739E+02  0.00000000000E+00 0.  1.
         11    1    3    3    0    0  0.36722167052E+01 -0.16611365706E+02  0.15551054967E+02  0.23049033754E+02  0.51100000000E-03 0. -1.
        -11    1    3    3    0    0  0.92129275297E+01 -0.28988543985E+01  0.20787063226E+02  0.22921243167E+02  0.51100000000E-03 0.  1.
        -12    1    3    3    0    0 -0.38298764354E+01 -0.84255799381E+00 -0.23244349456E+01  0.45586023406E+01  0.00000000000E+00 0.  1.
</event>
<event>
 7    1  0.6857839E-013  0.5052887E+02  0.7816164E-02  0.1300439E+00
        -11   -1    0    0    0    0  0.00000000000E+00  0.00000000000E+00  0.45593999997E+02  0.45594000000E+02  0.51100000000E-03 0. -1.
         11   -1    0    0    0    0 -0.00000000000E+00 -0.00000000000E+00 -0.45593999997E+02  0.45594000000E+02  0.51100000000E-03 0.  1.
    9900012    2    1    2    0    0  0.21561492109E+01  0.37517537507E+02 -0.15522584791E+02  0.50528865251E+02  0.30000016415E+02 0.  0.
        -12    1    1    2    0    0 -0.21561492109E+01 -0.37517537507E+02  0.15522584791E+02  0.40659134749E+02  0.00000000000E+00 0.  1.
         11    1    3    3    0    0 -0.57659237395E+01  0.12145698850E+02  0.72012209247E+00  0.13464117246E+02  0.51100000000E-03 0. -1.
        -11    1    3    3    0    0  0.88618257652E+01  0.78682767693E+01  0.17102519712E+01  0.11973583310E+02  0.51100000000E-03 0.  1.
         12    1    3    3    0    0 -0.93975281479E+00  0.17503561888E+02 -0.17952958855E+02  0.25091164695E+02  0.00000000000E+00 0. -1.
</event>
<event>
 7    1  0.6857839E-013  0.5052886E+02  0.7816164E-02  0.1300439E+00
        -11   -1    0    0    0    0  0.00000000000E+00  0.00000000000E+00  0.45593999997E+02  0.45594000000E+02  0.51100000000E-03 0. -1.
         11   -1    0    0    0    0 -0.00000000000E+00 -0.00000000000E+00 -0.45593999997E+02  0.45594000000E+02  0.51100000000E-03 0.  1.
    9900012    2    1    2    0    0  0.99110848024E+00 -0.28224282655E+02  0.29250184292E+02  0.50528859471E+02  0.29999998849E+02 0.  0.
        -12    1    1    2    0    0 -0.99110848024E+00  0.28224282655E+02 -0.29250184292E+02  0.40659140529E+02  0.00000000000E+00 0.  1.
         11    1    3    3    0    0 -0.44824568015E+01 -0.10155415895E+02  0.17255207533E+02  0.20517482259E+02  0.51100000000E-03 0. -1.
        -11    1    3    3    0    0 -0.25623523485E+01 -0.94345099018E+00  0.10707905640E+02  0.11050565270E+02  0.51100000000E-03 0.  1.
        -12    1    3    3    0    0  0.80359176302E+01 -0.17125415770E+02  0.12870711193E+01  0.18960811942E+02  0.00000000000E+00 0.  1.
</event>
<event>
 7    1  0.1051125E-012  0.5052886E+02  0.7816164E-02  0.1300439E+00
        -11   -1    0    0    0    0  0.00000000000E+00  0.00000000000E+00  0.45593999997E+02  0.45594000000E+02  0.51100000000E-03 0.  1.
         11   -1    0    0    0    0 -0.00000000000E+00 -0.00000000000E+00 -0.45593999997E+02  0.45594000000E+02  0.51100000000E-03 0. -1.
    9900012    2    1    2    0    0  0.24008348497E+02 -0.24109607197E+02 -0.22259650657E+02  0.50528855837E+02  0.29999987801E+02 0.  0.
        -12    1    1    2    0    0 -0.24008348497E+02  0.24109607197E+02  0.22259650657E+02  0.40659144163E+02  0.00000000000E+00 0.  1.
         11    1    3    3    0    0  0.23241198016E+02 -0.14876373141E+02 -0.10279483307E+02  0.29447029398E+02  0.51100000000E-03 0. -1.
        -11    1    3    3    0    0  0.35390136223E+01 -0.10449721636E+02 -0.27532985015E+01  0.11371101644E+02  0.51100000000E-03 0.  1.
        -12    1    3    3    0    0 -0.27718631406E+01  0.12164875808E+01 -0.92268688481E+01  0.97107247950E+01  0.00000000000E+00 0.  1.
</event>
<event>
 7    1  0.6857839E-013  0.5052886E+02  0.7816164E-02  0.1300439E+00
        -11   -1    0    0    0    0  0.00000000000E+00  0.00000000000E+00  0.45593999997E+02  0.45594000000E+02  0.51100000000E-03 0.  1.
         11   -1    0    0    0    0 -0.00000000000E+00 -0.00000000000E+00 -0.45593999997E+02  0.45594000000E+02  0.51100000000E-03 0. -1.
    9900012    2    1    2    0    0  0.17843788418E+02 -0.99731198914E+01 -0.35146855222E+02  0.50528864035E+02  0.30000012719E+02 0.  0.
        -12    1    1    2    0    0 -0.17843788418E+02  0.99731198914E+01  0.35146855222E+02  0.40659135965E+02  0.00000000000E+00 0.  1.
         11    1    3    3    0    0 -0.39494839749E+00  0.13333999205E+01 -0.13694654186E+02  0.13765082387E+02  0.51100000000E-03 0. -1.
        -11    1    3    3    0    0 -0.29482948084E+01 -0.69584841511E+01 -0.23688005763E+01  0.79198586092E+01  0.51100000000E-03 0.  1.
         12    1    3    3    0    0  0.21187031624E+02 -0.43480356608E+01 -0.19083400459E+02  0.28843923038E+02  0.00000000000E+00 0. -1.
</event>
<event>
 7    1  0.6857839E-013  0.5052888E+02  0.7816164E-02  0.1300439E+00
        -11   -1    0    0    0    0  0.00000000000E+00  0.00000000000E+00  0.45593999997E+02  0.45594000000E+02  0.51100000000E-03 0.  1.
         11   -1    0    0    0    0 -0.00000000000E+00 -0.00000000000E+00 -0.45593999997E+02  0.45594000000E+02  0.51100000000E-03 0. -1.
    9900012    2    1    2    0    0 -0.28496231012E+01 -0.66830387270E+01 -0.40004760699E+02  0.50528877567E+02  0.30000053852E+02 0.  0.
        -12    1    1    2    0    0  0.28496231012E+01  0.66830387270E+01  0.40004760699E+02  0.40659122433E+02  0.00000000000E+00 0.  1.
         11    1    3    3    0    0 -0.10301802801E+02 -0.10877889065E+01 -0.19299577841E+02  0.21903975227E+02  0.51100000000E-03 0. -1.
        -11    1    3    3    0    0  0.47991737956E+01 -0.29694271864E+01 -0.23367929170E+02  0.24039752097E+02  0.51100000000E-03 0.  1.
        -12    1    3    3    0    0  0.26530059038E+01 -0.26258226341E+01  0.26627463114E+01  0.45851502429E+01  0.00000000000E+00 0.  1.
</event>
<event>
 7    1  0.6857839E-013  0.5052887E+02  0.7816164E-02  0.1300439E+00
        -11   -1    0    0    0    0  0.00000000000E+00  0.00000000000E+00  0.45593999997E+02  0.45594000000E+02  0.51100000000E-03 0.  1.
         11   -1    0    0    0    0 -0.00000000000E+00 -0.00000000000E+00 -0.45593999997E+02  0.45594000000E+02  0.51100000000E-03 0. -1.
    9900012    2    1    2    0    0  0.35928154096E+02 -0.15020299817E+02 -0.11692884125E+02  0.50528865694E+02  0.30000017764E+02 0.  0.
        -12    1    1    2    0    0 -0.35928154096E+02  0.15020299817E+02  0.11692884125E+02  0.40659134306E+02  0.00000000000E+00 0.  1.
         11    1    3    3    0    0  0.25471022483E+02  0.33610799781E+00 -0.10791393772E+02  0.27664781487E+02  0.51100000000E-03 0. -1.
        -11    1    3    3    0    0  0.40551204294E+01 -0.52516016640E+01 -0.68224451458E+01  0.95167788544E+01  0.51100000000E-03 0.  1.
         12    1    3    3    0    0  0.64020111837E+01 -0.10104806151E+02  0.59209547922E+01  0.13347305353E+02  0.00000000000E+00 0. -1.
</event>
<event>
 7    1  0.6857839E-013  0.5052887E+02  0.7816164E-02  0.1300439E+00
        -11   -1    0    0    0    0  0.00000000000E+00  0.00000000000E+00  0.45593999997E+02  0.45594000000E+02  0.51100000000E-03 0.  1.
         11   -1    0    0    0    0 -0.00000000000E+00 -0.00000000000E+00 -0.45593999997E+02  0.45594000000E+02  0.51100000000E-03 0. -1.
    9900012    2    1    2    0    0 -0.30594194191E+02  0.17041310384E+01 -0.26725564643E+02  0.50528873272E+02  0.30000040798E+02 0.  0.
        -12    1    1    2    0    0  0.30594194191E+02 -0.17041310384E+01  0.26725564643E+02  0.40659126728E+02  0.00000000000E+00 0.  1.
         11    1    3    3    0    0 -0.88512146526E+01  0.19213641744E+01 -0.11207349308E+02  0.14409730042E+02  0.51100000000E-03 0. -1.
        -11    1    3    3    0    0 -0.66165239350E+00  0.92109000655E+01 -0.66567359646E+01  0.11383786623E+02  0.51100000000E-03 0.  1.
        -12    1    3    3    0    0 -0.21081327145E+02 -0.94281332015E+01 -0.88614793707E+01  0.24735356607E+02  0.00000000000E+00 0.  1.
</event>
<event>
 7    1  0.6857839E-013  0.5052885E+02  0.7816164E-02  0.1300439E+00
        -11   -1    0    0    0    0  0.00000000000E+00  0.00000000000E+00  0.45593999997E+02  0.45594000000E+02  0.51100000000E-03 0.  1.
         11   -1    0    0    0    0 -0.00000000000E+00 -0.00000000000E+00 -0.45593999997E+02  0.45594000000E+02  0.51100000000E-03 0. -1.
    9900012    2    1    2    0    0 -0.21328416859E+02  0.24225289129E+02 -0.24726512674E+02  0.50528850622E+02  0.29999971950E+02 0.  0.
        -12    1    1    2    0    0  0.21328416859E+02 -0.24225289129E+02  0.24726512674E+02  0.40659149378E+02  0.00000000000E+00 0.  1.
         11    1    3    3    0    0 -0.46291397070E+01  0.33676770208E+01 -0.49664277677E+01  0.75786270509E+01  0.51100000000E-03 0. -1.
        -11    1    3    3    0    0  0.54599776121E+01  0.63201888436E+00 -0.99819962781E+01  0.11395220636E+02  0.51100000000E-03 0.  1.
         12    1    3    3    0    0 -0.22159254765E+02  0.20225593224E+02 -0.97780886286E+01  0.31555002935E+02  0.00000000000E+00 0. -1.
</event>
<event>
 7    1  0.6857839E-013  0.5052886E+02  0.7816164E-02  0.1300439E+00
        -11   -1    0    0    0    0  0.00000000000E+00  0.00000000000E+00  0.45593999997E+02  0.45594000000E+02  0.51100000000E-03 0.  1.
         11   -1    0    0    0    0 -0.00000000000E+00 -0.00000000000E+00 -0.45593999997E+02  0.45594000000E+02  0.51100000000E-03 0. -1.
    9900012    2    1    2    0    0 -0.44582941860E+01  0.65204518927E+01 -0.39884494921E+02  0.50528860621E+02  0.30000002345E+02 0.  0.
        -12    1    1    2    0    0  0.44582941860E+01 -0.65204518927E+01  0.39884494921E+02  0.40659139379E+02  0.00000000000E+00 0.  1.
         11    1    3    3    0    0 -0.12005111254E-01 -0.72868874371E+01 -0.60895984512E+01  0.94964247062E+01  0.51100000000E-03 0. -1.
        -11    1    3    3    0    0 -0.80891652914E+01  0.43211084739E+01 -0.27710094636E+02  0.29188283926E+02  0.51100000000E-03 0.  1.
         12    1    3    3    0    0  0.36428762168E+01  0.94862308558E+01 -0.60848018333E+01  0.11844151989E+02  0.00000000000E+00 0. -1.
</event>
<event>
 7    1  0.6857839E-013  0.5052886E+02  0.7816164E-02  0.1300439E+00
        -11   -1    0    0    0    0  0.00000000000E+00  0.00000000000E+00  0.45593999997E+02  0.45594000000E+02  0.51100000000E-03 0.  1.
         11   -1    0    0    0    0 -0.00000000000E+00 -0.00000000000E+00 -0.45593999997E+02  0.45594000000E+02  0.51100000000E-03 0. -1.
    9900012    2    1    2    0    0  0.10766428697E+02  0.17307538942E+02 -0.35180942878E+02  0.50528860401E+02  0.30000001676E+02 0.  0.
        -12    1    1    2    0    0 -0.10766428697E+02 -0.17307538942E+02  0.35180942878E+02  0.40659139599E+02  0.00000000000E+00 0.  1.
         11    1    3    3    0    0 -0.41580271692E+01  0.65152002022E+01 -0.91660210954E+01  0.11989702523E+02  0.51100000000E-03 0. -1.
        -11    1    3    3    0    0  0.10924995190E+02  0.17472874539E+02 -0.17946065462E+02  0.27326143716E+02  0.51100000000E-03 0.  1.
         12    1    3    3    0    0  0.39994606763E+01 -0.66805357998E+01 -0.80688563207E+01  0.11213014162E+02  0.00000000000E+00 0. -1.
</event>
<event>
 7    1  0.6857839E-013  0.5052894E+02  0.7816164E-02  0.1300439E+00
        -11   -1    0    0    0    0  0.00000000000E+00  0.00000000000E+00  0.45593999997E+02  0.45594000000E+02  0.51100000000E-03 0. -1.
         11   -1    0    0    0    0 -0.00000000000E+00 -0.00000000000E+00 -0.45593999997E+02  0.45594000000E+02  0.51100000000E-03 0.  1.
    9900012    2    1    2    0    0 -0.40479687620E+02  0.30374811133E+01 -0.23082792939E+01  0.50528935148E+02  0.30000228876E+02 0.  0.
        -12    1    1    2    0    0  0.40479687620E+02 -0.30374811133E+01  0.23082792939E+01  0.40659064852E+02  0.00000000000E+00 0.  1.
         11    1    3    3    0    0 -0.25724925280E+02  0.50183212971E+01  0.38198727499E+01  0.26486727948E+02  0.51100000000E-03 0. -1.
        -11    1    3    3    0    0 -0.44078534798E+01 -0.16338238182E+01  0.63040845789E+01  0.78638435391E+01  0.51100000000E-03 0.  1.
        -12    1    3    3    0    0 -0.10346908859E+02 -0.34701636564E+00 -0.12432236623E+02  0.16178363661E+02  0.00000000000E+00 0.  1.
</event>
<event>
 7    1  0.6857839E-013  0.5052886E+02  0.7816164E-02  0.1300439E+00
        -11   -1    0    0    0    0  0.00000000000E+00  0.00000000000E+00  0.45593999997E+02  0.45594000000E+02  0.51100000000E-03 0.  1.
         11   -1    0    0    0    0 -0.00000000000E+00 -0.00000000000E+00 -0.45593999997E+02  0.45594000000E+02  0.51100000000E-03 0. -1.
    9900012    2    1    2    0    0 -0.20433467051E+02 -0.31452603731E+02 -0.15696271035E+02  0.50528858573E+02  0.29999996118E+02 0.  0.
        -12    1    1    2    0    0  0.20433467051E+02  0.31452603731E+02  0.15696271035E+02  0.40659141427E+02  0.00000000000E+00 0.  1.
         11    1    3    3    0    0  0.15095961178E+01 -0.11567706652E+02 -0.73184260315E+01  0.13771349878E+02  0.51100000000E-03 0. -1.
        -11    1    3    3    0    0 -0.39218714760E+01  0.41002967347E+01 -0.24316153158E+01  0.61730270121E+01  0.51100000000E-03 0.  1.
        -12    1    3    3    0    0 -0.18021191693E+02 -0.23985193814E+02 -0.59462296877E+01  0.30584481683E+02  0.00000000000E+00 0.  1.
</event>
<event>
 7    1  0.6857839E-013  0.5052885E+02  0.7816164E-02  0.1300439E+00
        -11   -1    0    0    0    0  0.00000000000E+00  0.00000000000E+00  0.45593999997E+02  0.45594000000E+02  0.51100000000E-03 0.  1.
         11   -1    0    0    0    0 -0.00000000000E+00 -0.00000000000E+00 -0.45593999997E+02  0.45594000000E+02  0.51100000000E-03 0. -1.
    9900012    2    1    2    0    0 -0.18846470067E+02 -0.19842817226E+02 -0.30070577916E+02  0.50528849915E+02  0.29999969802E+02 0.  0.
        -12    1    1    2    0    0  0.18846470067E+02  0.19842817226E+02  0.30070577916E+02  0.40659150085E+02  0.00000000000E+00 0.  1.
         11    1    3    3    0    0 -0.12651212193E+02 -0.14155882557E+02 -0.11771807547E+02  0.22338702606E+02  0.51100000000E-03 0. -1.
        -11    1    3    3    0    0 -0.90927826253E+01  0.87850297018E+00 -0.67353336536E+00  0.91599187112E+01  0.51100000000E-03 0.  1.
         12    1    3    3    0    0  0.28975247511E+01 -0.65654376388E+01 -0.17625237003E+02  0.19030228598E+02  0.00000000000E+00 0. -1.
</event>
<event>
 7    1  0.6857839E-013  0.5052886E+02  0.7816164E-02  0.1300439E+00
        -11   -1    0    0    0    0  0.00000000000E+00  0.00000000000E+00  0.45593999997E+02  0.45594000000E+02  0.51100000000E-03 0. -1.
         11   -1    0    0    0    0 -0.00000000000E+00 -0.00000000000E+00 -0.45593999997E+02  0.45594000000E+02  0.51100000000E-03 0.  1.
    9900012    2    1    2    0    0 -0.94096141442E+01  0.39544356543E+02 -0.93205037020E+00  0.50528859692E+02  0.29999999519E+02 0.  0.
        -12    1    1    2    0    0  0.94096141442E+01 -0.39544356543E+02  0.93205037020E+00  0.40659140308E+02  0.00000000000E+00 0.  1.
         11    1    3    3    0    0 -0.51520294969E+01  0.33057017821E+02  0.43753480110E+01  0.33740976655E+02  0.51100000000E-03 0. -1.
        -11    1    3    3    0    0  0.41942093026E+01  0.51633132775E+01  0.12609500077E+00  0.66533522292E+01  0.51100000000E-03 0.  1.
         12    1    3    3    0    0 -0.84517939498E+01  0.13240254439E+01 -0.54334933820E+01  0.10134530807E+02  0.00000000000E+00 0. -1.
</event>
<event>
 7    1  0.6857839E-013  0.5052886E+02  0.7816164E-02  0.1300439E+00
        -11   -1    0    0    0    0  0.00000000000E+00  0.00000000000E+00  0.45593999997E+02  0.45594000000E+02  0.51100000000E-03 0. -1.
         11   -1    0    0    0    0 -0.00000000000E+00 -0.00000000000E+00 -0.45593999997E+02  0.45594000000E+02  0.51100000000E-03 0.  1.
    9900012    2    1    2    0    0  0.24276670035E+02  0.31061121907E+02 -0.99506556260E+01  0.50528861427E+02  0.30000004794E+02 0.  0.
        -12    1    1    2    0    0 -0.24276670035E+02 -0.31061121907E+02  0.99506556260E+01  0.40659138573E+02  0.00000000000E+00 0.  1.
         11    1    3    3    0    0  0.14214446320E+02  0.12302739112E+02 -0.71081087182E+01  0.20098086567E+02  0.51100000000E-03 0. -1.
        -11    1    3    3    0    0 -0.13384603282E+01  0.20145120496E+01 -0.89518932259E+01  0.92728705069E+01  0.51100000000E-03 0.  1.
         12    1    3    3    0    0  0.11400684044E+02  0.16743870745E+02  0.61093463181E+01  0.21157904353E+02  0.00000000000E+00 0. -1.
</event>
<event>
 7    1  0.6857839E-013  0.5052889E+02  0.7816164E-02  0.1300439E+00
        -11   -1    0    0    0    0  0.00000000000E+00  0.00000000000E+00  0.45593999997E+02  0.45594000000E+02  0.51100000000E-03 0. -1.
         11   -1    0    0    0    0 -0.00000000000E+00 -0.00000000000E+00 -0.45593999997E+02  0.45594000000E+02  0.51100000000E-03 0.  1.
    9900012    2    1    2    0    0  0.33080207311E+00 -0.79017225279E+01  0.39882531823E+02  0.50528892859E+02  0.30000100333E+02 0.  0.
        -12    1    1    2    0    0 -0.33080207311E+00  0.79017225279E+01 -0.39882531823E+02  0.40659107141E+02  0.00000000000E+00 0.  1.
         11    1    3    3    0    0 -0.69576980136E+01  0.17689873979E+01  0.17281669533E+02  0.18713497272E+02  0.51100000000E-03 0. -1.
        -11    1    3    3    0    0  0.43426922071E+01  0.46345645837E+01  0.12611830062E+02  0.14120779803E+02  0.51100000000E-03 0.  1.
         12    1    3    3    0    0  0.29458078796E+01 -0.14305274509E+02  0.99890322284E+01  0.17694615783E+02  0.00000000000E+00 0. -1.
</event>
<event>
 7    1  0.6857839E-013  0.5052884E+02  0.7816164E-02  0.1300439E+00
        -11   -1    0    0    0    0  0.00000000000E+00  0.00000000000E+00  0.45593999997E+02  0.45594000000E+02  0.51100000000E-03 0.  1.
         11   -1    0    0    0    0 -0.00000000000E+00 -0.00000000000E+00 -0.45593999997E+02  0.45594000000E+02  0.51100000000E-03 0. -1.
    9900012    2    1    2    0    0 -0.33308893950E+02  0.16850503085E+02 -0.16116612070E+02  0.50528842913E+02  0.29999948518E+02 0.  0.
        -12    1    1    2    0    0  0.33308893950E+02 -0.16850503085E+02  0.16116612070E+02  0.40659157087E+02  0.00000000000E+00 0.  1.
         11    1    3    3    0    0 -0.25678601257E+01 -0.13560216561E+01 -0.14246538932E+02  0.14539483215E+02  0.51100000000E-03 0. -1.
        -11    1    3    3    0    0 -0.66992569809E+01  0.22996787879E+01 -0.95595293857E+00  0.71471961569E+01  0.51100000000E-03 0.  1.
         12    1    3    3    0    0 -0.24041776844E+02  0.15906845953E+02 -0.91412019939E+00  0.28842163541E+02  0.00000000000E+00 0. -1.
</event>
<event>
 7    1  0.6857839E-013  0.5052885E+02  0.7816164E-02  0.1300439E+00
        -11   -1    0    0    0    0  0.00000000000E+00  0.00000000000E+00  0.45593999997E+02  0.45594000000E+02  0.51100000000E-03 0. -1.
         11   -1    0    0    0    0 -0.00000000000E+00 -0.00000000000E+00 -0.45593999997E+02  0.45594000000E+02  0.51100000000E-03 0.  1.
    9900012    2    1    2    0    0  0.35447071659E+02 -0.19814981283E+02 -0.20094336711E+01  0.50528853475E+02  0.29999980622E+02 0.  0.
        -12    1    1    2    0    0 -0.35447071659E+02  0.19814981283E+02  0.20094336711E+01  0.40659146525E+02  0.00000000000E+00 0.  1.
         11    1    3    3    0    0  0.30112104175E+02 -0.23386805104E+02  0.59196967107E+00  0.38131770208E+02  0.51100000000E-03 0. -1.
        -11    1    3    3    0    0  0.38672416765E+01  0.27870644163E+01  0.36017036381E+01  0.59745757676E+01  0.51100000000E-03 0.  1.
        -12    1    3    3    0    0  0.14677258082E+01  0.78475940470E+00 -0.62031069803E+01  0.64225074994E+01  0.00000000000E+00 0.  1.
</event>
<event>
 7    1  0.6857839E-013  0.5052886E+02  0.7816164E-02  0.1300439E+00
        -11   -1    0    0    0    0  0.00000000000E+00  0.00000000000E+00  0.45593999997E+02  0.45594000000E+02  0.51100000000E-03 0. -1.
         11   -1    0    0    0    0 -0.00000000000E+00 -0.00000000000E+00 -0.45593999997E+02  0.45594000000E+02  0.51100000000E-03 0.  1.
    9900012    2    1    2    0    0 -0.22697087000E+02 -0.14908254722E+02  0.30261386695E+02  0.50528863980E+02  0.30000012554E+02 0.  0.
        -12    1    1    2    0    0  0.22697087000E+02  0.14908254722E+02 -0.30261386695E+02  0.40659136020E+02  0.00000000000E+00 0.  1.
         11    1    3    3    0    0 -0.14022823989E+02 -0.71582829715E+01  0.57128103316E+01  0.16748636060E+02  0.51100000000E-03 0. -1.
        -11    1    3    3    0    0 -0.63371397239E+01  0.57533633656E+01  0.50192061982E+01  0.99223465479E+01  0.51100000000E-03 0.  1.
         12    1    3    3    0    0 -0.23371232880E+01 -0.13503335116E+02  0.19529370165E+02  0.23857881372E+02  0.00000000000E+00 0. -1.
</event>
<event>
 7    1  0.6857839E-013  0.5052886E+02  0.7816164E-02  0.1300439E+00
        -11   -1    0    0    0    0  0.00000000000E+00  0.00000000000E+00  0.45593999997E+02  0.45594000000E+02  0.51100000000E-03 0.  1.
         11   -1    0    0    0    0 -0.00000000000E+00 -0.00000000000E+00 -0.45593999997E+02  0.45594000000E+02  0.51100000000E-03 0. -1.
    9900012    2    1    2    0    0 -0.19737921473E+02  0.32091353011E+02 -0.15288075350E+02  0.50528859207E+02  0.29999998046E+02 0.  0.
        -12    1    1    2    0    0  0.19737921473E+02 -0.32091353011E+02  0.15288075350E+02  0.40659140793E+02  0.00000000000E+00 0.  1.
         11    1    3    3    0    0  0.46851420026E+01  0.46935403093E+01 -0.17720396162E+01  0.68644009849E+01  0.51100000000E-03 0. -1.
        -11    1    3    3    0    0 -0.44073527264E+01 -0.25501301880E+01  0.26126396553E+00  0.50986450309E+01  0.51100000000E-03 0.  1.
         12    1    3    3    0    0 -0.20015710749E+02  0.29947942890E+02 -0.13777299699E+02  0.38565813191E+02  0.00000000000E+00 0. -1.
</event>
<event>
 7    1  0.6857839E-013  0.5052886E+02  0.7816164E-02  0.1300439E+00
        -11   -1    0    0    0    0  0.00000000000E+00  0.00000000000E+00  0.45593999997E+02  0.45594000000E+02  0.51100000000E-03 0.  1.
         11   -1    0    0    0    0 -0.00000000000E+00 -0.00000000000E+00 -0.45593999997E+02  0.45594000000E+02  0.51100000000E-03 0. -1.
    9900012    2    1    2    0    0 -0.31100403479E+01  0.29440421053E+02 -0.27870322343E+02  0.50528860680E+02  0.30000002522E+02 0.  0.
        -12    1    1    2    0    0  0.31100403479E+01 -0.29440421053E+02  0.27870322343E+02  0.40659139320E+02  0.00000000000E+00 0.  1.
         11    1    3    3    0    0 -0.31469434880E+01 -0.26408813819E+01 -0.59925844444E+01  0.72655747449E+01  0.51100000000E-03 0. -1.
        -11    1    3    3    0    0  0.94988444622E+01  0.14073501179E+02 -0.10202101388E+02  0.19808441498E+02  0.51100000000E-03 0.  1.
         12    1    3    3    0    0 -0.94619413221E+01  0.18007801256E+02 -0.11675636510E+02  0.23454844437E+02  0.00000000000E+00 0. -1.
</event>
<event>
 7    1  0.6857839E-013  0.5052886E+02  0.7816164E-02  0.1300439E+00
        -11   -1    0    0    0    0  0.00000000000E+00  0.00000000000E+00  0.45593999997E+02  0.45594000000E+02  0.51100000000E-03 0.  1.
         11   -1    0    0    0    0 -0.00000000000E+00 -0.00000000000E+00 -0.45593999997E+02  0.45594000000E+02  0.51100000000E-03 0. -1.
    9900012    2    1    2    0    0  0.23106935286E+02 -0.33134232327E+02  0.46214463375E+01  0.50528861096E+02  0.30000003786E+02 0.  0.
        -12    1    1    2    0    0 -0.23106935286E+02  0.33134232327E+02 -0.46214463375E+01  0.40659138904E+02  0.00000000000E+00 0.  1.
         11    1    3    3    0    0  0.72763382520E+01 -0.13238963636E+02  0.88645762358E+01  0.17515592157E+02  0.51100000000E-03 0. -1.
        -11    1    3    3    0    0  0.93339433558E+01  0.10509069569E+01  0.30916732495E+01  0.98886474173E+01  0.51100000000E-03 0.  1.
         12    1    3    3    0    0  0.64966536779E+01 -0.20946175648E+02 -0.73348031478E+01  0.23124621521E+02  0.00000000000E+00 0. -1.
</event>
<event>
 7    1  0.6857839E-013  0.5052901E+02  0.7816164E-02  0.1300438E+00
        -11   -1    0    0    0    0  0.00000000000E+00  0.00000000000E+00  0.45593999997E+02  0.45594000000E+02  0.51100000000E-03 0.  1.
         11   -1    0    0    0    0 -0.00000000000E+00 -0.00000000000E+00 -0.45593999997E+02  0.45594000000E+02  0.51100000000E-03 0. -1.
    9900012    2    1    2    0    0 -0.46363831916E+01 -0.30255568218E+02 -0.26763002778E+02  0.50529006223E+02  0.30000444911E+02 0.  0.
        -12    1    1    2    0    0  0.46363831916E+01  0.30255568218E+02  0.26763002778E+02  0.40658993777E+02  0.00000000000E+00 0.  1.
         11    1    3    3    0    0 -0.20433298151E+01 -0.23458263522E+02 -0.12090688617E+02  0.26469795535E+02  0.51100000000E-03 0. -1.
        -11    1    3    3    0    0  0.27246412819E+01 -0.42188456024E+01  0.27050835307E+01  0.57043672306E+01  0.51100000000E-03 0.  1.
        -12    1    3    3    0    0 -0.53176946584E+01 -0.25784590936E+01 -0.17377397692E+02  0.18354843457E+02  0.00000000000E+00 0.  1.
</event>
<event>
 7    1  0.6857839E-013  0.5052885E+02  0.7816164E-02  0.1300439E+00
        -11   -1    0    0    0    0  0.00000000000E+00  0.00000000000E+00  0.45593999997E+02  0.45594000000E+02  0.51100000000E-03 0. -1.
         11   -1    0    0    0    0 -0.00000000000E+00 -0.00000000000E+00 -0.45593999997E+02  0.45594000000E+02  0.51100000000E-03 0.  1.
    9900012    2    1    2    0    0 -0.39972325183E+02 -0.71569116351E+01 -0.20391937336E+01  0.50528850036E+02  0.29999970169E+02 0.  0.
        -12    1    1    2    0    0  0.39972325183E+02  0.71569116351E+01  0.20391937336E+01  0.40659149964E+02  0.00000000000E+00 0.  1.
         11    1    3    3    0    0 -0.21505009547E+02 -0.58977784566E+01 -0.11399917140E+02  0.25044107838E+02  0.51100000000E-03 0.  1.
        -11    1    3    3    0    0 -0.15970866639E+02  0.34250392779E+01  0.20672507647E+01  0.16464294738E+02  0.51100000000E-03 0. -1.
        -12    1    3    3    0    0 -0.24964489971E+01 -0.46841724563E+01  0.72934726413E+01  0.90204474592E+01  0.00000000000E+00 0.  1.
</event>
<event>
 7    1  0.6857839E-013  0.5052886E+02  0.7816164E-02  0.1300439E+00
        -11   -1    0    0    0    0  0.00000000000E+00  0.00000000000E+00  0.45593999997E+02  0.45594000000E+02  0.51100000000E-03 0. -1.
         11   -1    0    0    0    0 -0.00000000000E+00 -0.00000000000E+00 -0.45593999997E+02  0.45594000000E+02  0.51100000000E-03 0.  1.
    9900012    2    1    2    0    0 -0.97199769948E+01  0.39479218457E+02  0.28091187711E+00  0.50528861368E+02  0.30000004616E+02 0.  0.
        -12    1    1    2    0    0  0.97199769948E+01 -0.39479218457E+02 -0.28091187711E+00  0.40659138632E+02  0.00000000000E+00 0.  1.
         11    1    3    3    0    0  0.42064673713E+01  0.14018149086E+02  0.66928851634E+00  0.14650966484E+02  0.51100000000E-03 0. -1.
        -11    1    3    3    0    0 -0.32444814414E+01  0.17316780284E+02 -0.91380678029E+01  0.19846960036E+02  0.51100000000E-03 0.  1.
         12    1    3    3    0    0 -0.10681962925E+02  0.81442890873E+01  0.87496911636E+01  0.16030934849E+02  0.00000000000E+00 0. -1.
</event>
<event>
 7    1  0.6857839E-013  0.5052888E+02  0.7816164E-02  0.1300439E+00
        -11   -1    0    0    0    0  0.00000000000E+00  0.00000000000E+00  0.45593999997E+02  0.45594000000E+02  0.51100000000E-03 0. -1.
         11   -1    0    0    0    0 -0.00000000000E+00 -0.00000000000E+00 -0.45593999997E+02  0.45594000000E+02  0.51100000000E-03 0.  1.
    9900012    2    1    2    0    0 -0.30610838668E+02  0.21291589445E+02  0.16211370353E+02  0.50528883510E+02  0.30000071916E+02 0.  0.
        -12    1    1    2    0    0  0.30610838668E+02 -0.21291589445E+02 -0.16211370353E+02  0.40659116490E+02  0.00000000000E+00 0.  1.
         11    1    3    3    0    0 -0.23244187407E+02  0.18454545042E+02  0.64992321500E+00  0.29686442720E+02  0.51100000000E-03 0. -1.
        -11    1    3    3    0    0 -0.36092886256E+01  0.10851574529E+00 -0.91425679786E+00  0.37248631925E+01  0.51100000000E-03 0.  1.
        -12    1    3    3    0    0 -0.37573626358E+01  0.27285286576E+01  0.16475703936E+02  0.17117577597E+02  0.00000000000E+00 0.  1.
</event>
<event>
 7    1  0.6857839E-013  0.5052886E+02  0.7816164E-02  0.1300439E+00
        -11   -1    0    0    0    0  0.00000000000E+00  0.00000000000E+00  0.45593999997E+02  0.45594000000E+02  0.51100000000E-03 0.  1.
         11   -1    0    0    0    0 -0.00000000000E+00 -0.00000000000E+00 -0.45593999997E+02  0.45594000000E+02  0.51100000000E-03 0. -1.
    9900012    2    1    2    0    0  0.48012144665E+01 -0.10647462979E+02 -0.38945421508E+02  0.50528856076E+02  0.29999988527E+02 0.  0.
        -12    1    1    2    0    0 -0.48012144665E+01  0.10647462979E+02  0.38945421508E+02  0.40659143924E+02  0.00000000000E+00 0.  1.
         11    1    3    3    0    0  0.33155029363E+01  0.48399070504E-01 -0.20106745353E+02  0.20378324542E+02  0.51100000000E-03 0. -1.
        -11    1    3    3    0    0 -0.94316282566E+01 -0.45883012050E+01 -0.54234164580E+01  0.11807690962E+02  0.51100000000E-03 0.  1.
         12    1    3    3    0    0  0.10917339787E+02 -0.61075608447E+01 -0.13415259697E+02  0.18342840571E+02  0.00000000000E+00 0. -1.
</event>
<event>
 7    1  0.6857839E-013  0.5052887E+02  0.7816164E-02  0.1300439E+00
        -11   -1    0    0    0    0  0.00000000000E+00  0.00000000000E+00  0.45593999997E+02  0.45594000000E+02  0.51100000000E-03 0.  1.
         11   -1    0    0    0    0 -0.00000000000E+00 -0.00000000000E+00 -0.45593999997E+02  0.45594000000E+02  0.51100000000E-03 0. -1.
    9900012    2    1    2    0    0 -0.33525859357E+02  0.85831209893E+01 -0.21342727650E+02  0.50528865293E+02  0.30000016545E+02 0.  0.
        -12    1    1    2    0    0  0.33525859357E+02 -0.85831209893E+01  0.21342727650E+02  0.40659134707E+02  0.00000000000E+00 0.  1.
         11    1    3    3    0    0 -0.16756985494E+02 -0.94754371146E+01 -0.12101361192E+02  0.22738148876E+02  0.51100000000E-03 0. -1.
        -11    1    3    3    0    0 -0.65447874724E+01  0.45704811165E+01  0.94220402012E+00  0.80381147896E+01  0.51100000000E-03 0.  1.
        -12    1    3    3    0    0 -0.10224086391E+02  0.13488076987E+02 -0.10183570479E+02  0.19752601627E+02  0.00000000000E+00 0.  1.
</event>
<event>
 7    1  0.6857839E-013  0.5052887E+02  0.7816164E-02  0.1300439E+00
        -11   -1    0    0    0    0  0.00000000000E+00  0.00000000000E+00  0.45593999997E+02  0.45594000000E+02  0.51100000000E-03 0.  1.
         11   -1    0    0    0    0 -0.00000000000E+00 -0.00000000000E+00 -0.45593999997E+02  0.45594000000E+02  0.51100000000E-03 0. -1.
    9900012    2    1    2    0    0  0.25713887398E+02  0.17020236285E+02 -0.26500422316E+02  0.50528870259E+02  0.30000031641E+02 0.  0.
        -12    1    1    2    0    0 -0.25713887398E+02 -0.17020236285E+02  0.26500422316E+02  0.40659129741E+02  0.00000000000E+00 0.  1.
         11    1    3    3    0    0  0.58339464091E+01  0.12280490306E+01  0.45172416633E+01  0.74798735037E+01  0.51100000000E-03 0. -1.
        -11    1    3    3    0    0  0.80019910989E-01 -0.26586590941E+01 -0.40290834311E+01  0.48278758187E+01  0.51100000000E-03 0.  1.
         12    1    3    3    0    0  0.19799921078E+02  0.18450846349E+02 -0.26988580548E+02  0.38221120937E+02  0.00000000000E+00 0. -1.
</event>
<event>
 7    1  0.6857839E-013  0.5052875E+02  0.7816164E-02  0.1300439E+00
        -11   -1    0    0    0    0  0.00000000000E+00  0.00000000000E+00  0.45593999997E+02  0.45594000000E+02  0.51100000000E-03 0.  1.
         11   -1    0    0    0    0 -0.00000000000E+00 -0.00000000000E+00 -0.45593999997E+02  0.45594000000E+02  0.51100000000E-03 0. -1.
    9900012    2    1    2    0    0 -0.16756485220E+02  0.26736337533E+02 -0.25642999039E+02  0.50528745932E+02  0.29999653734E+02 0.  0.
        -12    1    1    2    0    0  0.16756485220E+02 -0.26736337533E+02  0.25642999039E+02  0.40659254068E+02  0.00000000000E+00 0.  1.
         11    1    3    3    0    0 -0.87999163943E+01  0.10875676947E+02 -0.13894876154E+02  0.19717668756E+02  0.51100000000E-03 0. -1.
        -11    1    3    3    0    0 -0.11149370000E+02  0.11025402119E+02  0.20804964145E+01  0.15817598075E+02  0.51100000000E-03 0.  1.
         12    1    3    3    0    0  0.31928011750E+01  0.48352584673E+01 -0.13828619300E+02  0.14993479101E+02  0.00000000000E+00 0. -1.
</event>
<event>
 7    1  0.6857839E-013  0.5052873E+02  0.7816164E-02  0.1300439E+00
        -11   -1    0    0    0    0  0.00000000000E+00  0.00000000000E+00  0.45593999997E+02  0.45594000000E+02  0.51100000000E-03 0.  1.
         11   -1    0    0    0    0 -0.00000000000E+00 -0.00000000000E+00 -0.45593999997E+02  0.45594000000E+02  0.51100000000E-03 0. -1.
    9900012    2    1    2    0    0  0.18779730015E+02  0.11081662920E+02 -0.34317556777E+02  0.50528730262E+02  0.29999606101E+02 0.  0.
        -12    1    1    2    0    0 -0.18779730015E+02 -0.11081662920E+02  0.34317556777E+02  0.40659269738E+02  0.00000000000E+00 0.  1.
         11    1    3    3    0    0  0.41315081724E+01  0.93530445870E+01 -0.79182773521E+00  0.10255525060E+02  0.51100000000E-03 0. -1.
        -11    1    3    3    0    0  0.40381428588E+01  0.38403495401E+01 -0.58710369215E+00  0.56035322204E+01  0.51100000000E-03 0.  1.
        -12    1    3    3    0    0  0.10610078983E+02 -0.21117312072E+01 -0.32938625350E+02  0.34669672982E+02  0.00000000000E+00 0.  1.
</event>
<event>
 7    1  0.6857839E-013  0.5052886E+02  0.7816164E-02  0.1300439E+00
        -11   -1    0    0    0    0  0.00000000000E+00  0.00000000000E+00  0.45593999997E+02  0.45594000000E+02  0.51100000000E-03 0.  1.
         11   -1    0    0    0    0 -0.00000000000E+00 -0.00000000000E+00 -0.45593999997E+02  0.45594000000E+02  0.51100000000E-03 0. -1.
    9900012    2    1    2    0    0  0.23566856568E+02  0.10848240961E+02 -0.31306306630E+02  0.50528857175E+02  0.29999991870E+02 0.  0.
        -12    1    1    2    0    0 -0.23566856568E+02 -0.10848240961E+02  0.31306306630E+02  0.40659142825E+02  0.00000000000E+00 0.  1.
         11    1    3    3    0    0  0.43279193219E+01 -0.37269290750E+01 -0.79519133520E+01  0.97904960143E+01  0.51100000000E-03 0. -1.
        -11    1    3    3    0    0  0.80217189150E+00 -0.17699490380E+01  0.36793816820E+01  0.41610154006E+01  0.51100000000E-03 0.  1.
         12    1    3    3    0    0  0.18436765354E+02  0.16345119074E+02 -0.27033774960E+02  0.36577345760E+02  0.00000000000E+00 0. -1.
</event>
<event>
 7    1  0.6857839E-013  0.5052883E+02  0.7816164E-02  0.1300439E+00
        -11   -1    0    0    0    0  0.00000000000E+00  0.00000000000E+00  0.45593999997E+02  0.45594000000E+02  0.51100000000E-03 0. -1.
         11   -1    0    0    0    0 -0.00000000000E+00 -0.00000000000E+00 -0.45593999997E+02  0.45594000000E+02  0.51100000000E-03 0.  1.
    9900012    2    1    2    0    0  0.11892849360E+02 -0.27534930119E+02  0.27450969405E+02  0.50528831737E+02  0.29999914548E+02 0.  0.
        -12    1    1    2    0    0 -0.11892849360E+02  0.27534930119E+02 -0.27450969405E+02  0.40659168263E+02  0.00000000000E+00 0.  1.
         11    1    3    3    0    0  0.86255931869E+01 -0.10994789205E+02 -0.18537871110E+01  0.14096906554E+02  0.51100000000E-03 0. -1.
        -11    1    3    3    0    0 -0.41063481247E+01 -0.93029461262E+01  0.87032623305E+01  0.13384830107E+02  0.51100000000E-03 0.  1.
         12    1    3    3    0    0  0.73736042976E+01 -0.72371947879E+01  0.20601494186E+02  0.23047095075E+02  0.00000000000E+00 0. -1.
</event>
<event>
 7    1  0.6857839E-013  0.5052886E+02  0.7816164E-02  0.1300439E+00
        -11   -1    0    0    0    0  0.00000000000E+00  0.00000000000E+00  0.45593999997E+02  0.45594000000E+02  0.51100000000E-03 0.  1.
         11   -1    0    0    0    0 -0.00000000000E+00 -0.00000000000E+00 -0.45593999997E+02  0.45594000000E+02  0.51100000000E-03 0. -1.
    9900012    2    1    2    0    0  0.24499143029E+02 -0.27067327659E+02 -0.17897418910E+02  0.50528857862E+02  0.29999993957E+02 0.  0.
        -12    1    1    2    0    0 -0.24499143029E+02  0.27067327659E+02  0.17897418910E+02  0.40659142138E+02  0.00000000000E+00 0.  1.
         11    1    3    3    0    0  0.11378864434E+02 -0.21293994791E+02 -0.76620274320E+01  0.25330207946E+02  0.51100000000E-03 0. -1.
        -11    1    3    3    0    0 -0.34641595429E+01 -0.53855267351E+01 -0.34695354510E+01  0.72829922463E+01  0.51100000000E-03 0.  1.
         12    1    3    3    0    0  0.16584438138E+02 -0.38780613295E+00 -0.67658560273E+01  0.17915657669E+02  0.00000000000E+00 0. -1.
</event>
<event>
 7    1  0.6857839E-013  0.5052887E+02  0.7816164E-02  0.1300439E+00
        -11   -1    0    0    0    0  0.00000000000E+00  0.00000000000E+00  0.45593999997E+02  0.45594000000E+02  0.51100000000E-03 0.  1.
         11   -1    0    0    0    0 -0.00000000000E+00 -0.00000000000E+00 -0.45593999997E+02  0.45594000000E+02  0.51100000000E-03 0. -1.
    9900012    2    1    2    0    0 -0.11774691641E+01 -0.40534254555E+02  0.29585323506E+01  0.50528866467E+02  0.30000020113E+02 0.  0.
        -12    1    1    2    0    0  0.11774691641E+01  0.40534254555E+02 -0.29585323506E+01  0.40659133533E+02  0.00000000000E+00 0.  1.
         11    1    3    3    0    0  0.14745633607E+01 -0.21084107388E+02  0.70018478176E+01  0.22265214901E+02  0.51100000000E-03 0. -1.
        -11    1    3    3    0    0 -0.38524744332E+01 -0.97217717775E+01  0.76857917374E+01  0.12977896619E+02  0.51100000000E-03 0.  1.
         12    1    3    3    0    0  0.12004419083E+01 -0.97283753898E+01 -0.11729107204E+02  0.15285754947E+02  0.00000000000E+00 0. -1.
</event>
<event>
 7    1  0.6857839E-013  0.5052886E+02  0.7816164E-02  0.1300439E+00
        -11   -1    0    0    0    0  0.00000000000E+00  0.00000000000E+00  0.45593999997E+02  0.45594000000E+02  0.51100000000E-03 0.  1.
         11   -1    0    0    0    0 -0.00000000000E+00 -0.00000000000E+00 -0.45593999997E+02  0.45594000000E+02  0.51100000000E-03 0. -1.
    9900012    2    1    2    0    0  0.33660934966E+02 -0.21774622435E+02 -0.67803498309E+01  0.50528857501E+02  0.29999992859E+02 0.  0.
        -12    1    1    2    0    0 -0.33660934966E+02  0.21774622435E+02  0.67803498309E+01  0.40659142499E+02  0.00000000000E+00 0.  1.
         11    1    3    3    0    0  0.30598677205E+02 -0.20925223587E+02 -0.46290547893E+00  0.37072338888E+02  0.51100000000E-03 0. -1.
        -11    1    3    3    0    0  0.18864432686E+01 -0.64959353468E+00  0.32507997796E+01  0.38142285503E+01  0.51100000000E-03 0.  1.
         12    1    3    3    0    0  0.11758144918E+01 -0.19980531269E+00 -0.95682441316E+01  0.96422900622E+01  0.00000000000E+00 0. -1.
</event>
<event>
 7    1  0.6857839E-013  0.5052887E+02  0.7816164E-02  0.1300439E+00
        -11   -1    0    0    0    0  0.00000000000E+00  0.00000000000E+00  0.45593999997E+02  0.45594000000E+02  0.51100000000E-03 0.  1.
         11   -1    0    0    0    0 -0.00000000000E+00 -0.00000000000E+00 -0.45593999997E+02  0.45594000000E+02  0.51100000000E-03 0. -1.
    9900012    2    1    2    0    0 -0.12599808311E+02  0.37096206014E+02 -0.10875719596E+02  0.50528868838E+02  0.30000027320E+02 0.  0.
        -12    1    1    2    0    0  0.12599808311E+02 -0.37096206014E+02  0.10875719596E+02  0.40659131162E+02  0.00000000000E+00 0.  1.
         11    1    3    3    0    0 -0.10212304034E+02  0.77507687907E+01 -0.13990284440E+01  0.12896621704E+02  0.51100000000E-03 0. -1.
        -11    1    3    3    0    0 -0.53587971783E+01  0.19078372622E+02  0.42176484559E+01  0.20260542142E+02  0.51100000000E-03 0.  1.
         12    1    3    3    0    0  0.29712929019E+01  0.10267064601E+02 -0.13694339608E+02  0.17371704992E+02  0.00000000000E+00 0. -1.
</event>
<event>
 7    1  0.6857839E-013  0.5052886E+02  0.7816164E-02  0.1300439E+00
        -11   -1    0    0    0    0  0.00000000000E+00  0.00000000000E+00  0.45593999997E+02  0.45594000000E+02  0.51100000000E-03 0.  1.
         11   -1    0    0    0    0 -0.00000000000E+00 -0.00000000000E+00 -0.45593999997E+02  0.45594000000E+02  0.51100000000E-03 0. -1.
    9900012    2    1    2    0    0 -0.10306216485E+02 -0.30348303870E+02 -0.25018550666E+02  0.50528861748E+02  0.30000005768E+02 0.  0.
        -12    1    1    2    0    0  0.10306216485E+02  0.30348303870E+02  0.25018550666E+02  0.40659138252E+02  0.00000000000E+00 0.  1.
         11    1    3    3    0    0 -0.80548913091E+01  0.11473902871E+00 -0.88479418794E+01  0.11965806066E+02  0.51100000000E-03 0. -1.
        -11    1    3    3    0    0 -0.96079002952E+01 -0.16057592660E+02 -0.70705657717E+01  0.20003772911E+02  0.51100000000E-03 0.  1.
         12    1    3    3    0    0  0.73565751197E+01 -0.14405450239E+02 -0.91000430150E+01  0.18559282770E+02  0.00000000000E+00 0. -1.
</event>
<event>
 7    1  0.8162285E-013  0.5052888E+02  0.7816164E-02  0.1300439E+00
        -11   -1    0    0    0    0  0.00000000000E+00  0.00000000000E+00  0.45593999997E+02  0.45594000000E+02  0.51100000000E-03 0. -1.
         11   -1    0    0    0    0 -0.00000000000E+00 -0.00000000000E+00 -0.45593999997E+02  0.45594000000E+02  0.51100000000E-03 0.  1.
    9900012    2    1    2    0    0  0.20980907936E+02 -0.25366244743E+02  0.23864606032E+02  0.50528876901E+02  0.30000051827E+02 0.  0.
        -12    1    1    2    0    0 -0.20980907936E+02  0.25366244743E+02 -0.23864606032E+02  0.40659123099E+02  0.00000000000E+00 0.  1.
         11    1    3    3    0    0  0.14657856063E+02 -0.38520359922E+01  0.11326897230E+02  0.18920611163E+02  0.51100000000E-03 0. -1.
        -11    1    3    3    0    0  0.77621822715E+01 -0.67183183393E+01 -0.23907693246E+01  0.10540543304E+02  0.51100000000E-03 0.  1.
        -12    1    3    3    0    0 -0.14391303990E+01 -0.14795890411E+02  0.14928478127E+02  0.21067722434E+02  0.00000000000E+00 0.  1.
</event>
<event>
 7    1  0.6857839E-013  0.5052887E+02  0.7816164E-02  0.1300439E+00
        -11   -1    0    0    0    0  0.00000000000E+00  0.00000000000E+00  0.45593999997E+02  0.45594000000E+02  0.51100000000E-03 0. -1.
         11   -1    0    0    0    0 -0.00000000000E+00 -0.00000000000E+00 -0.45593999997E+02  0.45594000000E+02  0.51100000000E-03 0.  1.
    9900012    2    1    2    0    0 -0.33348711055E+02  0.72511395198E+01 -0.22100895545E+02  0.50528866497E+02  0.30000020203E+02 0.  0.
        -12    1    1    2    0    0  0.33348711055E+02 -0.72511395198E+01  0.22100895545E+02  0.40659133503E+02  0.00000000000E+00 0.  1.
         11    1    3    3    0    0  0.14166964378E+01  0.21058526798E+00  0.33677836986E+01  0.36596915517E+01  0.51100000000E-03 0. -1.
        -11    1    3    3    0    0 -0.82393097270E+01  0.70715761450E+01 -0.14618625774E+02  0.18209822452E+02  0.51100000000E-03 0.  1.
        -12    1    3    3    0    0 -0.26526097766E+02 -0.31021893174E-01 -0.10850053469E+02  0.28659352493E+02  0.00000000000E+00 0.  1.
</event>
<event>
 7    1  0.6857839E-013  0.5052887E+02  0.7816164E-02  0.1300439E+00
        -11   -1    0    0    0    0  0.00000000000E+00  0.00000000000E+00  0.45593999997E+02  0.45594000000E+02  0.51100000000E-03 0.  1.
         11   -1    0    0    0    0 -0.00000000000E+00 -0.00000000000E+00 -0.45593999997E+02  0.45594000000E+02  0.51100000000E-03 0. -1.
    9900012    2    1    2    0    0 -0.26054031478E+02 -0.92895019825E+01 -0.29800290342E+02  0.50528871778E+02  0.30000036257E+02 0.  0.
        -12    1    1    2    0    0  0.26054031478E+02  0.92895019825E+01  0.29800290342E+02  0.40659128222E+02  0.00000000000E+00 0.  1.
         11    1    3    3    0    0 -0.74450439891E+01 -0.10494626838E+02 -0.44701891983E+01  0.13621617533E+02  0.51100000000E-03 0. -1.
        -11    1    3    3    0    0  0.91091237340E-01 -0.57095917409E+01 -0.10867861445E+02  0.12276731980E+02  0.51100000000E-03 0.  1.
        -12    1    3    3    0    0 -0.18700078726E+02  0.69147165968E+01 -0.14462239698E+02  0.24630522265E+02  0.00000000000E+00 0.  1.
</event>
<event>
 7    1  0.6857839E-013  0.5052885E+02  0.7816164E-02  0.1300439E+00
        -11   -1    0    0    0    0  0.00000000000E+00  0.00000000000E+00  0.45593999997E+02  0.45594000000E+02  0.51100000000E-03 0.  1.
         11   -1    0    0    0    0 -0.00000000000E+00 -0.00000000000E+00 -0.45593999997E+02  0.45594000000E+02  0.51100000000E-03 0. -1.
    9900012    2    1    2    0    0  0.59988983768E+01 -0.38440859660E+02  0.11810161339E+02  0.50528851165E+02  0.29999973601E+02 0.  0.
        -12    1    1    2    0    0 -0.59988983768E+01  0.38440859660E+02 -0.11810161339E+02  0.40659148835E+02  0.00000000000E+00 0.  1.
         11    1    3    3    0    0 -0.50124242735E+01 -0.54543842632E+01  0.54836350439E+01  0.92165589210E+01  0.51100000000E-03 0. -1.
        -11    1    3    3    0    0  0.10638626130E+02 -0.67377696583E+01  0.81461994128E+01  0.14997948894E+02  0.51100000000E-03 0.  1.
         12    1    3    3    0    0  0.37269652004E+00 -0.26248705739E+02 -0.18196731182E+01  0.26314343349E+02  0.00000000000E+00 0. -1.
</event>
<event>
 7    1  0.6857839E-013  0.5052886E+02  0.7816164E-02  0.1300439E+00
        -11   -1    0    0    0    0  0.00000000000E+00  0.00000000000E+00  0.45593999997E+02  0.45594000000E+02  0.51100000000E-03 0.  1.
         11   -1    0    0    0    0 -0.00000000000E+00 -0.00000000000E+00 -0.45593999997E+02  0.45594000000E+02  0.51100000000E-03 0. -1.
    9900012    2    1    2    0    0  0.81147316901E+01  0.23847809946E+02 -0.31915487973E+02  0.50528864715E+02  0.30000014787E+02 0.  0.
        -12    1    1    2    0    0 -0.81147316901E+01 -0.23847809946E+02  0.31915487973E+02  0.40659135285E+02  0.00000000000E+00 0.  1.
         11    1    3    3    0    0  0.44332106188E+01  0.16631302608E+02 -0.19341913838E+02  0.25891373351E+02  0.51100000000E-03 0. -1.
        -11    1    3    3    0    0  0.81512832349E+01  0.14081466315E+01 -0.14819609839E+02  0.16971951312E+02  0.51100000000E-03 0.  1.
        -12    1    3    3    0    0 -0.44697621637E+01  0.58083607069E+01  0.22460357038E+01  0.76655400517E+01  0.00000000000E+00 0.  1.
</event>
<event>
 7    1  0.6857839E-013  0.5052886E+02  0.7816164E-02  0.1300439E+00
        -11   -1    0    0    0    0  0.00000000000E+00  0.00000000000E+00  0.45593999997E+02  0.45594000000E+02  0.51100000000E-03 0.  1.
         11   -1    0    0    0    0 -0.00000000000E+00 -0.00000000000E+00 -0.45593999997E+02  0.45594000000E+02  0.51100000000E-03 0. -1.
    9900012    2    1    2    0    0 -0.39241016752E+01  0.40379396067E+02  0.26965957793E+01  0.50528857984E+02  0.29999994327E+02 0.  0.
        -12    1    1    2    0    0  0.39241016752E+01 -0.40379396067E+02 -0.26965957793E+01  0.40659142016E+02  0.00000000000E+00 0.  1.
         11    1    3    3    0    0 -0.25865303742E+01  0.42174489539E+01 -0.31504769878E+01  0.58653661921E+01  0.51100000000E-03 0. -1.
        -11    1    3    3    0    0 -0.81342669960E+01  0.85368292827E+01  0.10557365463E+02  0.15827246114E+02  0.51100000000E-03 0.  1.
        -12    1    3    3    0    0  0.67966956950E+01  0.27625117831E+02 -0.47102926957E+01  0.28836245678E+02  0.00000000000E+00 0.  1.
</event>
<event>
 7    1  0.6857839E-013  0.5052886E+02  0.7816164E-02  0.1300439E+00
        -11   -1    0    0    0    0  0.00000000000E+00  0.00000000000E+00  0.45593999997E+02  0.45594000000E+02  0.51100000000E-03 0.  1.
         11   -1    0    0    0    0 -0.00000000000E+00 -0.00000000000E+00 -0.45593999997E+02  0.45594000000E+02  0.51100000000E-03 0. -1.
    9900012    2    1    2    0    0 -0.45847233457E+01 -0.12227835113E+02 -0.38504879588E+02  0.50528863367E+02  0.30000010689E+02 0.  0.
        -12    1    1    2    0    0  0.45847233457E+01  0.12227835113E+02  0.38504879588E+02  0.40659136633E+02  0.00000000000E+00 0.  1.
         11    1    3    3    0    0  0.13700623606E+01  0.41600546640E+00 -0.14356209299E+02  0.14427434877E+02  0.51100000000E-03 0. -1.
        -11    1    3    3    0    0  0.71030753554E+01 -0.16769186551E+01 -0.10246903848E+01  0.73699203744E+01  0.51100000000E-03 0.  1.
         12    1    3    3    0    0 -0.13057861062E+02 -0.10966921925E+02 -0.23123979904E+02  0.28731508116E+02  0.00000000000E+00 0. -1.
</event>
<event>
 7    1  0.6857839E-013  0.5052886E+02  0.7816164E-02  0.1300439E+00
        -11   -1    0    0    0    0  0.00000000000E+00  0.00000000000E+00  0.45593999997E+02  0.45594000000E+02  0.51100000000E-03 0.  1.
         11   -1    0    0    0    0 -0.00000000000E+00 -0.00000000000E+00 -0.45593999997E+02  0.45594000000E+02  0.51100000000E-03 0. -1.
    9900012    2    1    2    0    0 -0.21196638520E+01 -0.20176554282E+02 -0.35236050599E+02  0.50528861060E+02  0.30000003678E+02 0.  0.
        -12    1    1    2    0    0  0.21196638520E+01  0.20176554282E+02  0.35236050599E+02  0.40659138940E+02  0.00000000000E+00 0.  1.
         11    1    3    3    0    0 -0.59582375296E+01 -0.51598551101E+01 -0.20227300595E+02  0.21708716886E+02  0.51100000000E-03 0. -1.
        -11    1    3    3    0    0  0.52742217621E+00 -0.70620648306E+01 -0.18279992522E+02  0.19603802200E+02  0.51100000000E-03 0.  1.
        -12    1    3    3    0    0  0.33111515014E+01 -0.79546343415E+01  0.32712425184E+01  0.92163419742E+01  0.00000000000E+00 0.  1.
</event>
<event>
 7    1  0.6857839E-013  0.5052886E+02  0.7816164E-02  0.1300439E+00
        -11   -1    0    0    0    0  0.00000000000E+00  0.00000000000E+00  0.45593999997E+02  0.45594000000E+02  0.51100000000E-03 0. -1.
         11   -1    0    0    0    0 -0.00000000000E+00 -0.00000000000E+00 -0.45593999997E+02  0.45594000000E+02  0.51100000000E-03 0.  1.
    9900012    2    1    2    0    0  0.30844253368E+02  0.24371164442E+02  0.10384807909E+02  0.50528857641E+02  0.29999993285E+02 0.  0.
        -12    1    1    2    0    0 -0.30844253368E+02 -0.24371164442E+02 -0.10384807909E+02  0.40659142359E+02  0.00000000000E+00 0.  1.
         11    1    3    3    0    0 -0.13037029917E+01 -0.87289380398E+00 -0.46510440898E+01  0.49085432126E+01  0.51100000000E-03 0.  1.
        -11    1    3    3    0    0  0.91217085705E+01  0.15253929571E+02  0.40919119114E+01  0.18238192837E+02  0.51100000000E-03 0. -1.
        -12    1    3    3    0    0  0.23026247789E+02  0.99901286743E+01  0.10943940088E+02  0.27382121591E+02  0.00000000000E+00 0.  1.
</event>
<event>
 7    1  0.6857839E-013  0.5052887E+02  0.7816164E-02  0.1300439E+00
        -11   -1    0    0    0    0  0.00000000000E+00  0.00000000000E+00  0.45593999997E+02  0.45594000000E+02  0.51100000000E-03 0.  1.
         11   -1    0    0    0    0 -0.00000000000E+00 -0.00000000000E+00 -0.45593999997E+02  0.45594000000E+02  0.51100000000E-03 0. -1.
    9900012    2    1    2    0    0  0.98572497757E+01 -0.36954081542E+02 -0.13798373381E+02  0.50528872812E+02  0.30000039399E+02 0.  0.
        -12    1    1    2    0    0 -0.98572497757E+01  0.36954081542E+02  0.13798373381E+02  0.40659127188E+02  0.00000000000E+00 0.  1.
         11    1    3    3    0    0 -0.73106780580E+01 -0.92024861820E+01 -0.19962429130E+01  0.11921273071E+02  0.51100000000E-03 0. -1.
        -11    1    3    3    0    0 -0.30078728978E+01 -0.14157809144E+01  0.19253475316E+00  0.33299857145E+01  0.51100000000E-03 0.  1.
        -12    1    3    3    0    0  0.20175800731E+02 -0.26335814445E+02 -0.11994665222E+02  0.35277614027E+02  0.00000000000E+00 0.  1.
</event>
<event>
 7    1  0.6857839E-013  0.5052886E+02  0.7816164E-02  0.1300439E+00
        -11   -1    0    0    0    0  0.00000000000E+00  0.00000000000E+00  0.45593999997E+02  0.45594000000E+02  0.51100000000E-03 0.  1.
         11   -1    0    0    0    0 -0.00000000000E+00 -0.00000000000E+00 -0.45593999997E+02  0.45594000000E+02  0.51100000000E-03 0. -1.
    9900012    2    1    2    0    0  0.26477107036E+02  0.26173267127E+02 -0.16342855238E+02  0.50528855562E+02  0.29999986967E+02 0.  0.
        -12    1    1    2    0    0 -0.26477107036E+02 -0.26173267127E+02  0.16342855238E+02  0.40659144438E+02  0.00000000000E+00 0.  1.
         11    1    3    3    0    0  0.34475521380E+01 -0.19275425097E+01  0.23703243883E+01  0.46064600115E+01  0.51100000000E-03 0. -1.
        -11    1    3    3    0    0  0.25584160985E+01  0.11122628745E+02 -0.15330746364E+02  0.19112565173E+02  0.51100000000E-03 0.  1.
        -12    1    3    3    0    0  0.20471138799E+02  0.16978180892E+02 -0.33824332618E+01  0.26809830378E+02  0.00000000000E+00 0.  1.
</event>
<event>
 7    1  0.6857839E-013  0.5052886E+02  0.7816164E-02  0.1300439E+00
        -11   -1    0    0    0    0  0.00000000000E+00  0.00000000000E+00  0.45593999997E+02  0.45594000000E+02  0.51100000000E-03 0.  1.
         11   -1    0    0    0    0 -0.00000000000E+00 -0.00000000000E+00 -0.45593999997E+02  0.45594000000E+02  0.51100000000E-03 0. -1.
    9900012    2    1    2    0    0 -0.32889757742E+02  0.16360932336E+02 -0.17428397037E+02  0.50528864562E+02  0.30000014323E+02 0.  0.
        -12    1    1    2    0    0  0.32889757742E+02 -0.16360932336E+02  0.17428397037E+02  0.40659135438E+02  0.00000000000E+00 0.  1.
         11    1    3    3    0    0 -0.14301364242E+02  0.14366038952E+02 -0.11389199351E+01  0.20302936566E+02  0.51100000000E-03 0. -1.
        -11    1    3    3    0    0  0.11858278496E+01  0.18426346134E+01  0.22348897420E+01  0.31298917597E+01  0.51100000000E-03 0.  1.
         12    1    3    3    0    0 -0.19774221350E+02  0.15225877123E+00 -0.18524366844E+02  0.27096036236E+02  0.00000000000E+00 0. -1.
</event>
<event>
 7    1  0.6857839E-013  0.5052888E+02  0.7816164E-02  0.1300439E+00
        -11   -1    0    0    0    0  0.00000000000E+00  0.00000000000E+00  0.45593999997E+02  0.45594000000E+02  0.51100000000E-03 0. -1.
         11   -1    0    0    0    0 -0.00000000000E+00 -0.00000000000E+00 -0.45593999997E+02  0.45594000000E+02  0.51100000000E-03 0.  1.
    9900012    2    1    2    0    0  0.26404750233E+02 -0.71058949347E+01  0.30090850110E+02  0.50528882474E+02  0.30000068766E+02 0.  0.
        -12    1    1    2    0    0 -0.26404750233E+02  0.71058949347E+01 -0.30090850110E+02  0.40659117526E+02  0.00000000000E+00 0.  1.
         11    1    3    3    0    0  0.14286274371E+02 -0.13043651851E+02  0.11395079231E+02  0.22451777657E+02  0.51100000000E-03 0. -1.
        -11    1    3    3    0    0 -0.20472566846E+01 -0.61086438956E+00 -0.14586095598E+01  0.25868817801E+01  0.51100000000E-03 0.  1.
         12    1    3    3    0    0  0.14165732546E+02  0.65486213058E+01  0.20154380438E+02  0.25490223036E+02  0.00000000000E+00 0. -1.
</event>
<event>
 7    1  0.6857839E-013  0.5052886E+02  0.7816164E-02  0.1300439E+00
        -11   -1    0    0    0    0  0.00000000000E+00  0.00000000000E+00  0.45593999997E+02  0.45594000000E+02  0.51100000000E-03 0.  1.
         11   -1    0    0    0    0 -0.00000000000E+00 -0.00000000000E+00 -0.45593999997E+02  0.45594000000E+02  0.51100000000E-03 0. -1.
    9900012    2    1    2    0    0 -0.25338748254E+02  0.29186275401E+02 -0.12620413380E+02  0.50528859961E+02  0.30000000337E+02 0.  0.
        -12    1    1    2    0    0  0.25338748254E+02 -0.29186275401E+02  0.12620413380E+02  0.40659140039E+02  0.00000000000E+00 0.  1.
         11    1    3    3    0    0 -0.37737312702E+01  0.12418586772E+01 -0.49315094370E+01  0.63326966028E+01  0.51100000000E-03 0. -1.
        -11    1    3    3    0    0  0.47601745836E+01  0.64627726375E+00 -0.36994512921E+01  0.60632397686E+01  0.51100000000E-03 0.  1.
         12    1    3    3    0    0 -0.26325191567E+02  0.27298139460E+02 -0.39894526512E+01  0.38132923589E+02  0.00000000000E+00 0. -1.
</event>
<event>
 7    1  0.6857839E-013  0.5052886E+02  0.7816164E-02  0.1300439E+00
        -11   -1    0    0    0    0  0.00000000000E+00  0.00000000000E+00  0.45593999997E+02  0.45594000000E+02  0.51100000000E-03 0.  1.
         11   -1    0    0    0    0 -0.00000000000E+00 -0.00000000000E+00 -0.45593999997E+02  0.45594000000E+02  0.51100000000E-03 0. -1.
    9900012    2    1    2    0    0 -0.32157802812E+02 -0.20292020841E+02  0.14397053771E+02  0.50528861436E+02  0.30000004821E+02 0.  0.
        -12    1    1    2    0    0  0.32157802812E+02  0.20292020841E+02 -0.14397053771E+02  0.40659138564E+02  0.00000000000E+00 0.  1.
         11    1    3    3    0    0 -0.18857491898E+02 -0.51035881971E+01  0.60386159258E+01  0.20447897098E+02  0.51100000000E-03 0. -1.
        -11    1    3    3    0    0 -0.15839345560E+02 -0.30146924808E+01  0.24347847239E+01  0.16306483847E+02  0.51100000000E-03 0.  1.
        -12    1    3    3    0    0  0.25390346472E+01 -0.12173740163E+02  0.59236531213E+01  0.13774480491E+02  0.00000000000E+00 0.  1.
</event>
<event>
 7    1  0.6857839E-013  0.5052891E+02  0.7816164E-02  0.1300439E+00
        -11   -1    0    0    0    0  0.00000000000E+00  0.00000000000E+00  0.45593999997E+02  0.45594000000E+02  0.51100000000E-03 0. -1.
         11   -1    0    0    0    0 -0.00000000000E+00 -0.00000000000E+00 -0.45593999997E+02  0.45594000000E+02  0.51100000000E-03 0.  1.
    9900012    2    1    2    0    0  0.38368073478E+02 -0.10340454672E+02 -0.86097510190E+01  0.50528906579E+02  0.30000142036E+02 0.  0.
        -12    1    1    2    0    0 -0.38368073478E+02  0.10340454672E+02  0.86097510190E+01  0.40659093421E+02  0.00000000000E+00 0.  1.
         11    1    3    3    0    0  0.16367800173E+02  0.35784826049E+01 -0.40462327811E+01  0.17236079027E+02  0.51100000000E-03 0. -1.
        -11    1    3    3    0    0  0.41117534249E+01 -0.36232611995E+01 -0.10475999740E+02  0.11822906105E+02  0.51100000000E-03 0.  1.
         12    1    3    3    0    0  0.17888519880E+02 -0.10295676078E+02  0.59124815026E+01  0.21469921446E+02  0.00000000000E+00 0. -1.
</event>
<event>
 7    1  0.6857839E-013  0.5052877E+02  0.7816164E-02  0.1300439E+00
        -11   -1    0    0    0    0  0.00000000000E+00  0.00000000000E+00  0.45593999997E+02  0.45594000000E+02  0.51100000000E-03 0. -1.
         11   -1    0    0    0    0 -0.00000000000E+00 -0.00000000000E+00 -0.45593999997E+02  0.45594000000E+02  0.51100000000E-03 0.  1.
    9900012    2    1    2    0    0 -0.20606156867E+01 -0.22666919359E+02  0.33691808399E+02  0.50528765828E+02  0.29999714210E+02 0.  0.
        -12    1    1    2    0    0  0.20606156867E+01  0.22666919359E+02 -0.33691808399E+02  0.40659234172E+02  0.00000000000E+00 0.  1.
         11    1    3    3    0    0 -0.56650643550E+01 -0.89944667052E+01  0.24004945338E+02  0.26253205259E+02  0.51100000000E-03 0. -1.
        -11    1    3    3    0    0 -0.24172244729E+01  0.21044934286E+01 -0.19644264952E+01  0.37591007514E+01  0.51100000000E-03 0.  1.
         12    1    3    3    0    0  0.60216731411E+01 -0.15776946083E+02  0.11651289557E+02  0.20516459818E+02  0.00000000000E+00 0. -1.
</event>
<event>
 7    1  0.6857839E-013  0.5052886E+02  0.7816164E-02  0.1300439E+00
        -11   -1    0    0    0    0  0.00000000000E+00  0.00000000000E+00  0.45593999997E+02  0.45594000000E+02  0.51100000000E-03 0.  1.
         11   -1    0    0    0    0 -0.00000000000E+00 -0.00000000000E+00 -0.45593999997E+02  0.45594000000E+02  0.51100000000E-03 0. -1.
    9900012    2    1    2    0    0  0.20944170027E+02 -0.23788582186E+02 -0.25467835011E+02  0.50528861781E+02  0.30000005869E+02 0.  0.
        -12    1    1    2    0    0 -0.20944170027E+02  0.23788582186E+02  0.25467835011E+02  0.40659138219E+02  0.00000000000E+00 0.  1.
         11    1    3    3    0    0  0.59841055790E+01 -0.83455767178E+00  0.16150139111E+01  0.62541407310E+01  0.51100000000E-03 0. -1.
        -11    1    3    3    0    0  0.16106198534E+02 -0.14483650298E+02 -0.28303003885E+02  0.35640507662E+02  0.51100000000E-03 0.  1.
         12    1    3    3    0    0 -0.11461340860E+01 -0.84703742160E+01  0.12201549629E+01  0.86342133883E+01  0.00000000000E+00 0. -1.
</event>
<event>
 7    1  0.6857839E-013  0.5052886E+02  0.7816164E-02  0.1300439E+00
        -11   -1    0    0    0    0  0.00000000000E+00  0.00000000000E+00  0.45593999997E+02  0.45594000000E+02  0.51100000000E-03 0.  1.
         11   -1    0    0    0    0 -0.00000000000E+00 -0.00000000000E+00 -0.45593999997E+02  0.45594000000E+02  0.51100000000E-03 0. -1.
    9900012    2    1    2    0    0  0.25791802427E+02 -0.70498531329E+01 -0.30630836283E+02  0.50528860399E+02  0.30000001670E+02 0.  0.
        -12    1    1    2    0    0 -0.25791802427E+02  0.70498531329E+01  0.30630836283E+02  0.40659139601E+02  0.00000000000E+00 0.  1.
         11    1    3    3    0    0  0.10345481878E+02 -0.88729783229E+01 -0.19060066956E+02  0.23431706985E+02  0.51100000000E-03 0. -1.
        -11    1    3    3    0    0  0.47975739775E+01 -0.39716796879E+01  0.39707945360E+01  0.73863499186E+01  0.51100000000E-03 0.  1.
        -12    1    3    3    0    0  0.10648746572E+02  0.57948048778E+01 -0.15541563863E+02  0.19710803496E+02  0.00000000000E+00 0.  1.
</event>
<event>
 7    1  0.6857839E-013  0.5052886E+02  0.7816164E-02  0.1300439E+00
        -11   -1    0    0    0    0  0.00000000000E+00  0.00000000000E+00  0.45593999997E+02  0.45594000000E+02  0.51100000000E-03 0.  1.
         11   -1    0    0    0    0 -0.00000000000E+00 -0.00000000000E+00 -0.45593999997E+02  0.45594000000E+02  0.51100000000E-03 0. -1.
    9900012    2    1    2    0    0  0.18717443205E+02  0.73180596448E+01 -0.35344998614E+02  0.50528860756E+02  0.30000002753E+02 0.  0.
        -12    1    1    2    0    0 -0.18717443205E+02 -0.73180596448E+01  0.35344998614E+02  0.40659139244E+02  0.00000000000E+00 0.  1.
         11    1    3    3    0    0 -0.36413212063E+01 -0.57154258022E+01 -0.92186227407E+01  0.11441517282E+02  0.51100000000E-03 0. -1.
        -11    1    3    3    0    0 -0.14340075614E+01  0.95960397443E+00 -0.42415551676E+01  0.45790837484E+01  0.51100000000E-03 0.  1.
         12    1    3    3    0    0  0.23792771972E+02  0.12073881473E+02 -0.21884820705E+02  0.34508259725E+02  0.00000000000E+00 0. -1.
</event>
<event>
 7    1  0.6857839E-013  0.5052885E+02  0.7816164E-02  0.1300439E+00
        -11   -1    0    0    0    0  0.00000000000E+00  0.00000000000E+00  0.45593999997E+02  0.45594000000E+02  0.51100000000E-03 0.  1.
         11   -1    0    0    0    0 -0.00000000000E+00 -0.00000000000E+00 -0.45593999997E+02  0.45594000000E+02  0.51100000000E-03 0. -1.
    9900012    2    1    2    0    0  0.91329053589E+01  0.12842459944E+02 -0.37481026995E+02  0.50528854383E+02  0.29999983383E+02 0.  0.
        -12    1    1    2    0    0 -0.91329053589E+01 -0.12842459944E+02  0.37481026995E+02  0.40659145617E+02  0.00000000000E+00 0.  1.
         11    1    3    3    0    0  0.10517957053E+02  0.10802202312E+02 -0.78073864171E+01  0.16978524031E+02  0.51100000000E-03 0. -1.
        -11    1    3    3    0    0  0.59856575007E+01 -0.25354968645E+01 -0.16919113606E+02  0.18124934359E+02  0.51100000000E-03 0.  1.
        -12    1    3    3    0    0 -0.73707091948E+01  0.45757544970E+01 -0.12754526972E+02  0.15425395993E+02  0.00000000000E+00 0.  1.
</event>
<event>
 7    1  0.6857839E-013  0.5052883E+02  0.7816164E-02  0.1300439E+00
        -11   -1    0    0    0    0  0.00000000000E+00  0.00000000000E+00  0.45593999997E+02  0.45594000000E+02  0.51100000000E-03 0. -1.
         11   -1    0    0    0    0 -0.00000000000E+00 -0.00000000000E+00 -0.45593999997E+02  0.45594000000E+02  0.51100000000E-03 0.  1.
    9900012    2    1    2    0    0 -0.81202457878E+01 -0.37326079327E+02  0.13928160253E+02  0.50528828371E+02  0.29999904315E+02 0.  0.
        -12    1    1    2    0    0  0.81202457878E+01  0.37326079327E+02 -0.13928160253E+02  0.40659171629E+02  0.00000000000E+00 0.  1.
         11    1    3    3    0    0 -0.26378168654E+01 -0.84339290426E+01  0.80765757435E+01  0.11971646207E+02  0.51100000000E-03 0. -1.
        -11    1    3    3    0    0  0.35896507638E+01 -0.15217845738E+02  0.13308328441E+02  0.20532414073E+02  0.51100000000E-03 0.  1.
        -12    1    3    3    0    0 -0.90720796862E+01 -0.13674304546E+02 -0.74567439315E+01  0.18024768091E+02  0.00000000000E+00 0.  1.
</event>
<event>
 7    1  0.6857839E-013  0.5052886E+02  0.7816164E-02  0.1300439E+00
        -11   -1    0    0    0    0  0.00000000000E+00  0.00000000000E+00  0.45593999997E+02  0.45594000000E+02  0.51100000000E-03 0.  1.
         11   -1    0    0    0    0 -0.00000000000E+00 -0.00000000000E+00 -0.45593999997E+02  0.45594000000E+02  0.51100000000E-03 0. -1.
    9900012    2    1    2    0    0  0.33709163731E+00 -0.37472728042E+02 -0.15774881172E+02  0.50528857686E+02  0.29999993423E+02 0.  0.
        -12    1    1    2    0    0 -0.33709163731E+00  0.37472728042E+02  0.15774881172E+02  0.40659142314E+02  0.00000000000E+00 0.  1.
         11    1    3    3    0    0  0.77139202947E+01 -0.12779611424E+02  0.15431396204E+01  0.15006808942E+02  0.51100000000E-03 0. -1.
        -11    1    3    3    0    0 -0.50956849588E+01 -0.12082236061E+02  0.10169654051E+01  0.13152210929E+02  0.51100000000E-03 0.  1.
         12    1    3    3    0    0 -0.22811436986E+01 -0.12610880557E+02 -0.18334986198E+02  0.22369837815E+02  0.00000000000E+00 0. -1.
</event>
<event>
 7    1  0.6857839E-013  0.5052891E+02  0.7816164E-02  0.1300439E+00
        -11   -1    0    0    0    0  0.00000000000E+00  0.00000000000E+00  0.45593999997E+02  0.45594000000E+02  0.51100000000E-03 0.  1.
         11   -1    0    0    0    0 -0.00000000000E+00 -0.00000000000E+00 -0.45593999997E+02  0.45594000000E+02  0.51100000000E-03 0. -1.
    9900012    2    1    2    0    0 -0.31658627356E+02  0.18999436999E+02 -0.17026865102E+02  0.50528912115E+02  0.30000158866E+02 0.  0.
        -12    1    1    2    0    0  0.31658627356E+02 -0.18999436999E+02  0.17026865102E+02  0.40659087885E+02  0.00000000000E+00 0.  1.
         11    1    3    3    0    0 -0.29950839570E+01  0.93560602320E+01 -0.14195816359E+02  0.17263475703E+02  0.51100000000E-03 0.  1.
        -11    1    3    3    0    0 -0.89254246632E+01  0.93425430205E+01 -0.38987596640E+01  0.13496171408E+02  0.51100000000E-03 0. -1.
         12    1    3    3    0    0 -0.19738118736E+02  0.30083374704E+00  0.10677109211E+01  0.19769265004E+02  0.00000000000E+00 0. -1.
</event>
<event>
 7    1  0.6857839E-013  0.5052886E+02  0.7816164E-02  0.1300439E+00
        -11   -1    0    0    0    0  0.00000000000E+00  0.00000000000E+00  0.45593999997E+02  0.45594000000E+02  0.51100000000E-03 0. -1.
         11   -1    0    0    0    0 -0.00000000000E+00 -0.00000000000E+00 -0.45593999997E+02  0.45594000000E+02  0.51100000000E-03 0.  1.
    9900012    2    1    2    0    0  0.40351681932E+02 -0.49814587761E+01 -0.30391364469E+00  0.50528861670E+02  0.30000005531E+02 0.  0.
        -12    1    1    2    0    0 -0.40351681932E+02  0.49814587761E+01  0.30391364469E+00  0.40659138330E+02  0.00000000000E+00 0.  1.
         11    1    3    3    0    0  0.91891843663E+00  0.30088661490E+01 -0.50036232914E+01  0.59104934565E+01  0.51100000000E-03 0.  1.
        -11    1    3    3    0    0  0.28673963903E+02 -0.12293039433E+02 -0.19494780843E+01  0.31258846579E+02  0.51100000000E-03 0. -1.
         12    1    3    3    0    0  0.10758799593E+02  0.43027145075E+01  0.66491877311E+01  0.13359521634E+02  0.00000000000E+00 0. -1.
</event>
<event>
 7    1  0.6857839E-013  0.5052888E+02  0.7816164E-02  0.1300439E+00
        -11   -1    0    0    0    0  0.00000000000E+00  0.00000000000E+00  0.45593999997E+02  0.45594000000E+02  0.51100000000E-03 0.  1.
         11   -1    0    0    0    0 -0.00000000000E+00 -0.00000000000E+00 -0.45593999997E+02  0.45594000000E+02  0.51100000000E-03 0. -1.
    9900012    2    1    2    0    0 -0.21825337425E+02 -0.29261394465E+02 -0.17905006589E+02  0.50528882686E+02  0.30000069412E+02 0.  0.
        -12    1    1    2    0    0  0.21825337425E+02  0.29261394465E+02  0.17905006589E+02  0.40659117314E+02  0.00000000000E+00 0.  1.
         11    1    3    3    0    0 -0.10879206726E+02  0.13812552247E+01 -0.49548319648E+01  0.12033925587E+02  0.51100000000E-03 0. -1.
        -11    1    3    3    0    0 -0.11496467952E+02 -0.12349279881E+02 -0.15734540453E+01  0.16945478655E+02  0.51100000000E-03 0.  1.
         12    1    3    3    0    0  0.55033725235E+00 -0.18293369809E+02 -0.11376720579E+02  0.21549478443E+02  0.00000000000E+00 0. -1.
</event>
<event>
 7    1  0.6857839E-013  0.5052887E+02  0.7816164E-02  0.1300439E+00
        -11   -1    0    0    0    0  0.00000000000E+00  0.00000000000E+00  0.45593999997E+02  0.45594000000E+02  0.51100000000E-03 0.  1.
         11   -1    0    0    0    0 -0.00000000000E+00 -0.00000000000E+00 -0.45593999997E+02  0.45594000000E+02  0.51100000000E-03 0. -1.
    9900012    2    1    2    0    0 -0.15018769452E+02 -0.32381430843E+02 -0.19469069306E+02  0.50528866230E+02  0.30000019392E+02 0.  0.
        -12    1    1    2    0    0  0.15018769452E+02  0.32381430843E+02  0.19469069306E+02  0.40659133770E+02  0.00000000000E+00 0.  1.
         11    1    3    3    0    0 -0.10492498943E+01  0.94220639943E+00 -0.85565665163E+00  0.16494928937E+01  0.51100000000E-03 0. -1.
        -11    1    3    3    0    0 -0.12674104638E+01  0.29962869555E+01  0.32716378897E+01  0.46138573391E+01  0.51100000000E-03 0.  1.
         12    1    3    3    0    0 -0.12702109094E+02 -0.36319924198E+02 -0.21885050544E+02  0.44265515997E+02  0.00000000000E+00 0. -1.
</event>
<event>
 7    1  0.6857839E-013  0.5052886E+02  0.7816164E-02  0.1300439E+00
        -11   -1    0    0    0    0  0.00000000000E+00  0.00000000000E+00  0.45593999997E+02  0.45594000000E+02  0.51100000000E-03 0. -1.
         11   -1    0    0    0    0 -0.00000000000E+00 -0.00000000000E+00 -0.45593999997E+02  0.45594000000E+02  0.51100000000E-03 0.  1.
    9900012    2    1    2    0    0 -0.31615005620E+02 -0.23242183518E+02  0.10651655741E+02  0.50528862711E+02  0.30000008697E+02 0.  0.
        -12    1    1    2    0    0  0.31615005620E+02  0.23242183518E+02 -0.10651655741E+02  0.40659137289E+02  0.00000000000E+00 0.  1.
         11    1    3    3    0    0 -0.24709886935E+01  0.13317934942E+01  0.50985645395E+01  0.58202078708E+01  0.51100000000E-03 0. -1.
        -11    1    3    3    0    0 -0.19779903244E+02 -0.44684645443E+01 -0.38115593032E+01  0.20633461472E+02  0.51100000000E-03 0.  1.
        -12    1    3    3    0    0 -0.93641136824E+01 -0.20105512468E+02  0.93646505048E+01  0.24075193368E+02  0.00000000000E+00 0.  1.
</event>
<event>
 7    1  0.6857839E-013  0.5052886E+02  0.7816164E-02  0.1300439E+00
        -11   -1    0    0    0    0  0.00000000000E+00  0.00000000000E+00  0.45593999997E+02  0.45594000000E+02  0.51100000000E-03 0. -1.
         11   -1    0    0    0    0 -0.00000000000E+00 -0.00000000000E+00 -0.45593999997E+02  0.45594000000E+02  0.51100000000E-03 0.  1.
    9900012    2    1    2    0    0 -0.39535550640E+02  0.94824035419E+01  0.43592997113E+00  0.50528858638E+02  0.29999996316E+02 0.  0.
        -12    1    1    2    0    0  0.39535550640E+02 -0.94824035419E+01 -0.43592997113E+00  0.40659141362E+02  0.00000000000E+00 0.  1.
         11    1    3    3    0    0 -0.34788863975E+01  0.62754214850E+01  0.57682526193E+01  0.92063186955E+01  0.51100000000E-03 0. -1.
        -11    1    3    3    0    0 -0.12740988465E+02 -0.74797377455E+01  0.12982210406E+01  0.14831205006E+02  0.51100000000E-03 0.  1.
        -12    1    3    3    0    0 -0.23315675778E+02  0.10686719802E+02 -0.66305436888E+01  0.26491334937E+02  0.00000000000E+00 0.  1.
</event>
<event>
 7    1  0.6857839E-013  0.5052886E+02  0.7816164E-02  0.1300439E+00
        -11   -1    0    0    0    0  0.00000000000E+00  0.00000000000E+00  0.45593999997E+02  0.45594000000E+02  0.51100000000E-03 0. -1.
         11   -1    0    0    0    0 -0.00000000000E+00 -0.00000000000E+00 -0.45593999997E+02  0.45594000000E+02  0.51100000000E-03 0.  1.
    9900012    2    1    2    0    0  0.58735208921E+01  0.39147588645E+02  0.92808473014E+01  0.50528855013E+02  0.29999985299E+02 0.  0.
        -12    1    1    2    0    0 -0.58735208921E+01 -0.39147588645E+02 -0.92808473014E+01  0.40659144987E+02  0.00000000000E+00 0.  1.
         11    1    3    3    0    0 -0.30501756608E+01 -0.18145698502E+01  0.52662995947E+01  0.63506020963E+01  0.51100000000E-03 0. -1.
        -11    1    3    3    0    0 -0.34821816531E+01  0.10201332346E+02  0.99609666760E-01  0.10779735296E+02  0.51100000000E-03 0.  1.
        -12    1    3    3    0    0  0.12405878206E+02  0.30760826150E+02  0.39149380399E+01  0.33398517622E+02  0.00000000000E+00 0.  1.
</event>
<event>
 7    1  0.6857839E-013  0.5052886E+02  0.7816164E-02  0.1300439E+00
        -11   -1    0    0    0    0  0.00000000000E+00  0.00000000000E+00  0.45593999997E+02  0.45594000000E+02  0.51100000000E-03 0.  1.
         11   -1    0    0    0    0 -0.00000000000E+00 -0.00000000000E+00 -0.45593999997E+02  0.45594000000E+02  0.51100000000E-03 0. -1.
    9900012    2    1    2    0    0  0.12575592243E+02 -0.61196869237E+01 -0.38178133318E+02  0.50528856478E+02  0.29999989751E+02 0.  0.
        -12    1    1    2    0    0 -0.12575592243E+02  0.61196869237E+01  0.38178133318E+02  0.40659143522E+02  0.00000000000E+00 0.  1.
         11    1    3    3    0    0 -0.92651970002E+00 -0.79979234320E+01 -0.40808265685E+01  0.90265366405E+01  0.51100000000E-03 0. -1.
        -11    1    3    3    0    0  0.68346802457E+00 -0.14403358825E+01 -0.25857599629E+02  0.25906700964E+02  0.51100000000E-03 0.  1.
         12    1    3    3    0    0  0.12818643919E+02  0.33185723909E+01 -0.82397071199E+01  0.15595618874E+02  0.00000000000E+00 0. -1.
</event>
<event>
 7    1  0.6857839E-013  0.5052886E+02  0.7816164E-02  0.1300439E+00
        -11   -1    0    0    0    0  0.00000000000E+00  0.00000000000E+00  0.45593999997E+02  0.45594000000E+02  0.51100000000E-03 0. -1.
         11   -1    0    0    0    0 -0.00000000000E+00 -0.00000000000E+00 -0.45593999997E+02  0.45594000000E+02  0.51100000000E-03 0.  1.
    9900012    2    1    2    0    0 -0.26891341772E+02 -0.10189670886E+02  0.28743551695E+02  0.50528863031E+02  0.30000009670E+02 0.  0.
        -12    1    1    2    0    0  0.26891341772E+02  0.10189670886E+02 -0.28743551695E+02  0.40659136969E+02  0.00000000000E+00 0.  1.
         11    1    3    3    0    0 -0.13625861588E+02 -0.84552387728E+01  0.19558502940E+02  0.25292097664E+02  0.51100000000E-03 0. -1.
        -11    1    3    3    0    0  0.24551309897E+01 -0.56275068171E+01  0.62802839622E+01  0.87828507935E+01  0.51100000000E-03 0.  1.
        -12    1    3    3    0    0 -0.15720611173E+02  0.38930747043E+01  0.29047647926E+01  0.16453914574E+02  0.00000000000E+00 0.  1.
</event>
<event>
 7    1  0.6857839E-013  0.5052885E+02  0.7816164E-02  0.1300439E+00
        -11   -1    0    0    0    0  0.00000000000E+00  0.00000000000E+00  0.45593999997E+02  0.45594000000E+02  0.51100000000E-03 0.  1.
         11   -1    0    0    0    0 -0.00000000000E+00 -0.00000000000E+00 -0.45593999997E+02  0.45594000000E+02  0.51100000000E-03 0. -1.
    9900012    2    1    2    0    0 -0.14874875431E+02 -0.11070789900E+02 -0.36184828299E+02  0.50528854569E+02  0.29999983949E+02 0.  0.
        -12    1    1    2    0    0  0.14874875431E+02  0.11070789900E+02  0.36184828299E+02  0.40659145431E+02  0.00000000000E+00 0.  1.
         11    1    3    3    0    0 -0.12985437868E+02 -0.19231165132E+02 -0.18174982613E+02  0.29475232012E+02  0.51100000000E-03 0. -1.
        -11    1    3    3    0    0  0.15094551483E+01 -0.41229347798E+00 -0.38469764458E+01  0.41530312775E+01  0.51100000000E-03 0.  1.
        -12    1    3    3    0    0 -0.33988927111E+01  0.85726687094E+01 -0.14162869241E+02  0.16900591280E+02  0.00000000000E+00 0.  1.
</event>
<event>
 7    1  0.6857839E-013  0.5052887E+02  0.7816164E-02  0.1300439E+00
        -11   -1    0    0    0    0  0.00000000000E+00  0.00000000000E+00  0.45593999997E+02  0.45594000000E+02  0.51100000000E-03 0. -1.
         11   -1    0    0    0    0 -0.00000000000E+00 -0.00000000000E+00 -0.45593999997E+02  0.45594000000E+02  0.51100000000E-03 0.  1.
    9900012    2    1    2    0    0  0.25953603545E+02 -0.30723333125E+02  0.59709602238E+01  0.50528866939E+02  0.30000021547E+02 0.  0.
        -12    1    1    2    0    0 -0.25953603545E+02  0.30723333125E+02 -0.59709602238E+01  0.40659133061E+02  0.00000000000E+00 0.  1.
         11    1    3    3    0    0  0.17857210484E+01 -0.84433485652E+01  0.79166495245E+01  0.11711202953E+02  0.51100000000E-03 0. -1.
        -11    1    3    3    0    0  0.20068606102E+02 -0.10327575387E+02  0.66570635176E+01  0.23531346310E+02  0.51100000000E-03 0.  1.
        -12    1    3    3    0    0  0.40992763950E+01 -0.11952409173E+02 -0.86027528183E+01  0.15286317675E+02  0.00000000000E+00 0.  1.
</event>
<event>
 7    1  0.6857839E-013  0.5052886E+02  0.7816164E-02  0.1300439E+00
        -11   -1    0    0    0    0  0.00000000000E+00  0.00000000000E+00  0.45593999997E+02  0.45594000000E+02  0.51100000000E-03 0.  1.
         11   -1    0    0    0    0 -0.00000000000E+00 -0.00000000000E+00 -0.45593999997E+02  0.45594000000E+02  0.51100000000E-03 0. -1.
    9900012    2    1    2    0    0 -0.23556244960E+02  0.16905970518E+02 -0.28503638681E+02  0.50528856700E+02  0.29999990427E+02 0.  0.
        -12    1    1    2    0    0  0.23556244960E+02 -0.16905970518E+02  0.28503638681E+02  0.40659143300E+02  0.00000000000E+00 0.  1.
         11    1    3    3    0    0 -0.12082496164E+02  0.83275238534E+01 -0.18827118273E+02  0.23870373894E+02  0.51100000000E-03 0. -1.
        -11    1    3    3    0    0 -0.13297722358E+02 -0.23451049046E+01 -0.72298827181E+01  0.15316662212E+02  0.51100000000E-03 0.  1.
        -12    1    3    3    0    0  0.18239735616E+01  0.10923551569E+02 -0.24466376898E+01  0.11341820595E+02  0.00000000000E+00 0.  1.
</event>
<event>
 7    1  0.6857839E-013  0.5052883E+02  0.7816164E-02  0.1300439E+00
        -11   -1    0    0    0    0  0.00000000000E+00  0.00000000000E+00  0.45593999997E+02  0.45594000000E+02  0.51100000000E-03 0. -1.
         11   -1    0    0    0    0 -0.00000000000E+00 -0.00000000000E+00 -0.45593999997E+02  0.45594000000E+02  0.51100000000E-03 0.  1.
    9900012    2    1    2    0    0 -0.21349059884E+02 -0.19472786765E+02  0.28604134744E+02  0.50528827519E+02  0.29999901728E+02 0.  0.
        -12    1    1    2    0    0  0.21349059884E+02  0.19472786765E+02 -0.28604134744E+02  0.40659172481E+02  0.00000000000E+00 0.  1.
         11    1    3    3    0    0 -0.59553793775E+01  0.60036129915E+01  0.26978869527E+01  0.88762890192E+01  0.51100000000E-03 0. -1.
        -11    1    3    3    0    0 -0.59390111867E+00 -0.13672112251E+02  0.10805501280E+02  0.17436692063E+02  0.51100000000E-03 0.  1.
        -12    1    3    3    0    0 -0.14799779388E+02 -0.11804287506E+02  0.15100746512E+02  0.24215846437E+02  0.00000000000E+00 0.  1.
</event>
<event>
 7    1  0.6857839E-013  0.5052885E+02  0.7816164E-02  0.1300439E+00
        -11   -1    0    0    0    0  0.00000000000E+00  0.00000000000E+00  0.45593999997E+02  0.45594000000E+02  0.51100000000E-03 0. -1.
         11   -1    0    0    0    0 -0.00000000000E+00 -0.00000000000E+00 -0.45593999997E+02  0.45594000000E+02  0.51100000000E-03 0.  1.
    9900012    2    1    2    0    0 -0.10351944976E+02  0.15076371810E+02  0.36313998550E+02  0.50528852905E+02  0.29999978891E+02 0.  0.
        -12    1    1    2    0    0  0.10351944976E+02 -0.15076371810E+02 -0.36313998550E+02  0.40659147095E+02  0.00000000000E+00 0.  1.
         11    1    3    3    0    0  0.38942860849E+00  0.10107710280E+02  0.29451231840E+01  0.10535236712E+02  0.51100000000E-03 0. -1.
        -11    1    3    3    0    0 -0.78882859081E+01 -0.25055476437E+00  0.21039300919E+01  0.81678855495E+01  0.51100000000E-03 0.  1.
        -12    1    3    3    0    0 -0.28530876763E+01  0.52192162950E+01  0.31264945274E+02  0.31825730644E+02  0.00000000000E+00 0.  1.
</event>
<event>
 7    1  0.6857839E-013  0.5052886E+02  0.7816164E-02  0.1300439E+00
        -11   -1    0    0    0    0  0.00000000000E+00  0.00000000000E+00  0.45593999997E+02  0.45594000000E+02  0.51100000000E-03 0. -1.
         11   -1    0    0    0    0 -0.00000000000E+00 -0.00000000000E+00 -0.45593999997E+02  0.45594000000E+02  0.51100000000E-03 0.  1.
    9900012    2    1    2    0    0 -0.65251357020E+01 -0.39826406224E+02 -0.49442690599E+01  0.50528858037E+02  0.29999994490E+02 0.  0.
        -12    1    1    2    0    0  0.65251357020E+01  0.39826406224E+02  0.49442690599E+01  0.40659141963E+02  0.00000000000E+00 0.  1.
         11    1    3    3    0    0  0.62210448884E+01 -0.29433266370E+02  0.21277129057E+01  0.30158675885E+02  0.51100000000E-03 0. -1.
        -11    1    3    3    0    0 -0.47878261155E+00 -0.47602861413E+01 -0.46192548614E+01  0.66503438010E+01  0.51100000000E-03 0.  1.
        -12    1    3    3    0    0 -0.12267397979E+02 -0.56328537126E+01 -0.24527271042E+01  0.13719838351E+02  0.00000000000E+00 0.  1.
</event>
<event>
 7    1  0.6857839E-013  0.5052886E+02  0.7816164E-02  0.1300439E+00
        -11   -1    0    0    0    0  0.00000000000E+00  0.00000000000E+00  0.45593999997E+02  0.45594000000E+02  0.51100000000E-03 0. -1.
         11   -1    0    0    0    0 -0.00000000000E+00 -0.00000000000E+00 -0.45593999997E+02  0.45594000000E+02  0.51100000000E-03 0.  1.
    9900012    2    1    2    0    0 -0.36081217400E+02 -0.15035448732E+02  0.11191369784E+02  0.50528859265E+02  0.29999998223E+02 0.  0.
        -12    1    1    2    0    0  0.36081217400E+02  0.15035448732E+02 -0.11191369784E+02  0.40659140735E+02  0.00000000000E+00 0.  1.
         11    1    3    3    0    0 -0.11487223793E+02 -0.87945787857E+01  0.72082312332E+01  0.16163524500E+02  0.51100000000E-03 0. -1.
        -11    1    3    3    0    0 -0.19568254692E+02  0.34595182676E+01  0.96133427558E+01  0.22074900170E+02  0.51100000000E-03 0.  1.
        -12    1    3    3    0    0 -0.50257389153E+01 -0.97003882143E+01 -0.56302042047E+01  0.12290434595E+02  0.00000000000E+00 0.  1.
</event>
<event>
 7    1  0.6857839E-013  0.5052887E+02  0.7816164E-02  0.1300439E+00
        -11   -1    0    0    0    0  0.00000000000E+00  0.00000000000E+00  0.45593999997E+02  0.45594000000E+02  0.51100000000E-03 0. -1.
         11   -1    0    0    0    0 -0.00000000000E+00 -0.00000000000E+00 -0.45593999997E+02  0.45594000000E+02  0.51100000000E-03 0.  1.
    9900012    2    1    2    0    0 -0.40166113513E+02 -0.17559957311E+00  0.63101161175E+01  0.50528867257E+02  0.30000022516E+02 0.  0.
        -12    1    1    2    0    0  0.40166113513E+02  0.17559957311E+00 -0.63101161175E+01  0.40659132743E+02  0.00000000000E+00 0.  1.
         11    1    3    3    0    0 -0.30999024013E+02 -0.12032873950E+02  0.50088206753E+01  0.33627634917E+02  0.51100000000E-03 0. -1.
        -11    1    3    3    0    0 -0.63278019097E+01  0.38107968338E+01  0.33733725416E+01  0.81205228946E+01  0.51100000000E-03 0.  1.
        -12    1    3    3    0    0 -0.28392875900E+01  0.80464775430E+01 -0.20720770994E+01  0.87807094460E+01  0.00000000000E+00 0.  1.
</event>
<event>
 7    1  0.6857839E-013  0.5052882E+02  0.7816164E-02  0.1300439E+00
        -11   -1    0    0    0    0  0.00000000000E+00  0.00000000000E+00  0.45593999997E+02  0.45594000000E+02  0.51100000000E-03 0. -1.
         11   -1    0    0    0    0 -0.00000000000E+00 -0.00000000000E+00 -0.45593999997E+02  0.45594000000E+02  0.51100000000E-03 0.  1.
    9900012    2    1    2    0    0 -0.14652899128E+02 -0.12855322868E+00  0.37926832127E+02  0.50528824234E+02  0.29999891741E+02 0.  0.
        -12    1    1    2    0    0  0.14652899128E+02  0.12855322868E+00 -0.37926832127E+02  0.40659175766E+02  0.00000000000E+00 0.  1.
         11    1    3    3    0    0 -0.50012608915E+01 -0.65159591399E+01  0.50797749107E+01  0.96578697145E+01  0.51100000000E-03 0. -1.
        -11    1    3    3    0    0 -0.13373590765E+02 -0.13462424239E+01  0.27889206886E+02  0.30959217684E+02  0.51100000000E-03 0.  1.
        -12    1    3    3    0    0  0.37219525286E+01  0.77336483350E+01  0.49578503301E+01  0.99117368352E+01  0.00000000000E+00 0.  1.
</event>
<event>
 7    1  0.6857839E-013  0.5052889E+02  0.7816164E-02  0.1300439E+00
        -11   -1    0    0    0    0  0.00000000000E+00  0.00000000000E+00  0.45593999997E+02  0.45594000000E+02  0.51100000000E-03 0. -1.
         11   -1    0    0    0    0 -0.00000000000E+00 -0.00000000000E+00 -0.45593999997E+02  0.45594000000E+02  0.51100000000E-03 0.  1.
    9900012    2    1    2    0    0  0.29103864181E+02 -0.13965750608E+02  0.24720155734E+02  0.50528890322E+02  0.30000092622E+02 0.  0.
        -12    1    1    2    0    0 -0.29103864181E+02  0.13965750608E+02 -0.24720155734E+02  0.40659109678E+02  0.00000000000E+00 0.  1.
         11    1    3    3    0    0  0.21074397550E+02 -0.77361350236E+01  0.12870868365E+02  0.25877350520E+02  0.51100000000E-03 0. -1.
        -11    1    3    3    0    0  0.13787436703E+02 -0.50340672129E+01  0.47376453858E+01  0.15423376012E+02  0.51100000000E-03 0.  1.
        -12    1    3    3    0    0 -0.57579700713E+01 -0.11955483713E+01  0.71116419830E+01  0.92281637905E+01  0.00000000000E+00 0.  1.
</event>
<event>
 7    1  0.6857839E-013  0.5052886E+02  0.7816164E-02  0.1300439E+00
        -11   -1    0    0    0    0  0.00000000000E+00  0.00000000000E+00  0.45593999997E+02  0.45594000000E+02  0.51100000000E-03 0.  1.
         11   -1    0    0    0    0 -0.00000000000E+00 -0.00000000000E+00 -0.45593999997E+02  0.45594000000E+02  0.51100000000E-03 0. -1.
    9900012    2    1    2    0    0 -0.17163871951E+02  0.26884442035E+02 -0.25214953051E+02  0.50528861037E+02  0.30000003608E+02 0.  0.
        -12    1    1    2    0    0  0.17163871951E+02 -0.26884442035E+02  0.25214953051E+02  0.40659138963E+02  0.00000000000E+00 0.  1.
         11    1    3    3    0    0 -0.98927508388E+01  0.14203824950E+02 -0.20047091333E+02  0.26485864787E+02  0.51100000000E-03 0. -1.
        -11    1    3    3    0    0 -0.47661483520E+01 -0.11890288607E+01 -0.82632228047E+01  0.96130542039E+01  0.51100000000E-03 0.  1.
        -12    1    3    3    0    0 -0.25049727603E+01  0.13869645946E+02  0.30953610868E+01  0.14429942046E+02  0.00000000000E+00 0.  1.
</event>
<event>
 7    1  0.6857839E-013  0.5052885E+02  0.7816164E-02  0.1300439E+00
        -11   -1    0    0    0    0  0.00000000000E+00  0.00000000000E+00  0.45593999997E+02  0.45594000000E+02  0.51100000000E-03 0.  1.
         11   -1    0    0    0    0 -0.00000000000E+00 -0.00000000000E+00 -0.45593999997E+02  0.45594000000E+02  0.51100000000E-03 0. -1.
    9900012    2    1    2    0    0 -0.39801869683E+02  0.82588697475E+01  0.87659663799E+00  0.50528853656E+02  0.29999981172E+02 0.  0.
        -12    1    1    2    0    0  0.39801869683E+02 -0.82588697475E+01 -0.87659663799E+00  0.40659146344E+02  0.00000000000E+00 0.  1.
         11    1    3    3    0    0 -0.24563228200E+02 -0.21646994453E+00  0.97071104041E+01  0.26412630151E+02  0.51100000000E-03 0. -1.
        -11    1    3    3    0    0 -0.13232392105E+02 -0.23865083003E+00 -0.34368819585E+01  0.13673525986E+02  0.51100000000E-03 0.  1.
        -12    1    3    3    0    0 -0.20062493782E+01  0.87139905220E+01 -0.53936318076E+01  0.10442697518E+02  0.00000000000E+00 0.  1.
</event>
<event>
 7    1  0.6857839E-013  0.5052886E+02  0.7816164E-02  0.1300439E+00
        -11   -1    0    0    0    0  0.00000000000E+00  0.00000000000E+00  0.45593999997E+02  0.45594000000E+02  0.51100000000E-03 0. -1.
         11   -1    0    0    0    0 -0.00000000000E+00 -0.00000000000E+00 -0.45593999997E+02  0.45594000000E+02  0.51100000000E-03 0.  1.
    9900012    2    1    2    0    0 -0.16999313377E+02  0.36755092612E+02  0.36403410799E+01  0.50528861158E+02  0.30000003975E+02 0.  0.
        -12    1    1    2    0    0  0.16999313377E+02 -0.36755092612E+02 -0.36403410799E+01  0.40659138842E+02  0.00000000000E+00 0.  1.
         11    1    3    3    0    0  0.17843386271E+01 -0.62054913806E+00  0.30479608160E+01  0.35859463138E+01  0.51100000000E-03 0. -1.
        -11    1    3    3    0    0 -0.10229054052E+02  0.44679919527E+01 -0.54289266180E+01  0.12412483368E+02  0.51100000000E-03 0.  1.
         12    1    3    3    0    0 -0.85545979529E+01  0.32907649797E+02  0.60213068819E+01  0.34530431476E+02  0.00000000000E+00 0. -1.
</event>
<event>
 7    1  0.6857839E-013  0.5052886E+02  0.7816164E-02  0.1300439E+00
        -11   -1    0    0    0    0  0.00000000000E+00  0.00000000000E+00  0.45593999997E+02  0.45594000000E+02  0.51100000000E-03 0.  1.
         11   -1    0    0    0    0 -0.00000000000E+00 -0.00000000000E+00 -0.45593999997E+02  0.45594000000E+02  0.51100000000E-03 0. -1.
    9900012    2    1    2    0    0 -0.16869748204E+02  0.65777676280E+01 -0.36404815927E+02  0.50528855222E+02  0.29999985932E+02 0.  0.
        -12    1    1    2    0    0  0.16869748204E+02 -0.65777676280E+01  0.36404815927E+02  0.40659144778E+02  0.00000000000E+00 0.  1.
         11    1    3    3    0    0 -0.12574241816E+02  0.37837420379E+01 -0.68402397293E+01  0.14805983279E+02  0.51100000000E-03 0. -1.
        -11    1    3    3    0    0 -0.88350393171E+01  0.54958882444E+01 -0.69814623677E+01  0.12530104723E+02  0.51100000000E-03 0.  1.
        -12    1    3    3    0    0  0.45395329289E+01 -0.27018626543E+01 -0.22583113830E+02  0.23192767219E+02  0.00000000000E+00 0.  1.
</event>
<event>
 7    1  0.6857839E-013  0.5052886E+02  0.7816164E-02  0.1300439E+00
        -11   -1    0    0    0    0  0.00000000000E+00  0.00000000000E+00  0.45593999997E+02  0.45594000000E+02  0.51100000000E-03 0.  1.
         11   -1    0    0    0    0 -0.00000000000E+00 -0.00000000000E+00 -0.45593999997E+02  0.45594000000E+02  0.51100000000E-03 0. -1.
    9900012    2    1    2    0    0  0.32000022106E+02 -0.17805402775E+02 -0.17667260669E+02  0.50528857334E+02  0.29999992352E+02 0.  0.
        -12    1    1    2    0    0 -0.32000022106E+02  0.17805402775E+02  0.17667260669E+02  0.40659142666E+02  0.00000000000E+00 0.  1.
         11    1    3    3    0    0  0.10677706673E+02  0.31816299605E+00 -0.12728685551E+02  0.16617282679E+02  0.51100000000E-03 0. -1.
        -11    1    3    3    0    0  0.22465227654E+02 -0.10155973946E+02 -0.69496579352E+01  0.25614995725E+02  0.51100000000E-03 0.  1.
        -12    1    3    3    0    0 -0.11429122211E+01 -0.79675918257E+01  0.20110828172E+01  0.82965789302E+01  0.00000000000E+00 0.  1.
</event>
<event>
 7    1  0.6857839E-013  0.5052885E+02  0.7816164E-02  0.1300439E+00
        -11   -1    0    0    0    0  0.00000000000E+00  0.00000000000E+00  0.45593999997E+02  0.45594000000E+02  0.51100000000E-03 0. -1.
         11   -1    0    0    0    0 -0.00000000000E+00 -0.00000000000E+00 -0.45593999997E+02  0.45594000000E+02  0.51100000000E-03 0.  1.
    9900012    2    1    2    0    0  0.21392299196E+02  0.32363870424E+02  0.12170277302E+02  0.50528853141E+02  0.29999979607E+02 0.  0.
        -12    1    1    2    0    0 -0.21392299196E+02 -0.32363870424E+02 -0.12170277302E+02  0.40659146859E+02  0.00000000000E+00 0.  1.
         11    1    3    3    0    0 -0.21907180281E+01  0.15867929932E+01  0.29916662792E+01  0.40332647903E+01  0.51100000000E-03 0. -1.
        -11    1    3    3    0    0  0.68724156384E+01  0.24658255027E+02  0.12346845975E+02  0.28420137992E+02  0.51100000000E-03 0.  1.
        -12    1    3    3    0    0  0.16710601586E+02  0.61188224036E+01 -0.31682349513E+01  0.18075450359E+02  0.00000000000E+00 0.  1.
</event>
<event>
 7    1  0.6857839E-013  0.5052887E+02  0.7816164E-02  0.1300439E+00
        -11   -1    0    0    0    0  0.00000000000E+00  0.00000000000E+00  0.45593999997E+02  0.45594000000E+02  0.51100000000E-03 0.  1.
         11   -1    0    0    0    0 -0.00000000000E+00 -0.00000000000E+00 -0.45593999997E+02  0.45594000000E+02  0.51100000000E-03 0. -1.
    9900012    2    1    2    0    0 -0.34080440805E+02 -0.17786482752E+01 -0.22102604686E+02  0.50528866105E+02  0.30000019014E+02 0.  0.
        -12    1    1    2    0    0  0.34080440805E+02  0.17786482752E+01  0.22102604686E+02  0.40659133895E+02  0.00000000000E+00 0.  1.
         11    1    3    3    0    0 -0.49947499605E+01  0.78247761895E+00  0.60908253279E+01  0.79156775975E+01  0.51100000000E-03 0. -1.
        -11    1    3    3    0    0 -0.46707178379E+01 -0.55305232208E+01 -0.49228299675E+01  0.87542302556E+01  0.51100000000E-03 0.  1.
         12    1    3    3    0    0 -0.24414973007E+02  0.29693973266E+01 -0.23270600046E+02  0.33858958252E+02  0.00000000000E+00 0. -1.
</event>
<event>
 7    1  0.6857839E-013  0.5052886E+02  0.7816164E-02  0.1300439E+00
        -11   -1    0    0    0    0  0.00000000000E+00  0.00000000000E+00  0.45593999997E+02  0.45594000000E+02  0.51100000000E-03 0.  1.
         11   -1    0    0    0    0 -0.00000000000E+00 -0.00000000000E+00 -0.45593999997E+02  0.45594000000E+02  0.51100000000E-03 0. -1.
    9900012    2    1    2    0    0 -0.13973254700E+02  0.18523029950E+01 -0.38137685185E+02  0.50528857060E+02  0.29999991521E+02 0.  0.
        -12    1    1    2    0    0  0.13973254700E+02 -0.18523029950E+01  0.38137685185E+02  0.40659142940E+02  0.00000000000E+00 0.  1.
         11    1    3    3    0    0 -0.78550501204E+01 -0.51391724434E+01 -0.18720621673E+02  0.20942172330E+02  0.51100000000E-03 0. -1.
        -11    1    3    3    0    0 -0.41990117778E+01 -0.33017386270E+01  0.20346278328E+01  0.57160203420E+01  0.51100000000E-03 0.  1.
        -12    1    3    3    0    0 -0.19191928018E+01  0.10293214065E+02 -0.21451691345E+02  0.23870664389E+02  0.00000000000E+00 0.  1.
</event>
<event>
 7    1  0.6857839E-013  0.5052885E+02  0.7816164E-02  0.1300439E+00
        -11   -1    0    0    0    0  0.00000000000E+00  0.00000000000E+00  0.45593999997E+02  0.45594000000E+02  0.51100000000E-03 0. -1.
         11   -1    0    0    0    0 -0.00000000000E+00 -0.00000000000E+00 -0.45593999997E+02  0.45594000000E+02  0.51100000000E-03 0.  1.
    9900012    2    1    2    0    0  0.16389465153E+01  0.29181837365E+02  0.28264835863E+02  0.50528846983E+02  0.29999960889E+02 0.  0.
        -12    1    1    2    0    0 -0.16389465153E+01 -0.29181837365E+02 -0.28264835863E+02  0.40659153017E+02  0.00000000000E+00 0.  1.
         11    1    3    3    0    0  0.45538848111E+01 -0.26638690265E+01  0.18394726259E+01  0.55872824222E+01  0.51100000000E-03 0. -1.
        -11    1    3    3    0    0  0.38033091480E+01  0.27403500718E+02  0.16706140533E+02  0.32318913098E+02  0.51100000000E-03 0.  1.
         12    1    3    3    0    0 -0.67182474438E+01  0.44422056734E+01  0.97192227048E+01  0.12622651463E+02  0.00000000000E+00 0. -1.
</event>
<event>
 7    1  0.6857839E-013  0.5052885E+02  0.7816164E-02  0.1300439E+00
        -11   -1    0    0    0    0  0.00000000000E+00  0.00000000000E+00  0.45593999997E+02  0.45594000000E+02  0.51100000000E-03 0. -1.
         11   -1    0    0    0    0 -0.00000000000E+00 -0.00000000000E+00 -0.45593999997E+02  0.45594000000E+02  0.51100000000E-03 0.  1.
    9900012    2    1    2    0    0 -0.11707524798E+02  0.28657065782E+02  0.26360441262E+02  0.50528850726E+02  0.29999972267E+02 0.  0.
        -12    1    1    2    0    0  0.11707524798E+02 -0.28657065782E+02 -0.26360441262E+02  0.40659149274E+02  0.00000000000E+00 0.  1.
         11    1    3    3    0    0  0.60137145174E+00  0.25568094609E+01 -0.34936937487E+00  0.26497134682E+01  0.51100000000E-03 0. -1.
        -11    1    3    3    0    0 -0.54227449146E+01 -0.43291060737E+01  0.10853948738E+02  0.12882372657E+02  0.51100000000E-03 0.  1.
         12    1    3    3    0    0 -0.68861513356E+01  0.30429362395E+02  0.15855861900E+02  0.34996764601E+02  0.00000000000E+00 0. -1.
</event>
<event>
 7    1  0.6857839E-013  0.5052882E+02  0.7816164E-02  0.1300439E+00
        -11   -1    0    0    0    0  0.00000000000E+00  0.00000000000E+00  0.45593999997E+02  0.45594000000E+02  0.51100000000E-03 0.  1.
         11   -1    0    0    0    0 -0.00000000000E+00 -0.00000000000E+00 -0.45593999997E+02  0.45594000000E+02  0.51100000000E-03 0. -1.
    9900012    2    1    2    0    0 -0.31293423931E+02  0.25855074102E+02 -0.23250650148E+01  0.50528816960E+02  0.29999869632E+02 0.  0.
        -12    1    1    2    0    0  0.31293423931E+02 -0.25855074102E+02  0.23250650148E+01  0.40659183040E+02  0.00000000000E+00 0.  1.
         11    1    3    3    0    0 -0.32952644420E+01 -0.30197545419E+01 -0.57901842140E+01  0.73146372931E+01  0.51100000000E-03 0. -1.
        -11    1    3    3    0    0 -0.11662183402E+02  0.14048699108E+02 -0.59852077063E+01  0.19214452370E+02  0.51100000000E-03 0.  1.
        -12    1    3    3    0    0 -0.16335976086E+02  0.14826129536E+02  0.94503269054E+01  0.23999727297E+02  0.00000000000E+00 0.  1.
</event>
<event>
 7    1  0.6857839E-013  0.5052886E+02  0.7816164E-02  0.1300439E+00
        -11   -1    0    0    0    0  0.00000000000E+00  0.00000000000E+00  0.45593999997E+02  0.45594000000E+02  0.51100000000E-03 0.  1.
         11   -1    0    0    0    0 -0.00000000000E+00 -0.00000000000E+00 -0.45593999997E+02  0.45594000000E+02  0.51100000000E-03 0. -1.
    9900012    2    1    2    0    0 -0.19106029346E+02  0.61931249763E+01 -0.35352097318E+02  0.50528856636E+02  0.29999990229E+02 0.  0.
        -12    1    1    2    0    0  0.19106029346E+02 -0.61931249763E+01  0.35352097318E+02  0.40659143364E+02  0.00000000000E+00 0.  1.
         11    1    3    3    0    0 -0.26189035590E+01  0.75205492769E+01 -0.14075292265E+02  0.16171925361E+02  0.51100000000E-03 0. -1.
        -11    1    3    3    0    0 -0.11141511291E+02  0.34082119823E+01  0.27326194945E+00  0.11654349193E+02  0.51100000000E-03 0.  1.
         12    1    3    3    0    0 -0.53456144959E+01 -0.47356362829E+01 -0.21550067003E+02  0.22702582082E+02  0.00000000000E+00 0. -1.
</event>
<event>
 7    1  0.6857839E-013  0.5052887E+02  0.7816164E-02  0.1300439E+00
        -11   -1    0    0    0    0  0.00000000000E+00  0.00000000000E+00  0.45593999997E+02  0.45594000000E+02  0.51100000000E-03 0.  1.
         11   -1    0    0    0    0 -0.00000000000E+00 -0.00000000000E+00 -0.45593999997E+02  0.45594000000E+02  0.51100000000E-03 0. -1.
    9900012    2    1    2    0    0  0.18056315045E+02 -0.41735244689E+01 -0.36190001797E+02  0.50528867575E+02  0.30000023480E+02 0.  0.
        -12    1    1    2    0    0 -0.18056315045E+02  0.41735244689E+01  0.36190001797E+02  0.40659132425E+02  0.00000000000E+00 0.  1.
         11    1    3    3    0    0  0.17439844741E+01  0.10379525540E+01 -0.14996262654E+02  0.15132968024E+02  0.51100000000E-03 0. -1.
        -11    1    3    3    0    0  0.14281338698E+02  0.67985865750E+01 -0.91822193642E+01  0.18289083278E+02  0.51100000000E-03 0.  1.
        -12    1    3    3    0    0  0.20309918725E+01 -0.12010063598E+02 -0.12011519779E+02  0.17106816273E+02  0.00000000000E+00 0.  1.
</event>
<event>
 7    1  0.6857839E-013  0.5052888E+02  0.7816164E-02  0.1300439E+00
        -11   -1    0    0    0    0  0.00000000000E+00  0.00000000000E+00  0.45593999997E+02  0.45594000000E+02  0.51100000000E-03 0.  1.
         11   -1    0    0    0    0 -0.00000000000E+00 -0.00000000000E+00 -0.45593999997E+02  0.45594000000E+02  0.51100000000E-03 0. -1.
    9900012    2    1    2    0    0 -0.16196364304E+02  0.36717661604E+02  0.65310806679E+01  0.50528881650E+02  0.30000066263E+02 0.  0.
        -12    1    1    2    0    0  0.16196364304E+02 -0.36717661604E+02 -0.65310806679E+01  0.40659118350E+02  0.00000000000E+00 0.  1.
         11    1    3    3    0    0 -0.69326179670E+01  0.17873421818E+02  0.83105272286E+01  0.20894622811E+02  0.51100000000E-03 0. -1.
        -11    1    3    3    0    0 -0.11609978291E+02  0.48569598484E+01  0.54510664002E+01  0.13714801495E+02  0.51100000000E-03 0.  1.
         12    1    3    3    0    0  0.23462319537E+01  0.13987279938E+02 -0.72305129609E+01  0.15919457344E+02  0.00000000000E+00 0. -1.
</event>
<event>
 7    1  0.6857839E-013  0.5052886E+02  0.7816164E-02  0.1300439E+00
        -11   -1    0    0    0    0  0.00000000000E+00  0.00000000000E+00  0.45593999997E+02  0.45594000000E+02  0.51100000000E-03 0. -1.
         11   -1    0    0    0    0 -0.00000000000E+00 -0.00000000000E+00 -0.45593999997E+02  0.45594000000E+02  0.51100000000E-03 0.  1.
    9900012    2    1    2    0    0 -0.17538346409E+02  0.31169739706E+02  0.19339587753E+02  0.50528856839E+02  0.29999990849E+02 0.  0.
        -12    1    1    2    0    0  0.17538346409E+02 -0.31169739706E+02 -0.19339587753E+02  0.40659143161E+02  0.00000000000E+00 0.  1.
         11    1    3    3    0    0 -0.93577510628E+01  0.18970334064E+02  0.14988650213E+02  0.25924905302E+02  0.51100000000E-03 0. -1.
        -11    1    3    3    0    0 -0.14344051440E+02  0.10435267913E+02  0.39982134595E+01  0.18183298360E+02  0.51100000000E-03 0.  1.
         12    1    3    3    0    0  0.61634560936E+01  0.17641377292E+01  0.35272408044E+00  0.64206531772E+01  0.00000000000E+00 0. -1.
</event>
<event>
 7    1  0.6857839E-013  0.5052888E+02  0.7816164E-02  0.1300439E+00
        -11   -1    0    0    0    0  0.00000000000E+00  0.00000000000E+00  0.45593999997E+02  0.45594000000E+02  0.51100000000E-03 0.  1.
         11   -1    0    0    0    0 -0.00000000000E+00 -0.00000000000E+00 -0.45593999997E+02  0.45594000000E+02  0.51100000000E-03 0. -1.
    9900012    2    1    2    0    0  0.20354455525E+02  0.27203305059E+02  0.22334740457E+02  0.50528876828E+02  0.30000051605E+02 0.  0.
        -12    1    1    2    0    0 -0.20354455525E+02 -0.27203305059E+02 -0.22334740457E+02  0.40659123172E+02  0.00000000000E+00 0.  1.
         11    1    3    3    0    0 -0.27614294330E+01 -0.39073078034E+01  0.38708677166E+01  0.61543613742E+01  0.51100000000E-03 0.  1.
        -11    1    3    3    0    0  0.73340353976E+01  0.16666704634E+02  0.42777829032E+01  0.18704719869E+02  0.51100000000E-03 0. -1.
        -12    1    3    3    0    0  0.15781849561E+02  0.14443908229E+02  0.14186089837E+02  0.25669795584E+02  0.00000000000E+00 0.  1.
</event>
<event>
 7    1  0.7539213E-013  0.5052886E+02  0.7816164E-02  0.1300439E+00
        -11   -1    0    0    0    0  0.00000000000E+00  0.00000000000E+00  0.45593999997E+02  0.45594000000E+02  0.51100000000E-03 0.  1.
         11   -1    0    0    0    0 -0.00000000000E+00 -0.00000000000E+00 -0.45593999997E+02  0.45594000000E+02  0.51100000000E-03 0. -1.
    9900012    2    1    2    0    0 -0.12326303074E+02  0.19613914304E+02 -0.33414398784E+02  0.50528862922E+02  0.30000009339E+02 0.  0.
        -12    1    1    2    0    0  0.12326303074E+02 -0.19613914304E+02  0.33414398784E+02  0.40659137078E+02  0.00000000000E+00 0.  1.
         11    1    3    3    0    0 -0.10320995461E+02  0.13934954989E+02 -0.26207446239E+02  0.31425088011E+02  0.51100000000E-03 0. -1.
        -11    1    3    3    0    0 -0.73347085208E+01  0.87499158355E+01 -0.35916021437E+01  0.11969067735E+02  0.51100000000E-03 0.  1.
        -12    1    3    3    0    0  0.53294009077E+01 -0.30709565201E+01 -0.36153504013E+01  0.71347071774E+01  0.00000000000E+00 0.  1.
</event>
<event>
 7    1  0.6857839E-013  0.5052886E+02  0.7816164E-02  0.1300439E+00
        -11   -1    0    0    0    0  0.00000000000E+00  0.00000000000E+00  0.45593999997E+02  0.45594000000E+02  0.51100000000E-03 0. -1.
         11   -1    0    0    0    0 -0.00000000000E+00 -0.00000000000E+00 -0.45593999997E+02  0.45594000000E+02  0.51100000000E-03 0.  1.
    9900012    2    1    2    0    0  0.47246714772E+01 -0.13132332113E+02  0.38188807212E+02  0.50528860024E+02  0.30000000529E+02 0.  0.
        -12    1    1    2    0    0 -0.47246714772E+01  0.13132332113E+02 -0.38188807212E+02  0.40659139976E+02  0.00000000000E+00 0.  1.
         11    1    3    3    0    0 -0.29791383934E+01 -0.39477450013E+01  0.24555638361E+02  0.25048739125E+02  0.51100000000E-03 0. -1.
        -11    1    3    3    0    0  0.11111555658E+02 -0.10260837214E+02  0.15320331839E+02  0.21528214450E+02  0.51100000000E-03 0.  1.
        -12    1    3    3    0    0 -0.34077457874E+01  0.10762501022E+01 -0.16871629884E+01  0.39519064492E+01  0.00000000000E+00 0.  1.
</event>
<event>
 7    1  0.6857839E-013  0.5052887E+02  0.7816164E-02  0.1300439E+00
        -11   -1    0    0    0    0  0.00000000000E+00  0.00000000000E+00  0.45593999997E+02  0.45594000000E+02  0.51100000000E-03 0.  1.
         11   -1    0    0    0    0 -0.00000000000E+00 -0.00000000000E+00 -0.45593999997E+02  0.45594000000E+02  0.51100000000E-03 0. -1.
    9900012    2    1    2    0    0  0.87174301559E+01  0.60677047669E+01 -0.39247349522E+02  0.50528867273E+02  0.30000022562E+02 0.  0.
        -12    1    1    2    0    0 -0.87174301559E+01 -0.60677047669E+01  0.39247349522E+02  0.40659132727E+02  0.00000000000E+00 0.  1.
         11    1    3    3    0    0  0.92393402111E+01 -0.11798577528E+01 -0.27886660214E+02  0.29401076341E+02  0.51100000000E-03 0. -1.
        -11    1    3    3    0    0 -0.34550022739E+00  0.92762616678E+01 -0.14600279339E+02  0.17301345554E+02  0.51100000000E-03 0.  1.
        -12    1    3    3    0    0 -0.17640982779E+00 -0.20286991481E+01  0.32395900312E+01  0.38264453781E+01  0.00000000000E+00 0.  1.
</event>
<event>
 7    1  0.6857839E-013  0.5052887E+02  0.7816164E-02  0.1300439E+00
        -11   -1    0    0    0    0  0.00000000000E+00  0.00000000000E+00  0.45593999997E+02  0.45594000000E+02  0.51100000000E-03 0.  1.
         11   -1    0    0    0    0 -0.00000000000E+00 -0.00000000000E+00 -0.45593999997E+02  0.45594000000E+02  0.51100000000E-03 0. -1.
    9900012    2    1    2    0    0 -0.40167578803E+02  0.59413221102E+01  0.21051116559E+01  0.50528865843E+02  0.30000018215E+02 0.  0.
        -12    1    1    2    0    0  0.40167578803E+02 -0.59413221102E+01 -0.21051116559E+01  0.40659134157E+02  0.00000000000E+00 0.  1.
         11    1    3    3    0    0 -0.15039526994E+01 -0.28628626446E+01  0.43481856360E+01  0.54189090074E+01  0.51100000000E-03 0. -1.
        -11    1    3    3    0    0 -0.25026741111E+02  0.10450126045E+01  0.80907430167E+01  0.26322802753E+02  0.51100000000E-03 0.  1.
         12    1    3    3    0    0 -0.13636884993E+02  0.77591721502E+01 -0.10333816997E+02  0.18787154082E+02  0.00000000000E+00 0. -1.
</event>
<event>
 7    1  0.6857839E-013  0.5052886E+02  0.7816164E-02  0.1300439E+00
        -11   -1    0    0    0    0  0.00000000000E+00  0.00000000000E+00  0.45593999997E+02  0.45594000000E+02  0.51100000000E-03 0.  1.
         11   -1    0    0    0    0 -0.00000000000E+00 -0.00000000000E+00 -0.45593999997E+02  0.45594000000E+02  0.51100000000E-03 0. -1.
    9900012    2    1    2    0    0 -0.18251164435E+02 -0.29084837675E+02 -0.21774593962E+02  0.50528859232E+02  0.29999998121E+02 0.  0.
        -12    1    1    2    0    0  0.18251164435E+02  0.29084837675E+02  0.21774593962E+02  0.40659140768E+02  0.00000000000E+00 0.  1.
         11    1    3    3    0    0 -0.14056824804E+01  0.70462775339E-01  0.10252526948E+01  0.17412787220E+01  0.51100000000E-03 0.  1.
        -11    1    3    3    0    0 -0.23040702826E+02 -0.22631407961E+02 -0.23226079079E+02  0.39780715965E+02  0.51100000000E-03 0. -1.
         12    1    3    3    0    0  0.61952208719E+01 -0.65238924891E+01  0.42623242165E+00  0.90068645453E+01  0.00000000000E+00 0. -1.
</event>
<event>
 7    1  0.6857839E-013  0.5052887E+02  0.7816164E-02  0.1300439E+00
        -11   -1    0    0    0    0  0.00000000000E+00  0.00000000000E+00  0.45593999997E+02  0.45594000000E+02  0.51100000000E-03 0.  1.
         11   -1    0    0    0    0 -0.00000000000E+00 -0.00000000000E+00 -0.45593999997E+02  0.45594000000E+02  0.51100000000E-03 0. -1.
    9900012    2    1    2    0    0  0.26190835060E+02  0.38310373433E+01 -0.30863061312E+02  0.50528865210E+02  0.30000016294E+02 0.  0.
        -12    1    1    2    0    0 -0.26190835060E+02 -0.38310373433E+01  0.30863061312E+02  0.40659134790E+02  0.00000000000E+00 0.  1.
         11    1    3    3    0    0  0.45292287248E+01  0.41050070823E+01 -0.21048996452E+01  0.64649515671E+01  0.51100000000E-03 0. -1.
        -11    1    3    3    0    0  0.24789505286E+02 -0.40016237111E+01 -0.14495529883E+02  0.28994015788E+02  0.51100000000E-03 0.  1.
         12    1    3    3    0    0 -0.31278989503E+01  0.37276539721E+01 -0.14262631784E+02  0.15069897856E+02  0.00000000000E+00 0. -1.
</event>
<event>
 7    1  0.6857839E-013  0.5052887E+02  0.7816164E-02  0.1300439E+00
        -11   -1    0    0    0    0  0.00000000000E+00  0.00000000000E+00  0.45593999997E+02  0.45594000000E+02  0.51100000000E-03 0.  1.
         11   -1    0    0    0    0 -0.00000000000E+00 -0.00000000000E+00 -0.45593999997E+02  0.45594000000E+02  0.51100000000E-03 0. -1.
    9900012    2    1    2    0    0 -0.29943105524E+02  0.84240852933E+01 -0.26184158708E+02  0.50528868815E+02  0.30000027251E+02 0.  0.
        -12    1    1    2    0    0  0.29943105524E+02 -0.84240852933E+01  0.26184158708E+02  0.40659131185E+02  0.00000000000E+00 0.  1.
         11    1    3    3    0    0  0.29663577778E+01 -0.39975505159E+01 -0.65437978893E+01  0.82219814930E+01  0.51100000000E-03 0. -1.
        -11    1    3    3    0    0 -0.13892703524E+02 -0.10095454833E+01 -0.97986207442E+01  0.17030542036E+02  0.51100000000E-03 0.  1.
         12    1    3    3    0    0 -0.19016759778E+02  0.13431181293E+02 -0.98417400745E+01  0.25276345287E+02  0.00000000000E+00 0. -1.
</event>
<event>
 7    1  0.6857839E-013  0.5052886E+02  0.7816164E-02  0.1300439E+00
        -11   -1    0    0    0    0  0.00000000000E+00  0.00000000000E+00  0.45593999997E+02  0.45594000000E+02  0.51100000000E-03 0. -1.
         11   -1    0    0    0    0 -0.00000000000E+00 -0.00000000000E+00 -0.45593999997E+02  0.45594000000E+02  0.51100000000E-03 0.  1.
    9900012    2    1    2    0    0 -0.19467853721E+02 -0.11387151150E+02  0.33830472153E+02  0.50528863438E+02  0.30000010907E+02 0.  0.
        -12    1    1    2    0    0  0.19467853721E+02  0.11387151150E+02 -0.33830472153E+02  0.40659136562E+02  0.00000000000E+00 0.  1.
         11    1    3    3    0    0 -0.15141065803E+02 -0.68162547908E+01  0.22163147077E+02  0.27693289650E+02  0.51100000000E-03 0. -1.
        -11    1    3    3    0    0 -0.50235872243E+01  0.51222208630E+01  0.10949917708E+02  0.13090999704E+02  0.51100000000E-03 0.  1.
        -12    1    3    3    0    0  0.69679930580E+00 -0.96931172221E+01  0.71740736815E+00  0.97445740844E+01  0.00000000000E+00 0.  1.
</event>
<event>
 7    1  0.6857839E-013  0.5052887E+02  0.7816164E-02  0.1300439E+00
        -11   -1    0    0    0    0  0.00000000000E+00  0.00000000000E+00  0.45593999997E+02  0.45594000000E+02  0.51100000000E-03 0.  1.
         11   -1    0    0    0    0 -0.00000000000E+00 -0.00000000000E+00 -0.45593999997E+02  0.45594000000E+02  0.51100000000E-03 0. -1.
    9900012    2    1    2    0    0  0.14995246183E+02  0.17933010225E+02 -0.33267314147E+02  0.50528874894E+02  0.30000045727E+02 0.  0.
        -12    1    1    2    0    0 -0.14995246183E+02 -0.17933010225E+02  0.33267314147E+02  0.40659125106E+02  0.00000000000E+00 0.  1.
         11    1    3    3    0    0 -0.38531274344E+01  0.16711146447E+01 -0.41828548708E+01  0.59275197437E+01  0.51100000000E-03 0. -1.
        -11    1    3    3    0    0  0.13871090507E+02  0.57476710734E+01 -0.29347671000E+02  0.32965567916E+02  0.51100000000E-03 0.  1.
         12    1    3    3    0    0  0.49772831102E+01  0.10514224507E+02  0.26321172330E+00  0.11635787234E+02  0.00000000000E+00 0. -1.
</event>
<event>
 7    1  0.6857839E-013  0.5052886E+02  0.7816164E-02  0.1300439E+00
        -11   -1    0    0    0    0  0.00000000000E+00  0.00000000000E+00  0.45593999997E+02  0.45594000000E+02  0.51100000000E-03 0.  1.
         11   -1    0    0    0    0 -0.00000000000E+00 -0.00000000000E+00 -0.45593999997E+02  0.45594000000E+02  0.51100000000E-03 0. -1.
    9900012    2    1    2    0    0  0.32645690934E+02  0.20143913585E+02 -0.13477666502E+02  0.50528857296E+02  0.29999992237E+02 0.  0.
        -12    1    1    2    0    0 -0.32645690934E+02 -0.20143913585E+02  0.13477666502E+02  0.40659142704E+02  0.00000000000E+00 0.  1.
         11    1    3    3    0    0  0.19330449098E+02  0.14944101861E+02 -0.31364216991E-01  0.24433448932E+02  0.51100000000E-03 0.  1.
        -11    1    3    3    0    0  0.15908611707E+02  0.61822390837E+00 -0.60819574686E+01  0.17042779531E+02  0.51100000000E-03 0. -1.
        -12    1    3    3    0    0 -0.25933698706E+01  0.45815878156E+01 -0.73643448167E+01  0.90526288324E+01  0.00000000000E+00 0.  1.
</event>
<event>
 7    1  0.6857839E-013  0.5052885E+02  0.7816164E-02  0.1300439E+00
        -11   -1    0    0    0    0  0.00000000000E+00  0.00000000000E+00  0.45593999997E+02  0.45594000000E+02  0.51100000000E-03 0.  1.
         11   -1    0    0    0    0 -0.00000000000E+00 -0.00000000000E+00 -0.45593999997E+02  0.45594000000E+02  0.51100000000E-03 0. -1.
    9900012    2    1    2    0    0 -0.27873985523E+01  0.35820446500E+02 -0.19033973055E+02  0.50528854554E+02  0.29999983902E+02 0.  0.
        -12    1    1    2    0    0  0.27873985523E+01 -0.35820446500E+02  0.19033973055E+02  0.40659145446E+02  0.00000000000E+00 0.  1.
         11    1    3    3    0    0  0.11862723582E+02  0.13757000271E+02 -0.21903577094E+01  0.18296910516E+02  0.51100000000E-03 0. -1.
        -11    1    3    3    0    0 -0.40901108027E+01  0.90429096216E+01 -0.26672208796E+01  0.10277027210E+02  0.51100000000E-03 0.  1.
        -12    1    3    3    0    0 -0.10560011332E+02  0.13020536607E+02 -0.14176394466E+02  0.21954916828E+02  0.00000000000E+00 0.  1.
</event>
<event>
 7    1  0.6857839E-013  0.5052886E+02  0.7816164E-02  0.1300439E+00
        -11   -1    0    0    0    0  0.00000000000E+00  0.00000000000E+00  0.45593999997E+02  0.45594000000E+02  0.51100000000E-03 0.  1.
         11   -1    0    0    0    0 -0.00000000000E+00 -0.00000000000E+00 -0.45593999997E+02  0.45594000000E+02  0.51100000000E-03 0. -1.
    9900012    2    1    2    0    0  0.19022493308E+02 -0.42967061553E+01 -0.35677004638E+02  0.50528860863E+02  0.30000003080E+02 0.  0.
        -12    1    1    2    0    0 -0.19022493308E+02  0.42967061553E+01  0.35677004638E+02  0.40659139137E+02  0.00000000000E+00 0.  1.
         11    1    3    3    0    0  0.86638168421E+01  0.37026869886E+01 -0.27260911374E+02  0.28843177745E+02  0.51100000000E-03 0. -1.
        -11    1    3    3    0    0  0.12754542798E+02 -0.54258023632E+01 -0.10684961807E+02  0.17501031465E+02  0.51100000000E-03 0.  1.
        -12    1    3    3    0    0 -0.23958663326E+01 -0.25735907807E+01  0.22688685433E+01  0.41846516530E+01  0.00000000000E+00 0.  1.
</event>
<event>
 7    1  0.6857839E-013  0.5052879E+02  0.7816164E-02  0.1300439E+00
        -11   -1    0    0    0    0  0.00000000000E+00  0.00000000000E+00  0.45593999997E+02  0.45594000000E+02  0.51100000000E-03 0.  1.
         11   -1    0    0    0    0 -0.00000000000E+00 -0.00000000000E+00 -0.45593999997E+02  0.45594000000E+02  0.51100000000E-03 0. -1.
    9900012    2    1    2    0    0  0.39269902032E+02 -0.72473285531E+01 -0.76499689041E+01  0.50528794388E+02  0.29999801022E+02 0.  0.
        -12    1    1    2    0    0 -0.39269902032E+02  0.72473285531E+01  0.76499689041E+01  0.40659205612E+02  0.00000000000E+00 0.  1.
         11    1    3    3    0    0  0.25512798962E+02 -0.89844921619E+00 -0.11867325618E+02  0.28152149819E+02  0.51100000000E-03 0. -1.
        -11    1    3    3    0    0  0.13573826939E+02 -0.74545381573E+01 -0.23948142348E+01  0.15670164402E+02  0.51100000000E-03 0.  1.
        -12    1    3    3    0    0  0.18327613065E+00  0.11056588204E+01  0.66121709489E+01  0.67064801665E+01  0.00000000000E+00 0.  1.
</event>
<event>
 7    1  0.6857839E-013  0.5052886E+02  0.7816164E-02  0.1300439E+00
        -11   -1    0    0    0    0  0.00000000000E+00  0.00000000000E+00  0.45593999997E+02  0.45594000000E+02  0.51100000000E-03 0.  1.
         11   -1    0    0    0    0 -0.00000000000E+00 -0.00000000000E+00 -0.45593999997E+02  0.45594000000E+02  0.51100000000E-03 0. -1.
    9900012    2    1    2    0    0 -0.12927020272E+02 -0.37248404054E+02 -0.99304641847E+01  0.50528861094E+02  0.30000003780E+02 0.  0.
        -12    1    1    2    0    0  0.12927020272E+02  0.37248404054E+02  0.99304641847E+01  0.40659138906E+02  0.00000000000E+00 0.  1.
         11    1    3    3    0    0 -0.65082396070E+01 -0.12881601693E+02 -0.12477783972E+01  0.14486193294E+02  0.51100000000E-03 0. -1.
        -11    1    3    3    0    0 -0.11451418570E+02 -0.13244862831E+02 -0.14298330486E+02  0.22605389482E+02  0.51100000000E-03 0.  1.
        -12    1    3    3    0    0  0.50326379052E+01 -0.11121939531E+02  0.56156446990E+01  0.13437278318E+02  0.00000000000E+00 0.  1.
</event>
<event>
 7    1  0.6857839E-013  0.5052886E+02  0.7816164E-02  0.1300439E+00
        -11   -1    0    0    0    0  0.00000000000E+00  0.00000000000E+00  0.45593999997E+02  0.45594000000E+02  0.51100000000E-03 0. -1.
         11   -1    0    0    0    0 -0.00000000000E+00 -0.00000000000E+00 -0.45593999997E+02  0.45594000000E+02  0.51100000000E-03 0.  1.
    9900012    2    1    2    0    0 -0.82144421956E+00  0.37264231281E+02  0.16244019893E+02  0.50528857291E+02  0.29999992221E+02 0.  0.
        -12    1    1    2    0    0  0.82144421956E+00 -0.37264231281E+02 -0.16244019893E+02  0.40659142709E+02  0.00000000000E+00 0.  1.
         11    1    3    3    0    0 -0.19812094554E+00  0.12440918766E+02 -0.14678624953E+01  0.12528780157E+02  0.51100000000E-03 0. -1.
        -11    1    3    3    0    0 -0.69933815962E+01  0.24709724768E+02  0.18400312686E+02  0.31591919717E+02  0.51100000000E-03 0.  1.
        -12    1    3    3    0    0  0.63700583222E+01  0.11358774748E+00 -0.68843029704E+00  0.64081574168E+01  0.00000000000E+00 0.  1.
</event>
<event>
 7    1  0.6857839E-013  0.5052886E+02  0.7816164E-02  0.1300439E+00
        -11   -1    0    0    0    0  0.00000000000E+00  0.00000000000E+00  0.45593999997E+02  0.45594000000E+02  0.51100000000E-03 0.  1.
         11   -1    0    0    0    0 -0.00000000000E+00 -0.00000000000E+00 -0.45593999997E+02  0.45594000000E+02  0.51100000000E-03 0. -1.
    9900012    2    1    2    0    0 -0.33600087052E+02 -0.13636553020E+02 -0.18391414135E+02  0.50528861518E+02  0.30000005071E+02 0.  0.
        -12    1    1    2    0    0  0.33600087052E+02  0.13636553020E+02  0.18391414135E+02  0.40659138482E+02  0.00000000000E+00 0.  1.
         11    1    3    3    0    0 -0.18953751901E+01  0.80305857291E+00 -0.42629393892E+01  0.47339204345E+01  0.51100000000E-03 0. -1.
        -11    1    3    3    0    0 -0.17029900041E+02  0.12203580906E+01 -0.17058016957E+02  0.24134678619E+02  0.51100000000E-03 0.  1.
         12    1    3    3    0    0 -0.14674811821E+02 -0.15659969684E+02  0.29295422112E+01  0.21660262465E+02  0.00000000000E+00 0. -1.
</event>
<event>
 7    1  0.6857839E-013  0.5052887E+02  0.7816164E-02  0.1300439E+00
        -11   -1    0    0    0    0  0.00000000000E+00  0.00000000000E+00  0.45593999997E+02  0.45594000000E+02  0.51100000000E-03 0. -1.
         11   -1    0    0    0    0 -0.00000000000E+00 -0.00000000000E+00 -0.45593999997E+02  0.45594000000E+02  0.51100000000E-03 0.  1.
    9900012    2    1    2    0    0  0.32114658373E+02  0.11011355970E+02  0.22373283863E+02  0.50528867280E+02  0.30000022583E+02 0.  0.
        -12    1    1    2    0    0 -0.32114658373E+02 -0.11011355970E+02 -0.22373283863E+02  0.40659132720E+02  0.00000000000E+00 0.  1.
         11    1    3    3    0    0  0.50352257324E+01  0.65439027268E+01  0.24020391796E+01  0.85991833074E+01  0.51100000000E-03 0. -1.
        -11    1    3    3    0    0  0.30729356665E+02  0.59914092027E+01  0.12969569523E+02  0.33888052160E+02  0.51100000000E-03 0.  1.
        -12    1    3    3    0    0 -0.36499240244E+01 -0.15239559595E+01  0.70016751606E+01  0.80416318123E+01  0.00000000000E+00 0.  1.
</event>
<event>
 7    1  0.6857839E-013  0.5052887E+02  0.7816164E-02  0.1300439E+00
        -11   -1    0    0    0    0  0.00000000000E+00  0.00000000000E+00  0.45593999997E+02  0.45594000000E+02  0.51100000000E-03 0. -1.
         11   -1    0    0    0    0 -0.00000000000E+00 -0.00000000000E+00 -0.45593999997E+02  0.45594000000E+02  0.51100000000E-03 0.  1.
    9900012    2    1    2    0    0 -0.38977459999E+02 -0.95634182830E+01  0.65164230825E+01  0.50528866622E+02  0.30000020585E+02 0.  0.
        -12    1    1    2    0    0  0.38977459999E+02  0.95634182830E+01 -0.65164230825E+01  0.40659133378E+02  0.00000000000E+00 0.  1.
         11    1    3    3    0    0 -0.52723304183E+00 -0.16347951621E+01 -0.59087830833E+01  0.61533931850E+01  0.51100000000E-03 0. -1.
        -11    1    3    3    0    0 -0.88386124060E+01 -0.14825226929E+01 -0.41024762384E+01  0.98564321306E+01  0.51100000000E-03 0.  1.
         12    1    3    3    0    0 -0.29611614551E+02 -0.64461004280E+01  0.16527682404E+02  0.34519041307E+02  0.00000000000E+00 0. -1.
</event>
<event>
 7    1  0.6857839E-013  0.5052885E+02  0.7816164E-02  0.1300439E+00
        -11   -1    0    0    0    0  0.00000000000E+00  0.00000000000E+00  0.45593999997E+02  0.45594000000E+02  0.51100000000E-03 0. -1.
         11   -1    0    0    0    0 -0.00000000000E+00 -0.00000000000E+00 -0.45593999997E+02  0.45594000000E+02  0.51100000000E-03 0.  1.
    9900012    2    1    2    0    0 -0.20232041343E+02  0.35150562558E+02 -0.28755597838E+01  0.50528851102E+02  0.29999973408E+02 0.  0.
        -12    1    1    2    0    0  0.20232041343E+02 -0.35150562558E+02  0.28755597838E+01  0.40659148898E+02  0.00000000000E+00 0.  1.
         11    1    3    3    0    0 -0.57159273552E+01  0.76349432563E+01  0.40994081061E+01  0.10381200852E+02  0.51100000000E-03 0. -1.
        -11    1    3    3    0    0 -0.13274217725E+02  0.23045451607E+02 -0.15252651872E+02  0.30658458626E+02  0.51100000000E-03 0.  1.
         12    1    3    3    0    0 -0.12418962624E+01  0.44701676955E+01  0.82776839817E+01  0.94891916227E+01  0.00000000000E+00 0. -1.
</event>
<event>
 7    1  0.6857839E-013  0.5052887E+02  0.7816164E-02  0.1300439E+00
        -11   -1    0    0    0    0  0.00000000000E+00  0.00000000000E+00  0.45593999997E+02  0.45594000000E+02  0.51100000000E-03 0.  1.
         11   -1    0    0    0    0 -0.00000000000E+00 -0.00000000000E+00 -0.45593999997E+02  0.45594000000E+02  0.51100000000E-03 0. -1.
    9900012    2    1    2    0    0  0.16984098762E+02  0.95239737778E+01 -0.35693127713E+02  0.50528867529E+02  0.30000023343E+02 0.  0.
        -12    1    1    2    0    0 -0.16984098762E+02 -0.95239737778E+01  0.35693127713E+02  0.40659132471E+02  0.00000000000E+00 0.  1.
         11    1    3    3    0    0  0.65035968452E+01 -0.61955604783E+01 -0.32486144160E+01  0.95517138489E+01  0.51100000000E-03 0. -1.
        -11    1    3    3    0    0  0.10412648058E+02  0.66320222706E+01 -0.75385975826E+01  0.14465041056E+02  0.51100000000E-03 0.  1.
         12    1    3    3    0    0  0.67853859178E-01  0.90875119856E+01 -0.24905915715E+02  0.26512112625E+02  0.00000000000E+00 0. -1.
</event>
<event>
 7    1  0.6857839E-013  0.5052881E+02  0.7816164E-02  0.1300439E+00
        -11   -1    0    0    0    0  0.00000000000E+00  0.00000000000E+00  0.45593999997E+02  0.45594000000E+02  0.51100000000E-03 0. -1.
         11   -1    0    0    0    0 -0.00000000000E+00 -0.00000000000E+00 -0.45593999997E+02  0.45594000000E+02  0.51100000000E-03 0.  1.
    9900012    2    1    2    0    0 -0.31700482293E+02  0.99072372238E+01  0.23454115566E+02  0.50528813289E+02  0.29999858472E+02 0.  0.
        -12    1    1    2    0    0  0.31700482293E+02 -0.99072372238E+01 -0.23454115566E+02  0.40659186711E+02  0.00000000000E+00 0.  1.
         11    1    3    3    0    0 -0.10573449899E+02  0.13720942481E+02  0.72440122910E+01  0.18775990511E+02  0.51100000000E-03 0. -1.
        -11    1    3    3    0    0 -0.14333569221E+02  0.79250412551E-01  0.66739565240E+00  0.14349317212E+02  0.51100000000E-03 0.  1.
         12    1    3    3    0    0 -0.67934631739E+01 -0.38929556694E+01  0.15542707623E+02  0.17403505566E+02  0.00000000000E+00 0. -1.
</event>
<event>
 7    1  0.6857839E-013  0.5052880E+02  0.7816164E-02  0.1300439E+00
        -11   -1    0    0    0    0  0.00000000000E+00  0.00000000000E+00  0.45593999997E+02  0.45594000000E+02  0.51100000000E-03 0. -1.
         11   -1    0    0    0    0 -0.00000000000E+00 -0.00000000000E+00 -0.45593999997E+02  0.45594000000E+02  0.51100000000E-03 0.  1.
    9900012    2    1    2    0    0  0.38299742010E+02  0.46312696695E+01  0.12839457847E+02  0.50528799631E+02  0.29999816959E+02 0.  0.
        -12    1    1    2    0    0 -0.38299742010E+02 -0.46312696695E+01 -0.12839457847E+02  0.40659200369E+02  0.00000000000E+00 0.  1.
         11    1    3    3    0    0  0.92013696730E+01 -0.43378495388E+01 -0.54757113425E+01  0.11552729437E+02  0.51100000000E-03 0. -1.
        -11    1    3    3    0    0  0.21524364109E+02  0.84503618336E+01  0.50143538725E+01  0.23661162491E+02  0.51100000000E-03 0.  1.
         12    1    3    3    0    0  0.75740082286E+01  0.51875737477E+00  0.13300815317E+02  0.15314907703E+02  0.00000000000E+00 0. -1.
</event>
<event>
 7    1  0.6857839E-013  0.5052886E+02  0.7816164E-02  0.1300439E+00
        -11   -1    0    0    0    0  0.00000000000E+00  0.00000000000E+00  0.45593999997E+02  0.45594000000E+02  0.51100000000E-03 0. -1.
         11   -1    0    0    0    0 -0.00000000000E+00 -0.00000000000E+00 -0.45593999997E+02  0.45594000000E+02  0.51100000000E-03 0.  1.
    9900012    2    1    2    0    0 -0.83014626455E+01  0.59380682169E+01  0.39357219824E+02  0.50528859718E+02  0.29999999600E+02 0.  0.
        -12    1    1    2    0    0  0.83014626455E+01 -0.59380682169E+01 -0.39357219824E+02  0.40659140282E+02  0.00000000000E+00 0.  1.
         11    1    3    3    0    0 -0.96969768464E+00  0.72136436897E+00  0.20310923041E+02  0.20346849270E+02  0.51100000000E-03 0. -1.
        -11    1    3    3    0    0  0.24046059426E+01 -0.70870607637E+01  0.42030640035E+01  0.85833738872E+01  0.51100000000E-03 0.  1.
         12    1    3    3    0    0 -0.97363709035E+01  0.12303764612E+02  0.14843232779E+02  0.21598636562E+02  0.00000000000E+00 0. -1.
</event>
<event>
 7    1  0.6857839E-013  0.5052885E+02  0.7816164E-02  0.1300439E+00
        -11   -1    0    0    0    0  0.00000000000E+00  0.00000000000E+00  0.45593999997E+02  0.45594000000E+02  0.51100000000E-03 0.  1.
         11   -1    0    0    0    0 -0.00000000000E+00 -0.00000000000E+00 -0.45593999997E+02  0.45594000000E+02  0.51100000000E-03 0. -1.
    9900012    2    1    2    0    0 -0.38936194328E+01 -0.33235914563E+02 -0.23095026541E+02  0.50528849246E+02  0.29999967768E+02 0.  0.
        -12    1    1    2    0    0  0.38936194328E+01  0.33235914563E+02  0.23095026541E+02  0.40659150754E+02  0.00000000000E+00 0.  1.
         11    1    3    3    0    0  0.54758666434E+01 -0.24023745977E+01 -0.69061339718E+00  0.60194240862E+01  0.51100000000E-03 0. -1.
        -11    1    3    3    0    0 -0.82517418149E+01 -0.29011171330E+01 -0.11625506079E+02  0.14548543414E+02  0.51100000000E-03 0.  1.
         12    1    3    3    0    0 -0.11177442614E+01 -0.27932422832E+02 -0.10778907065E+02  0.29960881746E+02  0.00000000000E+00 0. -1.
</event>
<event>
 7    1  0.6857839E-013  0.5052890E+02  0.7816164E-02  0.1300439E+00
        -11   -1    0    0    0    0  0.00000000000E+00  0.00000000000E+00  0.45593999997E+02  0.45594000000E+02  0.51100000000E-03 0. -1.
         11   -1    0    0    0    0 -0.00000000000E+00 -0.00000000000E+00 -0.45593999997E+02  0.45594000000E+02  0.51100000000E-03 0.  1.
    9900012    2    1    2    0    0 -0.35759073598E+02 -0.19343302349E+02 -0.53639237574E+00  0.50528900070E+02  0.30000122253E+02 0.  0.
        -12    1    1    2    0    0  0.35759073598E+02  0.19343302349E+02  0.53639237574E+00  0.40659099930E+02  0.00000000000E+00 0.  1.
         11    1    3    3    0    0 -0.46769015774E+01 -0.10304404450E+02 -0.23319703080E+01  0.11553884421E+02  0.51100000000E-03 0. -1.
        -11    1    3    3    0    0 -0.30627646483E+01  0.18578762304E+01 -0.68179298721E+01  0.77017140547E+01  0.51100000000E-03 0.  1.
        -12    1    3    3    0    0 -0.28019407372E+02 -0.10896774129E+02  0.86135078044E+01  0.31273301594E+02  0.00000000000E+00 0.  1.
</event>
<event>
 7    1  0.6857839E-013  0.5052887E+02  0.7816164E-02  0.1300439E+00
        -11   -1    0    0    0    0  0.00000000000E+00  0.00000000000E+00  0.45593999997E+02  0.45594000000E+02  0.51100000000E-03 0.  1.
         11   -1    0    0    0    0 -0.00000000000E+00 -0.00000000000E+00 -0.45593999997E+02  0.45594000000E+02  0.51100000000E-03 0. -1.
    9900012    2    1    2    0    0  0.32350890358E+02  0.24492879315E+02  0.25853009399E+01  0.50528867876E+02  0.30000024397E+02 0.  0.
        -12    1    1    2    0    0 -0.32350890358E+02 -0.24492879315E+02 -0.25853009399E+01  0.40659132124E+02  0.00000000000E+00 0.  1.
         11    1    3    3    0    0  0.40206057508E+01  0.48517709237E+01  0.14304533726E+01  0.64615128888E+01  0.51100000000E-03 0. -1.
        -11    1    3    3    0    0  0.18924160920E+02  0.49439847082E+01 -0.11337062645E+02  0.22607428890E+02  0.51100000000E-03 0.  1.
        -12    1    3    3    0    0  0.94061236864E+01  0.14697123684E+02  0.12491910212E+02  0.21459926098E+02  0.00000000000E+00 0.  1.
</event>
<event>
 7    1  0.6857839E-013  0.5052886E+02  0.7816164E-02  0.1300439E+00
        -11   -1    0    0    0    0  0.00000000000E+00  0.00000000000E+00  0.45593999997E+02  0.45594000000E+02  0.51100000000E-03 0.  1.
         11   -1    0    0    0    0 -0.00000000000E+00 -0.00000000000E+00 -0.45593999997E+02  0.45594000000E+02  0.51100000000E-03 0. -1.
    9900012    2    1    2    0    0  0.17008658099E+02  0.36913978759E+02  0.11087907722E+01  0.50528859636E+02  0.29999999350E+02 0.  0.
        -12    1    1    2    0    0 -0.17008658099E+02 -0.36913978759E+02 -0.11087907722E+01  0.40659140364E+02  0.00000000000E+00 0.  1.
         11    1    3    3    0    0 -0.14206617548E+01  0.28283457202E+01  0.42743170058E+01  0.53186093541E+01  0.51100000000E-03 0.  1.
        -11    1    3    3    0    0  0.17332985087E+02  0.15776222283E+02 -0.10205886216E+02  0.25563287646E+02  0.51100000000E-03 0. -1.
         12    1    3    3    0    0  0.10963347668E+01  0.18309410756E+02  0.70403599827E+01  0.19646962636E+02  0.00000000000E+00 0. -1.
</event>
<event>
 7    1  0.6857839E-013  0.5052885E+02  0.7816164E-02  0.1300439E+00
        -11   -1    0    0    0    0  0.00000000000E+00  0.00000000000E+00  0.45593999997E+02  0.45594000000E+02  0.51100000000E-03 0.  1.
         11   -1    0    0    0    0 -0.00000000000E+00 -0.00000000000E+00 -0.45593999997E+02  0.45594000000E+02  0.51100000000E-03 0. -1.
    9900012    2    1    2    0    0 -0.11506763070E+02  0.30446197524E+02 -0.24367802971E+02  0.50528851439E+02  0.29999974434E+02 0.  0.
        -12    1    1    2    0    0  0.11506763070E+02 -0.30446197524E+02  0.24367802971E+02  0.40659148561E+02  0.00000000000E+00 0.  1.
         11    1    3    3    0    0  0.39741527985E+01  0.55062753637E+01 -0.64226491387E+00  0.68209576548E+01  0.51100000000E-03 0.  1.
        -11    1    3    3    0    0 -0.61908504746E+01  0.25165031140E+02 -0.11502240522E+02  0.28353253061E+02  0.51100000000E-03 0. -1.
         12    1    3    3    0    0 -0.92900653942E+01 -0.22510897940E+00 -0.12223297536E+02  0.15354640723E+02  0.00000000000E+00 0. -1.
</event>
<event>
 7    1  0.6857839E-013  0.5052886E+02  0.7816164E-02  0.1300439E+00
        -11   -1    0    0    0    0  0.00000000000E+00  0.00000000000E+00  0.45593999997E+02  0.45594000000E+02  0.51100000000E-03 0. -1.
         11   -1    0    0    0    0 -0.00000000000E+00 -0.00000000000E+00 -0.45593999997E+02  0.45594000000E+02  0.51100000000E-03 0.  1.
    9900012    2    1    2    0    0  0.23655704134E+02 -0.21056860066E+02  0.25498665775E+02  0.50528860188E+02  0.30000001028E+02 0.  0.
        -12    1    1    2    0    0 -0.23655704134E+02  0.21056860066E+02 -0.25498665775E+02  0.40659139812E+02  0.00000000000E+00 0.  1.
         11    1    3    3    0    0  0.16535602328E+02 -0.13946433410E+01  0.53410662781E+01  0.17432675172E+02  0.51100000000E-03 0. -1.
        -11    1    3    3    0    0 -0.26695441584E+01 -0.20265240432E+01 -0.13470816984E+01  0.36121870210E+01  0.51100000000E-03 0.  1.
         12    1    3    3    0    0  0.97896459645E+01 -0.17635692682E+02  0.21504681195E+02  0.29483997995E+02  0.00000000000E+00 0. -1.
</event>
<event>
 7    1  0.6857839E-013  0.5052886E+02  0.7816164E-02  0.1300439E+00
        -11   -1    0    0    0    0  0.00000000000E+00  0.00000000000E+00  0.45593999997E+02  0.45594000000E+02  0.51100000000E-03 0. -1.
         11   -1    0    0    0    0 -0.00000000000E+00 -0.00000000000E+00 -0.45593999997E+02  0.45594000000E+02  0.51100000000E-03 0.  1.
    9900012    2    1    2    0    0  0.34572624468E+02  0.14553700187E+02  0.15687231656E+02  0.50528858484E+02  0.29999995849E+02 0.  0.
        -12    1    1    2    0    0 -0.34572624468E+02 -0.14553700187E+02 -0.15687231656E+02  0.40659141516E+02  0.00000000000E+00 0.  1.
         11    1    3    3    0    0  0.12757763125E+02 -0.14736078438E+01  0.35485993005E+01  0.13323835682E+02  0.51100000000E-03 0. -1.
        -11    1    3    3    0    0 -0.30785241640E+00 -0.38005984793E+01  0.56181986707E+01  0.67899542322E+01  0.51100000000E-03 0.  1.
         12    1    3    3    0    0  0.22122713760E+02  0.19827906510E+02  0.65204336846E+01  0.30415068570E+02  0.00000000000E+00 0. -1.
</event>
<event>
 7    1  0.6857839E-013  0.5052887E+02  0.7816164E-02  0.1300439E+00
        -11   -1    0    0    0    0  0.00000000000E+00  0.00000000000E+00  0.45593999997E+02  0.45594000000E+02  0.51100000000E-03 0.  1.
         11   -1    0    0    0    0 -0.00000000000E+00 -0.00000000000E+00 -0.45593999997E+02  0.45594000000E+02  0.51100000000E-03 0. -1.
    9900012    2    1    2    0    0  0.29946038267E+02 -0.18425343808E+02 -0.20418281914E+02  0.50528871398E+02  0.30000035102E+02 0.  0.
        -12    1    1    2    0    0 -0.29946038267E+02  0.18425343808E+02  0.20418281914E+02  0.40659128602E+02  0.00000000000E+00 0.  1.
         11    1    3    3    0    0  0.15050312697E+02  0.38916092576E+00 -0.10060782879E+02  0.18107531883E+02  0.51100000000E-03 0. -1.
        -11    1    3    3    0    0  0.10735716367E+02 -0.82652606997E+01 -0.14959657935E+02  0.20183198610E+02  0.51100000000E-03 0.  1.
        -12    1    3    3    0    0  0.41600092028E+01 -0.10549244034E+02  0.46021589001E+01  0.12238140905E+02  0.00000000000E+00 0.  1.
</event>
<event>
 7    1  0.6857839E-013  0.5052886E+02  0.7816164E-02  0.1300439E+00
        -11   -1    0    0    0    0  0.00000000000E+00  0.00000000000E+00  0.45593999997E+02  0.45594000000E+02  0.51100000000E-03 0. -1.
         11   -1    0    0    0    0 -0.00000000000E+00 -0.00000000000E+00 -0.45593999997E+02  0.45594000000E+02  0.51100000000E-03 0.  1.
    9900012    2    1    2    0    0 -0.26361710280E+02 -0.12191438721E+02  0.28453382313E+02  0.50528856969E+02  0.29999991243E+02 0.  0.
        -12    1    1    2    0    0  0.26361710280E+02  0.12191438721E+02 -0.28453382313E+02  0.40659143031E+02  0.00000000000E+00 0.  1.
         11    1    3    3    0    0 -0.67132392104E+01 -0.10686782511E+02  0.96425373706E+01  0.15882488103E+02  0.51100000000E-03 0. -1.
        -11    1    3    3    0    0 -0.17742426360E+02 -0.25523388218E+01  0.23918556867E+01  0.18083945932E+02  0.51100000000E-03 0.  1.
        -12    1    3    3    0    0 -0.19060447101E+01  0.10476826113E+01  0.16418989255E+02  0.16562422934E+02  0.00000000000E+00 0.  1.
</event>
<event>
 7    1  0.6857839E-013  0.5052886E+02  0.7816164E-02  0.1300439E+00
        -11   -1    0    0    0    0  0.00000000000E+00  0.00000000000E+00  0.45593999997E+02  0.45594000000E+02  0.51100000000E-03 0.  1.
         11   -1    0    0    0    0 -0.00000000000E+00 -0.00000000000E+00 -0.45593999997E+02  0.45594000000E+02  0.51100000000E-03 0. -1.
    9900012    2    1    2    0    0 -0.29045431092E+01 -0.20151224569E+01 -0.40505170548E+02  0.50528856744E+02  0.29999990559E+02 0.  0.
        -12    1    1    2    0    0  0.29045431092E+01  0.20151224569E+01  0.40505170548E+02  0.40659143256E+02  0.00000000000E+00 0.  1.
         11    1    3    3    0    0 -0.14428305044E+02  0.19076403078E+01 -0.23312292893E+02  0.27482323013E+02  0.51100000000E-03 0. -1.
        -11    1    3    3    0    0  0.91687099660E+00 -0.41885166895E+01 -0.76818416390E+01  0.87974437032E+01  0.51100000000E-03 0.  1.
        -12    1    3    3    0    0  0.10606890939E+02  0.26575392483E+00 -0.95110360161E+01  0.14249090028E+02  0.00000000000E+00 0.  1.
</event>
<event>
 7    1  0.6857839E-013  0.5052886E+02  0.7816164E-02  0.1300439E+00
        -11   -1    0    0    0    0  0.00000000000E+00  0.00000000000E+00  0.45593999997E+02  0.45594000000E+02  0.51100000000E-03 0.  1.
         11   -1    0    0    0    0 -0.00000000000E+00 -0.00000000000E+00 -0.45593999997E+02  0.45594000000E+02  0.51100000000E-03 0. -1.
    9900012    2    1    2    0    0 -0.35475709387E+02 -0.85370128880E+01 -0.17937644954E+02  0.50528860166E+02  0.30000000960E+02 0.  0.
        -12    1    1    2    0    0  0.35475709387E+02  0.85370128880E+01  0.17937644954E+02  0.40659139834E+02  0.00000000000E+00 0.  1.
         11    1    3    3    0    0 -0.72935874635E+01 -0.55419119308E+01  0.39757090215E+01  0.99857632868E+01  0.51100000000E-03 0. -1.
        -11    1    3    3    0    0 -0.22495717037E+02 -0.60115286381E+01 -0.24321062947E+02  0.33670608321E+02  0.51100000000E-03 0.  1.
         12    1    3    3    0    0 -0.56864048866E+01  0.30164276809E+01  0.24077089716E+01  0.68724885581E+01  0.00000000000E+00 0. -1.
</event>
<event>
 7    1  0.6857839E-013  0.5052886E+02  0.7816164E-02  0.1300439E+00
        -11   -1    0    0    0    0  0.00000000000E+00  0.00000000000E+00  0.45593999997E+02  0.45594000000E+02  0.51100000000E-03 0. -1.
         11   -1    0    0    0    0 -0.00000000000E+00 -0.00000000000E+00 -0.45593999997E+02  0.45594000000E+02  0.51100000000E-03 0.  1.
    9900012    2    1    2    0    0 -0.30145107277E+02 -0.17316805445E+02  0.21084737670E+02  0.50528863190E+02  0.30000010152E+02 0.  0.
        -12    1    1    2    0    0  0.30145107277E+02  0.17316805445E+02 -0.21084737670E+02  0.40659136810E+02  0.00000000000E+00 0.  1.
         11    1    3    3    0    0  0.25244302586E+01 -0.11993659906E+01  0.14275250789E+01  0.31383204141E+01  0.51100000000E-03 0. -1.
        -11    1    3    3    0    0 -0.10999552481E+02 -0.17214102393E+02  0.14605616554E+02  0.25112536932E+02  0.51100000000E-03 0.  1.
         12    1    3    3    0    0 -0.21669985054E+02  0.10966629383E+01  0.50515960365E+01  0.22278005844E+02  0.00000000000E+00 0. -1.
</event>
<event>
 7    1  0.6857839E-013  0.5052886E+02  0.7816164E-02  0.1300439E+00
        -11   -1    0    0    0    0  0.00000000000E+00  0.00000000000E+00  0.45593999997E+02  0.45594000000E+02  0.51100000000E-03 0.  1.
         11   -1    0    0    0    0 -0.00000000000E+00 -0.00000000000E+00 -0.45593999997E+02  0.45594000000E+02  0.51100000000E-03 0. -1.
    9900012    2    1    2    0    0 -0.35566756378E+02  0.64782751370E+01 -0.18606541775E+02  0.50528860747E+02  0.30000002725E+02 0.  0.
        -12    1    1    2    0    0  0.35566756378E+02 -0.64782751370E+01  0.18606541775E+02  0.40659139253E+02  0.00000000000E+00 0.  1.
         11    1    3    3    0    0 -0.21510944964E+02  0.13095821398E+02 -0.12034277895E+02  0.27911380046E+02  0.51100000000E-03 0. -1.
        -11    1    3    3    0    0 -0.16306336357E+02 -0.21670894522E+01 -0.63263676633E+01  0.17624296018E+02  0.51100000000E-03 0.  1.
         12    1    3    3    0    0  0.22505249432E+01 -0.44504568086E+01 -0.24589621741E+00  0.49931846826E+01  0.00000000000E+00 0. -1.
</event>
<event>
 7    1  0.6857839E-013  0.5052886E+02  0.7816164E-02  0.1300439E+00
        -11   -1    0    0    0    0  0.00000000000E+00  0.00000000000E+00  0.45593999997E+02  0.45594000000E+02  0.51100000000E-03 0.  1.
         11   -1    0    0    0    0 -0.00000000000E+00 -0.00000000000E+00 -0.45593999997E+02  0.45594000000E+02  0.51100000000E-03 0. -1.
    9900012    2    1    2    0    0  0.37675047057E+02  0.15045110516E+02 -0.27204999442E+01  0.50528860301E+02  0.30000001370E+02 0.  0.
        -12    1    1    2    0    0 -0.37675047057E+02 -0.15045110516E+02  0.27204999442E+01  0.40659139699E+02  0.00000000000E+00 0.  1.
         11    1    3    3    0    0  0.30684452133E+02  0.14599810278E+02 -0.61176665365E+01  0.34527031540E+02  0.51100000000E-03 0. -1.
        -11    1    3    3    0    0  0.57076844261E+01 -0.62028891758E+01  0.62200819669E-02  0.84293258678E+01  0.51100000000E-03 0.  1.
         12    1    3    3    0    0  0.12829104975E+01  0.66481894136E+01  0.33909465104E+01  0.75725028927E+01  0.00000000000E+00 0. -1.
</event>
<event>
 7    1  0.6857839E-013  0.5052888E+02  0.7816164E-02  0.1300439E+00
        -11   -1    0    0    0    0  0.00000000000E+00  0.00000000000E+00  0.45593999997E+02  0.45594000000E+02  0.51100000000E-03 0.  1.
         11   -1    0    0    0    0 -0.00000000000E+00 -0.00000000000E+00 -0.45593999997E+02  0.45594000000E+02  0.51100000000E-03 0. -1.
    9900012    2    1    2    0    0  0.39334446205E+02  0.10115430524E+02 -0.19086930473E+01  0.50528884145E+02  0.30000073847E+02 0.  0.
        -12    1    1    2    0    0 -0.39334446205E+02 -0.10115430524E+02  0.19086930473E+01  0.40659115855E+02  0.00000000000E+00 0.  1.
         11    1    3    3    0    0  0.17136325895E+02  0.14304554509E+02 -0.91840740902E+01  0.24137546728E+02  0.51100000000E-03 0. -1.
        -11    1    3    3    0    0  0.13044764920E+02  0.26759484532E+01  0.10302422966E+01  0.13356196741E+02  0.51100000000E-03 0.  1.
        -12    1    3    3    0    0  0.91533553897E+01 -0.68650724383E+01  0.62451387463E+01  0.13035140676E+02  0.00000000000E+00 0.  1.
</event>
<event>
 7    1  0.9334800E-013  0.5052886E+02  0.7816164E-02  0.1300439E+00
        -11   -1    0    0    0    0  0.00000000000E+00  0.00000000000E+00  0.45593999997E+02  0.45594000000E+02  0.51100000000E-03 0.  1.
         11   -1    0    0    0    0 -0.00000000000E+00 -0.00000000000E+00 -0.45593999997E+02  0.45594000000E+02  0.51100000000E-03 0. -1.
    9900012    2    1    2    0    0  0.23353047628E+02 -0.26454538625E+02  0.20197976233E+02  0.50528859684E+02  0.29999999494E+02 0.  0.
        -12    1    1    2    0    0 -0.23353047628E+02  0.26454538625E+02 -0.20197976233E+02  0.40659140316E+02  0.00000000000E+00 0.  1.
         11    1    3    3    0    0  0.14269436814E+02 -0.11493581119E+02  0.74726466592E+01  0.19787867047E+02  0.51100000000E-03 0. -1.
        -11    1    3    3    0    0  0.11511802581E+02 -0.50010340371E+01  0.15668054886E+02  0.20075355147E+02  0.51100000000E-03 0.  1.
        -12    1    3    3    0    0 -0.24281917677E+01 -0.99599234694E+01 -0.29427253128E+01  0.10665637489E+02  0.00000000000E+00 0.  1.
</event>
<event>
 7    1  0.6857839E-013  0.5052886E+02  0.7816164E-02  0.1300439E+00
        -11   -1    0    0    0    0  0.00000000000E+00  0.00000000000E+00  0.45593999997E+02  0.45594000000E+02  0.51100000000E-03 0.  1.
         11   -1    0    0    0    0 -0.00000000000E+00 -0.00000000000E+00 -0.45593999997E+02  0.45594000000E+02  0.51100000000E-03 0. -1.
    9900012    2    1    2    0    0  0.21613900937E+02  0.24586289077E+02 -0.24114716527E+02  0.50528857394E+02  0.29999992535E+02 0.  0.
        -12    1    1    2    0    0 -0.21613900937E+02 -0.24586289077E+02  0.24114716527E+02  0.40659142606E+02  0.00000000000E+00 0.  1.
         11    1    3    3    0    0  0.13553699038E+02  0.18135356121E+02 -0.25535125318E+02  0.34126771375E+02  0.51100000000E-03 0. -1.
        -11    1    3    3    0    0  0.69407639278E+01  0.86861385773E+01 -0.28281341744E+01  0.11472643569E+02  0.51100000000E-03 0.  1.
         12    1    3    3    0    0  0.11194379705E+01 -0.22352056216E+01  0.42485429650E+01  0.49294424499E+01  0.00000000000E+00 0. -1.
</event>
<event>
 7    1  0.6857839E-013  0.5052888E+02  0.7816164E-02  0.1300439E+00
        -11   -1    0    0    0    0  0.00000000000E+00  0.00000000000E+00  0.45593999997E+02  0.45594000000E+02  0.51100000000E-03 0. -1.
         11   -1    0    0    0    0 -0.00000000000E+00 -0.00000000000E+00 -0.45593999997E+02  0.45594000000E+02  0.51100000000E-03 0.  1.
    9900012    2    1    2    0    0  0.39902563506E+02 -0.74940563954E+01  0.21883500076E+01  0.50528876407E+02  0.30000050325E+02 0.  0.
        -12    1    1    2    0    0 -0.39902563506E+02  0.74940563954E+01 -0.21883500076E+01  0.40659123593E+02  0.00000000000E+00 0.  1.
         11    1    3    3    0    0  0.10694770940E+02  0.17199338082E+01  0.57771452917E+01  0.12276469596E+02  0.51100000000E-03 0. -1.
        -11    1    3    3    0    0  0.24827812827E+02 -0.13161516576E+02  0.42745679128E+01  0.28423893812E+02  0.51100000000E-03 0.  1.
        -12    1    3    3    0    0  0.43799797390E+01  0.39475263727E+01 -0.78633631969E+01  0.98285129976E+01  0.00000000000E+00 0.  1.
</event>
<event>
 7    1  0.6857839E-013  0.5052886E+02  0.7816164E-02  0.1300439E+00
        -11   -1    0    0    0    0  0.00000000000E+00  0.00000000000E+00  0.45593999997E+02  0.45594000000E+02  0.51100000000E-03 0. -1.
         11   -1    0    0    0    0 -0.00000000000E+00 -0.00000000000E+00 -0.45593999997E+02  0.45594000000E+02  0.51100000000E-03 0.  1.
    9900012    2    1    2    0    0  0.34032324462E+02 -0.19589476768E+02  0.10546028839E+02  0.50528862865E+02  0.30000009165E+02 0.  0.
        -12    1    1    2    0    0 -0.34032324462E+02  0.19589476768E+02 -0.10546028839E+02  0.40659137135E+02  0.00000000000E+00 0.  1.
         11    1    3    3    0    0  0.34222004659E+01 -0.15678130027E+01 -0.54013223338E+01  0.65835990806E+01  0.51100000000E-03 0. -1.
        -11    1    3    3    0    0  0.21554196651E+02 -0.17027618461E+02  0.23377761819E+01  0.27567886779E+02  0.51100000000E-03 0.  1.
         12    1    3    3    0    0  0.90559273452E+01 -0.99404530346E+00  0.13609574991E+02  0.16377377005E+02  0.00000000000E+00 0. -1.
</event>
<event>
 7    1  0.6857839E-013  0.5052886E+02  0.7816164E-02  0.1300439E+00
        -11   -1    0    0    0    0  0.00000000000E+00  0.00000000000E+00  0.45593999997E+02  0.45594000000E+02  0.51100000000E-03 0.  1.
         11   -1    0    0    0    0 -0.00000000000E+00 -0.00000000000E+00 -0.45593999997E+02  0.45594000000E+02  0.51100000000E-03 0. -1.
    9900012    2    1    2    0    0 -0.21039260918E+00  0.38448815477E+02 -0.13221566533E+02  0.50528862057E+02  0.30000006709E+02 0.  0.
        -12    1    1    2    0    0  0.21039260918E+00 -0.38448815477E+02  0.13221566533E+02  0.40659137943E+02  0.00000000000E+00 0.  1.
         11    1    3    3    0    0 -0.63511082187E+01  0.11219696778E+02 -0.89978094616E+01  0.15721919309E+02  0.51100000000E-03 0. -1.
        -11    1    3    3    0    0  0.38585936195E+01 -0.22320325674E+01  0.15098461960E+01  0.47064158230E+01  0.51100000000E-03 0.  1.
        -12    1    3    3    0    0  0.22821219900E+01  0.29461151267E+02 -0.57336032670E+01  0.30100526925E+02  0.00000000000E+00 0.  1.
</event>
<event>
 7    1  0.6857839E-013  0.5052883E+02  0.7816164E-02  0.1300439E+00
        -11   -1    0    0    0    0  0.00000000000E+00  0.00000000000E+00  0.45593999997E+02  0.45594000000E+02  0.51100000000E-03 0.  1.
         11   -1    0    0    0    0 -0.00000000000E+00 -0.00000000000E+00 -0.45593999997E+02  0.45594000000E+02  0.51100000000E-03 0. -1.
    9900012    2    1    2    0    0  0.14357897089E+02 -0.36696266559E+02 -0.10020114547E+02  0.50528832723E+02  0.29999917543E+02 0.  0.
        -12    1    1    2    0    0 -0.14357897089E+02  0.36696266559E+02  0.10020114547E+02  0.40659167277E+02  0.00000000000E+00 0.  1.
         11    1    3    3    0    0  0.14078866250E+01  0.12612737877E+00 -0.26168225609E+01  0.29741912247E+01  0.51100000000E-03 0. -1.
        -11    1    3    3    0    0  0.18392945290E+02 -0.22172379375E+02  0.27162384031E+01  0.28936012077E+02  0.51100000000E-03 0.  1.
         12    1    3    3    0    0 -0.54429348266E+01 -0.14650014562E+02 -0.10119530389E+02  0.18618629421E+02  0.00000000000E+00 0. -1.
</event>
<event>
 7    1  0.6857839E-013  0.5052887E+02  0.7816164E-02  0.1300439E+00
        -11   -1    0    0    0    0  0.00000000000E+00  0.00000000000E+00  0.45593999997E+02  0.45594000000E+02  0.51100000000E-03 0.  1.
         11   -1    0    0    0    0 -0.00000000000E+00 -0.00000000000E+00 -0.45593999997E+02  0.45594000000E+02  0.51100000000E-03 0. -1.
    9900012    2    1    2    0    0 -0.17421919425E+02  0.36507966612E+02 -0.40999890411E+01  0.50528870487E+02  0.30000032333E+02 0.  0.
        -12    1    1    2    0    0  0.17421919425E+02 -0.36507966612E+02  0.40999890411E+01  0.40659129513E+02  0.00000000000E+00 0.  1.
         11    1    3    3    0    0 -0.17779475022E+02  0.10351394354E+02 -0.40848974417E+01  0.20974925137E+02  0.51100000000E-03 0. -1.
        -11    1    3    3    0    0  0.35958862677E+01  0.75588416420E+00 -0.13456319764E+01  0.39131169925E+01  0.51100000000E-03 0.  1.
        -12    1    3    3    0    0 -0.32383306709E+01  0.25400688094E+02  0.13305403771E+01  0.25640828358E+02  0.00000000000E+00 0.  1.
</event>
<event>
 7    1  0.6857839E-013  0.5052887E+02  0.7816164E-02  0.1300439E+00
        -11   -1    0    0    0    0  0.00000000000E+00  0.00000000000E+00  0.45593999997E+02  0.45594000000E+02  0.51100000000E-03 0.  1.
         11   -1    0    0    0    0 -0.00000000000E+00 -0.00000000000E+00 -0.45593999997E+02  0.45594000000E+02  0.51100000000E-03 0. -1.
    9900012    2    1    2    0    0  0.33637975823E+02 -0.19452694820E+02 -0.11968456241E+02  0.50528871898E+02  0.30000036621E+02 0.  0.
        -12    1    1    2    0    0 -0.33637975823E+02  0.19452694820E+02  0.11968456241E+02  0.40659128102E+02  0.00000000000E+00 0.  1.
         11    1    3    3    0    0  0.10594004290E+02 -0.12492081604E+02  0.54304445810E+01  0.17256151318E+02  0.51100000000E-03 0. -1.
        -11    1    3    3    0    0 -0.16911247108E+01 -0.28026401222E+01 -0.22231315464E+01  0.39568938040E+01  0.51100000000E-03 0.  1.
         12    1    3    3    0    0  0.24735096244E+02 -0.41579730933E+01 -0.15175769275E+02  0.29315826776E+02  0.00000000000E+00 0. -1.
</event>
<event>
 7    1  0.6857839E-013  0.5052886E+02  0.7816164E-02  0.1300439E+00
        -11   -1    0    0    0    0  0.00000000000E+00  0.00000000000E+00  0.45593999997E+02  0.45594000000E+02  0.51100000000E-03 0. -1.
         11   -1    0    0    0    0 -0.00000000000E+00 -0.00000000000E+00 -0.45593999997E+02  0.45594000000E+02  0.51100000000E-03 0.  1.
    9900012    2    1    2    0    0  0.35183182549E+02 -0.65997413922E+01  0.19280893920E+02  0.50528858456E+02  0.29999995763E+02 0.  0.
        -12    1    1    2    0    0 -0.35183182549E+02  0.65997413922E+01 -0.19280893920E+02  0.40659141544E+02  0.00000000000E+00 0.  1.
         11    1    3    3    0    0  0.92933336852E+01  0.15345708636E+01  0.12533091707E+02  0.15677989243E+02  0.51100000000E-03 0. -1.
        -11    1    3    3    0    0  0.16565734983E+01 -0.30929588675E+00  0.91208443454E+01  0.92752197567E+01  0.51100000000E-03 0.  1.
         12    1    3    3    0    0  0.24233275366E+02 -0.78250163690E+01 -0.23730421328E+01  0.25575649456E+02  0.00000000000E+00 0. -1.
</event>
<event>
 7    1  0.6857839E-013  0.5052886E+02  0.7816164E-02  0.1300439E+00
        -11   -1    0    0    0    0  0.00000000000E+00  0.00000000000E+00  0.45593999997E+02  0.45594000000E+02  0.51100000000E-03 0. -1.
         11   -1    0    0    0    0 -0.00000000000E+00 -0.00000000000E+00 -0.45593999997E+02  0.45594000000E+02  0.51100000000E-03 0.  1.
    9900012    2    1    2    0    0  0.33528143746E+01 -0.39921405621E+02  0.69430357238E+01  0.50528859133E+02  0.29999997822E+02 0.  0.
        -12    1    1    2    0    0 -0.33528143746E+01  0.39921405621E+02 -0.69430357238E+01  0.40659140867E+02  0.00000000000E+00 0.  1.
         11    1    3    3    0    0 -0.48031642638E+01 -0.21495659846E+02  0.81263987188E+01  0.23477055513E+02  0.51100000000E-03 0. -1.
        -11    1    3    3    0    0  0.12823233191E+01  0.13124832640E+01  0.49421892802E+01  0.52718308542E+01  0.51100000000E-03 0.  1.
         12    1    3    3    0    0  0.68736553192E+01 -0.19738229038E+02 -0.61255522751E+01  0.21779972766E+02  0.00000000000E+00 0. -1.
</event>
<event>
 7    1  0.6857839E-013  0.5052886E+02  0.7816164E-02  0.1300439E+00
        -11   -1    0    0    0    0  0.00000000000E+00  0.00000000000E+00  0.45593999997E+02  0.45594000000E+02  0.51100000000E-03 0.  1.
         11   -1    0    0    0    0 -0.00000000000E+00 -0.00000000000E+00 -0.45593999997E+02  0.45594000000E+02  0.51100000000E-03 0. -1.
    9900012    2    1    2    0    0  0.24520087279E+01 -0.15791371043E+02 -0.37386972075E+02  0.50528862931E+02  0.30000009366E+02 0.  0.
        -12    1    1    2    0    0 -0.24520087279E+01  0.15791371043E+02  0.37386972075E+02  0.40659137069E+02  0.00000000000E+00 0.  1.
         11    1    3    3    0    0  0.45168190387E+01 -0.12234826398E+02 -0.11749164373E+02  0.17553788621E+02  0.51100000000E-03 0. -1.
        -11    1    3    3    0    0  0.25981470322E+01 -0.77494760519E+01 -0.25418597101E+02  0.26700371269E+02  0.51100000000E-03 0.  1.
        -12    1    3    3    0    0 -0.46629573430E+01  0.41929314072E+01 -0.21921060197E+00  0.62747030413E+01  0.00000000000E+00 0.  1.
</event>
<event>
 7    1  0.6857839E-013  0.5052886E+02  0.7816164E-02  0.1300439E+00
        -11   -1    0    0    0    0  0.00000000000E+00  0.00000000000E+00  0.45593999997E+02  0.45594000000E+02  0.51100000000E-03 0. -1.
         11   -1    0    0    0    0 -0.00000000000E+00 -0.00000000000E+00 -0.45593999997E+02  0.45594000000E+02  0.51100000000E-03 0.  1.
    9900012    2    1    2    0    0  0.94291912281E+00  0.34954669244E+02  0.20747227982E+02  0.50528862437E+02  0.30000007863E+02 0.  0.
        -12    1    1    2    0    0 -0.94291912281E+00 -0.34954669244E+02 -0.20747227982E+02  0.40659137563E+02  0.00000000000E+00 0.  1.
         11    1    3    3    0    0  0.23419496094E+01  0.23530391952E+01  0.78047544429E+01  0.84814924160E+01  0.51100000000E-03 0. -1.
        -11    1    3    3    0    0 -0.75926035738E+01  0.25084372428E+02  0.17272571846E+02  0.31388136415E+02  0.51100000000E-03 0.  1.
        -12    1    3    3    0    0  0.61935730872E+01  0.75172576206E+01 -0.43300983066E+01  0.10659233606E+02  0.00000000000E+00 0.  1.
</event>
<event>
 7    1  0.6857839E-013  0.5052885E+02  0.7816164E-02  0.1300439E+00
        -11   -1    0    0    0    0  0.00000000000E+00  0.00000000000E+00  0.45593999997E+02  0.45594000000E+02  0.51100000000E-03 0. -1.
         11   -1    0    0    0    0 -0.00000000000E+00 -0.00000000000E+00 -0.45593999997E+02  0.45594000000E+02  0.51100000000E-03 0.  1.
    9900012    2    1    2    0    0 -0.11196900985E+02 -0.31253009867E+02  0.23474345745E+02  0.50528854343E+02  0.29999983262E+02 0.  0.
        -12    1    1    2    0    0  0.11196900985E+02  0.31253009867E+02 -0.23474345745E+02  0.40659145657E+02  0.00000000000E+00 0.  1.
         11    1    3    3    0    0 -0.34638736670E+00 -0.15417490955E+02  0.19186351612E+02  0.24615749023E+02  0.51100000000E-03 0. -1.
        -11    1    3    3    0    0  0.18576270433E+01  0.21280244725E+01  0.26084109176E+01  0.38448763523E+01  0.51100000000E-03 0.  1.
         12    1    3    3    0    0 -0.12708140661E+02 -0.17963543385E+02  0.16795832157E+01  0.22068228968E+02  0.00000000000E+00 0. -1.
</event>
<event>
 7    1  0.6857839E-013  0.5052886E+02  0.7816164E-02  0.1300439E+00
        -11   -1    0    0    0    0  0.00000000000E+00  0.00000000000E+00  0.45593999997E+02  0.45594000000E+02  0.51100000000E-03 0.  1.
         11   -1    0    0    0    0 -0.00000000000E+00 -0.00000000000E+00 -0.45593999997E+02  0.45594000000E+02  0.51100000000E-03 0. -1.
    9900012    2    1    2    0    0  0.15243641131E+02  0.37613724115E+02 -0.24504076297E+01  0.50528864074E+02  0.30000012838E+02 0.  0.
        -12    1    1    2    0    0 -0.15243641131E+02 -0.37613724115E+02  0.24504076297E+01  0.40659135926E+02  0.00000000000E+00 0.  1.
         11    1    3    3    0    0  0.51156629779E+01  0.20718099321E+02  0.32884361685E+01  0.21592208314E+02  0.51100000000E-03 0. -1.
        -11    1    3    3    0    0  0.37046849745E+01  0.14827189593E+02  0.51491061729E+01  0.16127105650E+02  0.51100000000E-03 0.  1.
         12    1    3    3    0    0  0.64232931789E+01  0.20684352004E+01 -0.10887949971E+02  0.12809550110E+02  0.00000000000E+00 0. -1.
</event>
<event>
 7    1  0.6857839E-013  0.5052886E+02  0.7816164E-02  0.1300439E+00
        -11   -1    0    0    0    0  0.00000000000E+00  0.00000000000E+00  0.45593999997E+02  0.45594000000E+02  0.51100000000E-03 0.  1.
         11   -1    0    0    0    0 -0.00000000000E+00 -0.00000000000E+00 -0.45593999997E+02  0.45594000000E+02  0.51100000000E-03 0. -1.
    9900012    2    1    2    0    0  0.18012138225E+02 -0.25146025090E+02 -0.26389500462E+02  0.50528862824E+02  0.30000009039E+02 0.  0.
        -12    1    1    2    0    0 -0.18012138225E+02  0.25146025090E+02  0.26389500462E+02  0.40659137176E+02  0.00000000000E+00 0.  1.
         11    1    3    3    0    0  0.17399739589E+02 -0.17204998332E+02 -0.19342427418E+02  0.31191223189E+02  0.51100000000E-03 0. -1.
        -11    1    3    3    0    0  0.43756675192E+01  0.36125224347E+01 -0.98743018090E+00  0.57594967838E+01  0.51100000000E-03 0.  1.
         12    1    3    3    0    0 -0.37632688833E+01 -0.11553549193E+02 -0.60596428640E+01  0.13578142851E+02  0.00000000000E+00 0. -1.
</event>
<event>
 7    1  0.6857839E-013  0.5052887E+02  0.7816164E-02  0.1300439E+00
        -11   -1    0    0    0    0  0.00000000000E+00  0.00000000000E+00  0.45593999997E+02  0.45594000000E+02  0.51100000000E-03 0.  1.
         11   -1    0    0    0    0 -0.00000000000E+00 -0.00000000000E+00 -0.45593999997E+02  0.45594000000E+02  0.51100000000E-03 0. -1.
    9900012    2    1    2    0    0 -0.27717292262E+02  0.22493913367E+02 -0.19466400208E+02  0.50528866143E+02  0.30000019130E+02 0.  0.
        -12    1    1    2    0    0  0.27717292262E+02 -0.22493913367E+02  0.19466400208E+02  0.40659133857E+02  0.00000000000E+00 0.  1.
         11    1    3    3    0    0 -0.85551385582E+01  0.10954193484E+02 -0.18905674930E+02  0.23465065427E+02  0.51100000000E-03 0. -1.
        -11    1    3    3    0    0 -0.27992430551E+01 -0.32998341735E+01  0.21081322751E+01  0.48134072345E+01  0.51100000000E-03 0.  1.
        -12    1    3    3    0    0 -0.16362910649E+02  0.14839554056E+02 -0.26688575530E+01  0.22250393482E+02  0.00000000000E+00 0.  1.
</event>
<event>
 7    1  0.6857839E-013  0.5052887E+02  0.7816164E-02  0.1300439E+00
        -11   -1    0    0    0    0  0.00000000000E+00  0.00000000000E+00  0.45593999997E+02  0.45594000000E+02  0.51100000000E-03 0. -1.
         11   -1    0    0    0    0 -0.00000000000E+00 -0.00000000000E+00 -0.45593999997E+02  0.45594000000E+02  0.51100000000E-03 0.  1.
    9900012    2    1    2    0    0  0.28421548153E+02 -0.17998286511E+02  0.22835111161E+02  0.50528867957E+02  0.30000024641E+02 0.  0.
        -12    1    1    2    0    0 -0.28421548153E+02  0.17998286511E+02 -0.22835111161E+02  0.40659132043E+02  0.00000000000E+00 0.  1.
         11    1    3    3    0    0  0.63482027650E+01  0.55658156770E+01  0.67796823987E+01  0.10827838020E+02  0.51100000000E-03 0. -1.
        -11    1    3    3    0    0  0.13653672294E+02 -0.12492435998E+02  0.17806486839E+02  0.25681797018E+02  0.51100000000E-03 0.  1.
        -12    1    3    3    0    0  0.84196730943E+01 -0.11071666191E+02 -0.17510580762E+01  0.14019232919E+02  0.00000000000E+00 0.  1.
</event>
<event>
 7    1  0.6857839E-013  0.5052888E+02  0.7816164E-02  0.1300439E+00
        -11   -1    0    0    0    0  0.00000000000E+00  0.00000000000E+00  0.45593999997E+02  0.45594000000E+02  0.51100000000E-03 0. -1.
         11   -1    0    0    0    0 -0.00000000000E+00 -0.00000000000E+00 -0.45593999997E+02  0.45594000000E+02  0.51100000000E-03 0.  1.
    9900012    2    1    2    0    0  0.39110277509E+02  0.14318871209E+01  0.11022704508E+02  0.50528878978E+02  0.30000058142E+02 0.  0.
        -12    1    1    2    0    0 -0.39110277509E+02 -0.14318871209E+01 -0.11022704508E+02  0.40659121022E+02  0.00000000000E+00 0.  1.
         11    1    3    3    0    0  0.38121367328E+02  0.72673473758E+00  0.14453199376E+02  0.40775749690E+02  0.51100000000E-03 0. -1.
        -11    1    3    3    0    0 -0.25528369345E+01 -0.14609010638E+01  0.15047939056E+01  0.33038785226E+01  0.51100000000E-03 0.  1.
        -12    1    3    3    0    0  0.35417471162E+01  0.21660534471E+01 -0.49352887727E+01  0.64492507659E+01  0.00000000000E+00 0.  1.
</event>
<event>
 7    1  0.6857839E-013  0.5052887E+02  0.7816164E-02  0.1300439E+00
        -11   -1    0    0    0    0  0.00000000000E+00  0.00000000000E+00  0.45593999997E+02  0.45594000000E+02  0.51100000000E-03 0.  1.
         11   -1    0    0    0    0 -0.00000000000E+00 -0.00000000000E+00 -0.45593999997E+02  0.45594000000E+02  0.51100000000E-03 0. -1.
    9900012    2    1    2    0    0 -0.84656070861E+01 -0.36817083225E+02 -0.15033333560E+02  0.50528865252E+02  0.30000016420E+02 0.  0.
        -12    1    1    2    0    0  0.84656070861E+01  0.36817083225E+02  0.15033333560E+02  0.40659134748E+02  0.00000000000E+00 0.  1.
         11    1    3    3    0    0  0.27199988540E+01 -0.70626813944E+00 -0.26026616347E+01  0.38302814905E+01  0.51100000000E-03 0. -1.
        -11    1    3    3    0    0  0.89029093550E+00 -0.47664738480E+01 -0.12177659822E+02  0.13107527986E+02  0.51100000000E-03 0.  1.
        -12    1    3    3    0    0 -0.12075896876E+02 -0.31344341238E+02 -0.25301210243E+00  0.33591055775E+02  0.00000000000E+00 0.  1.
</event>
<event>
 7    1  0.6857839E-013  0.5052885E+02  0.7816164E-02  0.1300439E+00
        -11   -1    0    0    0    0  0.00000000000E+00  0.00000000000E+00  0.45593999997E+02  0.45594000000E+02  0.51100000000E-03 0.  1.
         11   -1    0    0    0    0 -0.00000000000E+00 -0.00000000000E+00 -0.45593999997E+02  0.45594000000E+02  0.51100000000E-03 0. -1.
    9900012    2    1    2    0    0 -0.31013827851E+02  0.68110171970E+01 -0.25395248586E+02  0.50528854362E+02  0.29999983320E+02 0.  0.
        -12    1    1    2    0    0  0.31013827851E+02 -0.68110171970E+01  0.25395248586E+02  0.40659145638E+02  0.00000000000E+00 0.  1.
         11    1    3    3    0    0 -0.11698743271E+01 -0.45861520019E+01 -0.10627129254E+02  0.11633454886E+02  0.51100000000E-03 0. -1.
        -11    1    3    3    0    0 -0.97569746628E+01  0.12509875401E+02 -0.64959995675E+01  0.17143323708E+02  0.51100000000E-03 0.  1.
         12    1    3    3    0    0 -0.20086978861E+02 -0.11127062018E+01 -0.82721197641E+01  0.21752075769E+02  0.00000000000E+00 0. -1.
</event>
<event>
 7    1  0.6857839E-013  0.5052886E+02  0.7816164E-02  0.1300439E+00
        -11   -1    0    0    0    0  0.00000000000E+00  0.00000000000E+00  0.45593999997E+02  0.45594000000E+02  0.51100000000E-03 0.  1.
         11   -1    0    0    0    0 -0.00000000000E+00 -0.00000000000E+00 -0.45593999997E+02  0.45594000000E+02  0.51100000000E-03 0. -1.
    9900012    2    1    2    0    0 -0.29681837249E+02 -0.27403605861E+02 -0.46039983964E+01  0.50528857389E+02  0.29999992518E+02 0.  0.
        -12    1    1    2    0    0  0.29681837249E+02  0.27403605861E+02  0.46039983964E+01  0.40659142611E+02  0.00000000000E+00 0.  1.
         11    1    3    3    0    0 -0.40861289241E+01  0.30209071775E-01  0.23842812112E+01  0.47309786860E+01  0.51100000000E-03 0. -1.
        -11    1    3    3    0    0 -0.23721380332E+02 -0.31987753162E+02 -0.39678016497E+01  0.40020790689E+02  0.51100000000E-03 0.  1.
         12    1    3    3    0    0 -0.18743279935E+01  0.45539382293E+01 -0.30204779579E+01  0.57770880137E+01  0.00000000000E+00 0. -1.
</event>
<event>
 7    1  0.6857839E-013  0.5052884E+02  0.7816164E-02  0.1300439E+00
        -11   -1    0    0    0    0  0.00000000000E+00  0.00000000000E+00  0.45593999997E+02  0.45594000000E+02  0.51100000000E-03 0.  1.
         11   -1    0    0    0    0 -0.00000000000E+00 -0.00000000000E+00 -0.45593999997E+02  0.45594000000E+02  0.51100000000E-03 0. -1.
    9900012    2    1    2    0    0  0.14747706659E+02  0.25126001021E+02 -0.28361173739E+02  0.50528844145E+02  0.29999952262E+02 0.  0.
        -12    1    1    2    0    0 -0.14747706659E+02 -0.25126001021E+02  0.28361173739E+02  0.40659155855E+02  0.00000000000E+00 0.  1.
         11    1    3    3    0    0  0.19396716516E+01 -0.53152165884E+00  0.94980237849E+00  0.22241776478E+01  0.51100000000E-03 0. -1.
        -11    1    3    3    0    0  0.94734756754E+01 -0.26906506485E+01 -0.78100319445E+01  0.12569126522E+02  0.51100000000E-03 0.  1.
         12    1    3    3    0    0  0.33345593320E+01  0.28348173328E+02 -0.21500944173E+02  0.35735539975E+02  0.00000000000E+00 0. -1.
</event>
<event>
 7    1  0.6857839E-013  0.5052887E+02  0.7816164E-02  0.1300439E+00
        -11   -1    0    0    0    0  0.00000000000E+00  0.00000000000E+00  0.45593999997E+02  0.45594000000E+02  0.51100000000E-03 0.  1.
         11   -1    0    0    0    0 -0.00000000000E+00 -0.00000000000E+00 -0.45593999997E+02  0.45594000000E+02  0.51100000000E-03 0. -1.
    9900012    2    1    2    0    0 -0.21972903520E+02  0.72344975403E+01 -0.33436786698E+02  0.50528866359E+02  0.30000019784E+02 0.  0.
        -12    1    1    2    0    0  0.21972903520E+02 -0.72344975403E+01  0.33436786698E+02  0.40659133641E+02  0.00000000000E+00 0.  1.
         11    1    3    3    0    0 -0.59011251011E+00 -0.39641133983E+01  0.88164563111E+00  0.41036236534E+01  0.51100000000E-03 0. -1.
        -11    1    3    3    0    0 -0.24395472704E+02  0.10304114380E+02 -0.24358439941E+02  0.35981209794E+02  0.51100000000E-03 0.  1.
         12    1    3    3    0    0  0.30126816943E+01  0.89449655877E+00 -0.99599923885E+01  0.10444032912E+02  0.00000000000E+00 0. -1.
</event>
<event>
 7    1  0.6857839E-013  0.5052887E+02  0.7816164E-02  0.1300439E+00
        -11   -1    0    0    0    0  0.00000000000E+00  0.00000000000E+00  0.45593999997E+02  0.45594000000E+02  0.51100000000E-03 0. -1.
         11   -1    0    0    0    0 -0.00000000000E+00 -0.00000000000E+00 -0.45593999997E+02  0.45594000000E+02  0.51100000000E-03 0.  1.
    9900012    2    1    2    0    0  0.10121354442E+02 -0.85280330500E+01  0.38444712752E+02  0.50528866930E+02  0.30000021520E+02 0.  0.
        -12    1    1    2    0    0 -0.10121354442E+02  0.85280330500E+01 -0.38444712752E+02  0.40659133070E+02  0.00000000000E+00 0.  1.
         11    1    3    3    0    0  0.26991377272E+01  0.45652489640E+00  0.24679989561E+02  0.24831343992E+02  0.51100000000E-03 0. -1.
        -11    1    3    3    0    0 -0.19892721690E+01 -0.92461242508E+01  0.13235756131E+02  0.16267552307E+02  0.51100000000E-03 0.  1.
         12    1    3    3    0    0  0.94114888842E+01  0.26156630444E+00  0.52896705911E+00  0.94299706308E+01  0.00000000000E+00 0. -1.
</event>
<event>
 7    1  0.6857839E-013  0.5052886E+02  0.7816164E-02  0.1300439E+00
        -11   -1    0    0    0    0  0.00000000000E+00  0.00000000000E+00  0.45593999997E+02  0.45594000000E+02  0.51100000000E-03 0.  1.
         11   -1    0    0    0    0 -0.00000000000E+00 -0.00000000000E+00 -0.45593999997E+02  0.45594000000E+02  0.51100000000E-03 0. -1.
    9900012    2    1    2    0    0  0.15223488269E+01 -0.21236230896E+02 -0.34639152560E+02  0.50528856641E+02  0.29999990247E+02 0.  0.
        -12    1    1    2    0    0 -0.15223488269E+01  0.21236230896E+02  0.34639152560E+02  0.40659143359E+02  0.00000000000E+00 0.  1.
         11    1    3    3    0    0  0.27567633981E+00 -0.19349276074E+02 -0.24305529383E+02  0.31068138677E+02  0.51100000000E-03 0. -1.
        -11    1    3    3    0    0  0.62202367524E+01 -0.10346749119E+01 -0.12475766728E+02  0.13978792979E+02  0.51100000000E-03 0.  1.
        -12    1    3    3    0    0 -0.49735642653E+01 -0.85227991022E+00  0.21421435516E+01  0.54819249851E+01  0.00000000000E+00 0.  1.
</event>
<event>
 7    1  0.6857839E-013  0.5052885E+02  0.7816164E-02  0.1300439E+00
        -11   -1    0    0    0    0  0.00000000000E+00  0.00000000000E+00  0.45593999997E+02  0.45594000000E+02  0.51100000000E-03 0. -1.
         11   -1    0    0    0    0 -0.00000000000E+00 -0.00000000000E+00 -0.45593999997E+02  0.45594000000E+02  0.51100000000E-03 0.  1.
    9900012    2    1    2    0    0 -0.11467166681E+02  0.19345013401E+00  0.39008118594E+02  0.50528847883E+02  0.29999963626E+02 0.  0.
        -12    1    1    2    0    0  0.11467166681E+02 -0.19345013401E+00 -0.39008118594E+02  0.40659152117E+02  0.00000000000E+00 0.  1.
         11    1    3    3    0    0  0.55356925356E+01  0.92145737068E+00  0.77385640617E+01  0.95592023481E+01  0.51100000000E-03 0. -1.
        -11    1    3    3    0    0 -0.12837971260E+02 -0.96916818731E+01  0.23087216852E+02  0.28138261955E+02  0.51100000000E-03 0.  1.
         12    1    3    3    0    0 -0.41648879564E+01  0.89636746364E+01  0.81823376796E+01  0.12831383580E+02  0.00000000000E+00 0. -1.
</event>
<event>
 7    1  0.6857839E-013  0.5052886E+02  0.7816164E-02  0.1300439E+00
        -11   -1    0    0    0    0  0.00000000000E+00  0.00000000000E+00  0.45593999997E+02  0.45594000000E+02  0.51100000000E-03 0.  1.
         11   -1    0    0    0    0 -0.00000000000E+00 -0.00000000000E+00 -0.45593999997E+02  0.45594000000E+02  0.51100000000E-03 0. -1.
    9900012    2    1    2    0    0  0.14585254976E+02 -0.30721564873E+02 -0.22285008819E+02  0.50528857990E+02  0.29999994345E+02 0.  0.
        -12    1    1    2    0    0 -0.14585254976E+02  0.30721564873E+02  0.22285008819E+02  0.40659142010E+02  0.00000000000E+00 0.  1.
         11    1    3    3    0    0  0.11792013383E+02 -0.15572035843E+02 -0.63532542909E+01  0.20540295039E+02  0.51100000000E-03 0. -1.
        -11    1    3    3    0    0 -0.43449855061E+01 -0.52312822935E+01  0.30183341758E+01  0.74401313793E+01  0.51100000000E-03 0.  1.
        -12    1    3    3    0    0  0.71382270990E+01 -0.99182467357E+01 -0.18950088704E+02  0.22548431571E+02  0.00000000000E+00 0.  1.
</event>
<event>
 7    1  0.6857839E-013  0.5052886E+02  0.7816164E-02  0.1300439E+00
        -11   -1    0    0    0    0  0.00000000000E+00  0.00000000000E+00  0.45593999997E+02  0.45594000000E+02  0.51100000000E-03 0.  1.
         11   -1    0    0    0    0 -0.00000000000E+00 -0.00000000000E+00 -0.45593999997E+02  0.45594000000E+02  0.51100000000E-03 0. -1.
    9900012    2    1    2    0    0  0.13046769021E+02  0.13033046941E+02 -0.36236541671E+02  0.50528862691E+02  0.30000008634E+02 0.  0.
        -12    1    1    2    0    0 -0.13046769021E+02 -0.13033046941E+02  0.36236541671E+02  0.40659137309E+02  0.00000000000E+00 0.  1.
         11    1    3    3    0    0 -0.60154742059E+01  0.49413735543E+01 -0.17874946202E+01  0.79873800337E+01  0.51100000000E-03 0.  1.
        -11    1    3    3    0    0 -0.15125176786E+01  0.35417301739E+01 -0.62058145723E+01  0.73036769588E+01  0.51100000000E-03 0. -1.
        -12    1    3    3    0    0  0.20574760905E+02  0.45499432129E+01 -0.28243232479E+02  0.35237805698E+02  0.00000000000E+00 0.  1.
</event>
<event>
 7    1  0.6857839E-013  0.5052892E+02  0.7816164E-02  0.1300439E+00
        -11   -1    0    0    0    0  0.00000000000E+00  0.00000000000E+00  0.45593999997E+02  0.45594000000E+02  0.51100000000E-03 0.  1.
         11   -1    0    0    0    0 -0.00000000000E+00 -0.00000000000E+00 -0.45593999997E+02  0.45594000000E+02  0.51100000000E-03 0. -1.
    9900012    2    1    2    0    0 -0.17364250443E+02  0.15695707172E+02 -0.33245875808E+02  0.50528921366E+02  0.30000186985E+02 0.  0.
        -12    1    1    2    0    0  0.17364250443E+02 -0.15695707172E+02  0.33245875808E+02  0.40659078634E+02  0.00000000000E+00 0.  1.
         11    1    3    3    0    0 -0.10010513745E+01 -0.32795692630E+01 -0.11348466452E-01  0.34289659453E+01  0.51100000000E-03 0. -1.
        -11    1    3    3    0    0  0.48943063483E+01  0.79435593211E+01 -0.10954331743E+02  0.14389293016E+02  0.51100000000E-03 0.  1.
         12    1    3    3    0    0 -0.21257505417E+02  0.11031717114E+02 -0.22280195599E+02  0.32710662405E+02  0.00000000000E+00 0. -1.
</event>
<event>
 7    1  0.6857839E-013  0.5052887E+02  0.7816164E-02  0.1300439E+00
        -11   -1    0    0    0    0  0.00000000000E+00  0.00000000000E+00  0.45593999997E+02  0.45594000000E+02  0.51100000000E-03 0.  1.
         11   -1    0    0    0    0 -0.00000000000E+00 -0.00000000000E+00 -0.45593999997E+02  0.45594000000E+02  0.51100000000E-03 0. -1.
    9900012    2    1    2    0    0 -0.28495047430E+02 -0.28064412253E+02 -0.73202402012E+01  0.50528869663E+02  0.30000029828E+02 0.  0.
        -12    1    1    2    0    0  0.28495047430E+02  0.28064412253E+02  0.73202402012E+01  0.40659130337E+02  0.00000000000E+00 0.  1.
         11    1    3    3    0    0 -0.98850326133E+01 -0.25549522007E+02 -0.38484771449E+01  0.27664105283E+02  0.51100000000E-03 0. -1.
        -11    1    3    3    0    0  0.41738844067E+00 -0.30534190114E+01  0.11281789267E+01  0.32818239931E+01  0.51100000000E-03 0.  1.
        -12    1    3    3    0    0 -0.19027403257E+02  0.53852876490E+00 -0.45999419829E+01  0.19582940387E+02  0.00000000000E+00 0.  1.
</event>
<event>
 7    1  0.6857839E-013  0.5052885E+02  0.7816164E-02  0.1300439E+00
        -11   -1    0    0    0    0  0.00000000000E+00  0.00000000000E+00  0.45593999997E+02  0.45594000000E+02  0.51100000000E-03 0.  1.
         11   -1    0    0    0    0 -0.00000000000E+00 -0.00000000000E+00 -0.45593999997E+02  0.45594000000E+02  0.51100000000E-03 0. -1.
    9900012    2    1    2    0    0  0.31898517466E+01 -0.33051995486E+02 -0.23463957938E+02  0.50528845042E+02  0.29999954991E+02 0.  0.
        -12    1    1    2    0    0 -0.31898517466E+01  0.33051995486E+02  0.23463957938E+02  0.40659154958E+02  0.00000000000E+00 0.  1.
         11    1    3    3    0    0  0.13911246203E+00 -0.14351349051E+02 -0.44801346441E+01  0.15035031711E+02  0.51100000000E-03 0. -1.
        -11    1    3    3    0    0  0.48752344114E+01 -0.18729428321E+02 -0.23605443634E+02  0.30525012124E+02  0.51100000000E-03 0.  1.
         12    1    3    3    0    0 -0.18244951269E+01  0.28781886591E-01  0.46216203398E+01  0.49688012066E+01  0.00000000000E+00 0. -1.
</event>
<event>
 7    1  0.6857839E-013  0.5052887E+02  0.7816164E-02  0.1300439E+00
        -11   -1    0    0    0    0  0.00000000000E+00  0.00000000000E+00  0.45593999997E+02  0.45594000000E+02  0.51100000000E-03 0.  1.
         11   -1    0    0    0    0 -0.00000000000E+00 -0.00000000000E+00 -0.45593999997E+02  0.45594000000E+02  0.51100000000E-03 0. -1.
    9900012    2    1    2    0    0  0.26582608068E+01 -0.19955118937E+02 -0.35325516413E+02  0.50528865329E+02  0.30000016655E+02 0.  0.
        -12    1    1    2    0    0 -0.26582608068E+01  0.19955118937E+02  0.35325516413E+02  0.40659134671E+02  0.00000000000E+00 0.  1.
         11    1    3    3    0    0  0.57035250186E+01  0.10937326476E+01 -0.80236062284E+01  0.99047819719E+01  0.51100000000E-03 0. -1.
        -11    1    3    3    0    0 -0.72638936333E+01  0.79728241980E+00 -0.10266744565E+02  0.12601819480E+02  0.51100000000E-03 0.  1.
         12    1    3    3    0    0  0.42186294215E+01 -0.21846134004E+02 -0.17035165620E+02  0.28022263878E+02  0.00000000000E+00 0. -1.
</event>
<event>
 7    1  0.6857839E-013  0.5052887E+02  0.7816164E-02  0.1300439E+00
        -11   -1    0    0    0    0  0.00000000000E+00  0.00000000000E+00  0.45593999997E+02  0.45594000000E+02  0.51100000000E-03 0.  1.
         11   -1    0    0    0    0 -0.00000000000E+00 -0.00000000000E+00 -0.45593999997E+02  0.45594000000E+02  0.51100000000E-03 0. -1.
    9900012    2    1    2    0    0  0.21389522293E+02  0.34578202240E+02 -0.28489620336E-01  0.50528873770E+02  0.30000042312E+02 0.  0.
        -12    1    1    2    0    0 -0.21389522293E+02 -0.34578202240E+02  0.28489620336E-01  0.40659126230E+02  0.00000000000E+00 0.  1.
         11    1    3    3    0    0 -0.88858746105E+00  0.53899211266E+01 -0.11152082466E+01  0.55753499551E+01  0.51100000000E-03 0. -1.
        -11    1    3    3    0    0 -0.45853631987E+00  0.20105015947E+02 -0.22806667685E+01  0.20239154206E+02  0.51100000000E-03 0.  1.
         12    1    3    3    0    0  0.22736646074E+02  0.90832651660E+01  0.33673853948E+01  0.24714369609E+02  0.00000000000E+00 0. -1.
</event>
<event>
 7    1  0.6857839E-013  0.5052886E+02  0.7816164E-02  0.1300439E+00
        -11   -1    0    0    0    0  0.00000000000E+00  0.00000000000E+00  0.45593999997E+02  0.45594000000E+02  0.51100000000E-03 0. -1.
         11   -1    0    0    0    0 -0.00000000000E+00 -0.00000000000E+00 -0.45593999997E+02  0.45594000000E+02  0.51100000000E-03 0.  1.
    9900012    2    1    2    0    0 -0.16179958441E+02 -0.29036106114E+02  0.23415358166E+02  0.50528861895E+02  0.30000006215E+02 0.  0.
        -12    1    1    2    0    0  0.16179958441E+02  0.29036106114E+02 -0.23415358166E+02  0.40659138105E+02  0.00000000000E+00 0.  1.
         11    1    3    3    0    0  0.14706189593E+01 -0.25220126129E+01  0.12489042895E+02  0.12825734304E+02  0.51100000000E-03 0. -1.
        -11    1    3    3    0    0 -0.22545307997E+01  0.20862139642E+01 -0.79333833680E+00  0.31724728224E+01  0.51100000000E-03 0.  1.
        -12    1    3    3    0    0 -0.15396046600E+02 -0.28600307465E+02  0.11719653607E+02  0.34530654768E+02  0.00000000000E+00 0.  1.
</event>
<event>
 7    1  0.6857839E-013  0.5052886E+02  0.7816164E-02  0.1300439E+00
        -11   -1    0    0    0    0  0.00000000000E+00  0.00000000000E+00  0.45593999997E+02  0.45594000000E+02  0.51100000000E-03 0.  1.
         11   -1    0    0    0    0 -0.00000000000E+00 -0.00000000000E+00 -0.45593999997E+02  0.45594000000E+02  0.51100000000E-03 0. -1.
    9900012    2    1    2    0    0 -0.28067144298E+02 -0.17450715754E+02 -0.23682769335E+02  0.50528860403E+02  0.30000001682E+02 0.  0.
        -12    1    1    2    0    0  0.28067144298E+02  0.17450715754E+02  0.23682769335E+02  0.40659139597E+02  0.00000000000E+00 0.  1.
         11    1    3    3    0    0 -0.74332164959E+01 -0.10162323902E+02 -0.87554967932E+01  0.15335718402E+02  0.51100000000E-03 0. -1.
        -11    1    3    3    0    0 -0.21647248352E+02 -0.49517496905E+01 -0.19763404127E+02  0.29727349851E+02  0.51100000000E-03 0.  1.
        -12    1    3    3    0    0  0.10133205503E+01 -0.23366421616E+01  0.48361315844E+01  0.54657921503E+01  0.00000000000E+00 0.  1.
</event>
<event>
 7    1  0.6857839E-013  0.5052883E+02  0.7816164E-02  0.1300439E+00
        -11   -1    0    0    0    0  0.00000000000E+00  0.00000000000E+00  0.45593999997E+02  0.45594000000E+02  0.51100000000E-03 0.  1.
         11   -1    0    0    0    0 -0.00000000000E+00 -0.00000000000E+00 -0.45593999997E+02  0.45594000000E+02  0.51100000000E-03 0. -1.
    9900012    2    1    2    0    0  0.14598410989E+00  0.14902372378E+02 -0.37829429319E+02  0.50528834534E+02  0.29999923048E+02 0.  0.
        -12    1    1    2    0    0 -0.14598410989E+00 -0.14902372378E+02  0.37829429319E+02  0.40659165466E+02  0.00000000000E+00 0.  1.
         11    1    3    3    0    0 -0.70601217898E+01  0.17841027420E+02 -0.23932350922E+02  0.30674174806E+02  0.51100000000E-03 0. -1.
        -11    1    3    3    0    0  0.28313328064E+01  0.41879814766E+01 -0.22918800542E+01  0.55505268897E+01  0.51100000000E-03 0.  1.
        -12    1    3    3    0    0  0.43747730933E+01 -0.71266365188E+01 -0.11605198342E+02  0.14304132838E+02  0.00000000000E+00 0.  1.
</event>
<event>
 7    1  0.6857839E-013  0.5052887E+02  0.7816164E-02  0.1300439E+00
        -11   -1    0    0    0    0  0.00000000000E+00  0.00000000000E+00  0.45593999997E+02  0.45594000000E+02  0.51100000000E-03 0.  1.
         11   -1    0    0    0    0 -0.00000000000E+00 -0.00000000000E+00 -0.45593999997E+02  0.45594000000E+02  0.51100000000E-03 0. -1.
    9900012    2    1    2    0    0 -0.35388454866E+02 -0.58811891129E+01  0.19137234051E+02  0.50528870025E+02  0.30000030928E+02 0.  0.
        -12    1    1    2    0    0  0.35388454866E+02  0.58811891129E+01 -0.19137234051E+02  0.40659129975E+02  0.00000000000E+00 0.  1.
         11    1    3    3    0    0 -0.13295126709E+02 -0.87590539311E+01 -0.44579815019E+00  0.15927339898E+02  0.51100000000E-03 0. -1.
        -11    1    3    3    0    0 -0.18688378321E+02 -0.46363325847E+01  0.91992717563E+01  0.21339579781E+02  0.51100000000E-03 0.  1.
        -12    1    3    3    0    0 -0.34049498360E+01  0.75141974029E+01  0.10383760445E+02  0.13261950346E+02  0.00000000000E+00 0.  1.
</event>
<event>
 7    1  0.6857839E-013  0.5052886E+02  0.7816164E-02  0.1300439E+00
        -11   -1    0    0    0    0  0.00000000000E+00  0.00000000000E+00  0.45593999997E+02  0.45594000000E+02  0.51100000000E-03 0.  1.
         11   -1    0    0    0    0 -0.00000000000E+00 -0.00000000000E+00 -0.45593999997E+02  0.45594000000E+02  0.51100000000E-03 0. -1.
    9900012    2    1    2    0    0 -0.28101399390E+02 -0.23172477340E+02 -0.18069688329E+02  0.50528856009E+02  0.29999988326E+02 0.  0.
        -12    1    1    2    0    0  0.28101399390E+02  0.23172477340E+02  0.18069688329E+02  0.40659143991E+02  0.00000000000E+00 0.  1.
         11    1    3    3    0    0 -0.27402542688E+01  0.92185489820E+00 -0.98423345114E+01  0.10258184967E+02  0.51100000000E-03 0. -1.
        -11    1    3    3    0    0  0.11924783584E+01 -0.25590641579E+01 -0.52394865074E+01  0.59517252223E+01  0.51100000000E-03 0.  1.
         12    1    3    3    0    0 -0.26553623480E+02 -0.21535268080E+02 -0.29878673106E+01  0.34318945821E+02  0.00000000000E+00 0. -1.
</event>
<event>
 7    1  0.6857839E-013  0.5052884E+02  0.7816164E-02  0.1300439E+00
        -11   -1    0    0    0    0  0.00000000000E+00  0.00000000000E+00  0.45593999997E+02  0.45594000000E+02  0.51100000000E-03 0.  1.
         11   -1    0    0    0    0 -0.00000000000E+00 -0.00000000000E+00 -0.45593999997E+02  0.45594000000E+02  0.51100000000E-03 0. -1.
    9900012    2    1    2    0    0 -0.19712465181E+01  0.20177591617E+02 -0.35244100148E+02  0.50528836069E+02  0.29999927715E+02 0.  0.
        -12    1    1    2    0    0  0.19712465181E+01 -0.20177591617E+02  0.35244100148E+02  0.40659163931E+02  0.00000000000E+00 0.  1.
         11    1    3    3    0    0 -0.33339890920E+01 -0.27773324206E+01 -0.17245588649E+01  0.46693856320E+01  0.51100000000E-03 0. -1.
        -11    1    3    3    0    0  0.67590861239E+00  0.10639471887E+02 -0.56918791806E+00  0.10676103673E+02  0.51100000000E-03 0.  1.
         12    1    3    3    0    0  0.68683396158E+00  0.12315452150E+02 -0.32950353366E+02  0.35183346763E+02  0.00000000000E+00 0. -1.
</event>
<event>
 7    1  0.6857839E-013  0.5052886E+02  0.7816164E-02  0.1300439E+00
        -11   -1    0    0    0    0  0.00000000000E+00  0.00000000000E+00  0.45593999997E+02  0.45594000000E+02  0.51100000000E-03 0. -1.
         11   -1    0    0    0    0 -0.00000000000E+00 -0.00000000000E+00 -0.45593999997E+02  0.45594000000E+02  0.51100000000E-03 0.  1.
    9900012    2    1    2    0    0 -0.70838635891E+01 -0.36598475879E+02  0.16233795200E+02  0.50528859987E+02  0.30000000416E+02 0.  0.
        -12    1    1    2    0    0  0.70838635891E+01  0.36598475879E+02 -0.16233795200E+02  0.40659140013E+02  0.00000000000E+00 0.  1.
         11    1    3    3    0    0  0.32025590005E+01 -0.63481544336E+00  0.78990030823E+00  0.33590649825E+01  0.51100000000E-03 0.  1.
        -11    1    3    3    0    0 -0.19701525445E+01 -0.24429414604E+02 -0.20864957778E+01  0.24597383272E+02  0.51100000000E-03 0. -1.
         12    1    3    3    0    0 -0.83162700451E+01 -0.11534245831E+02  0.17530390670E+02  0.22572411732E+02  0.00000000000E+00 0. -1.
</event>
<event>
 7    1  0.6857839E-013  0.5052886E+02  0.7816164E-02  0.1300439E+00
        -11   -1    0    0    0    0  0.00000000000E+00  0.00000000000E+00  0.45593999997E+02  0.45594000000E+02  0.51100000000E-03 0.  1.
         11   -1    0    0    0    0 -0.00000000000E+00 -0.00000000000E+00 -0.45593999997E+02  0.45594000000E+02  0.51100000000E-03 0. -1.
    9900012    2    1    2    0    0  0.22322997818E+02 -0.10428422883E+02 -0.32343433223E+02  0.50528857018E+02  0.29999991392E+02 0.  0.
        -12    1    1    2    0    0 -0.22322997818E+02  0.10428422883E+02  0.32343433223E+02  0.40659142982E+02  0.00000000000E+00 0.  1.
         11    1    3    3    0    0  0.55261041437E+01 -0.32621651978E+01 -0.18071112300E+02  0.19176669388E+02  0.51100000000E-03 0. -1.
        -11    1    3    3    0    0 -0.18787995394E+01 -0.88668830650E+01 -0.34338764924E+01  0.96924202872E+01  0.51100000000E-03 0.  1.
        -12    1    3    3    0    0  0.18675693213E+02  0.17006253799E+01 -0.10838444431E+02  0.21659767343E+02  0.00000000000E+00 0.  1.
</event>
<event>
 7    1  0.6857839E-013  0.5052886E+02  0.7816164E-02  0.1300439E+00
        -11   -1    0    0    0    0  0.00000000000E+00  0.00000000000E+00  0.45593999997E+02  0.45594000000E+02  0.51100000000E-03 0. -1.
         11   -1    0    0    0    0 -0.00000000000E+00 -0.00000000000E+00 -0.45593999997E+02  0.45594000000E+02  0.51100000000E-03 0.  1.
    9900012    2    1    2    0    0  0.39559971987E+02  0.75891562382E+01 -0.55298541142E+01  0.50528856348E+02  0.29999989354E+02 0.  0.
        -12    1    1    2    0    0 -0.39559971987E+02 -0.75891562382E+01  0.55298541142E+01  0.40659143652E+02  0.00000000000E+00 0.  1.
         11    1    3    3    0    0  0.16404753525E+02  0.71000525010E+01 -0.11719076246E+02  0.21374363898E+02  0.51100000000E-03 0. -1.
        -11    1    3    3    0    0 -0.14398613875E+01  0.13547613878E+01 -0.23808591705E+01  0.30946841331E+01  0.51100000000E-03 0.  1.
         12    1    3    3    0    0  0.24595079849E+02 -0.86565765060E+00  0.85700813021E+01  0.26059808316E+02  0.00000000000E+00 0. -1.
</event>
<event>
 7    1  0.6857839E-013  0.5052885E+02  0.7816164E-02  0.1300439E+00
        -11   -1    0    0    0    0  0.00000000000E+00  0.00000000000E+00  0.45593999997E+02  0.45594000000E+02  0.51100000000E-03 0.  1.
         11   -1    0    0    0    0 -0.00000000000E+00 -0.00000000000E+00 -0.45593999997E+02  0.45594000000E+02  0.51100000000E-03 0. -1.
    9900012    2    1    2    0    0 -0.19182746407E+02  0.25099821070E+02 -0.25596631058E+02  0.50528852210E+02  0.29999976779E+02 0.  0.
        -12    1    1    2    0    0  0.19182746407E+02 -0.25099821070E+02  0.25596631058E+02  0.40659147790E+02  0.00000000000E+00 0.  1.
         11    1    3    3    0    0 -0.53372895824E+01  0.96293900588E+01  0.27714611534E+00  0.11013111423E+02  0.51100000000E-03 0.  1.
        -11    1    3    3    0    0  0.37030773457E+01  0.11186191432E+02 -0.10923798874E+02  0.16067764085E+02  0.51100000000E-03 0. -1.
         12    1    3    3    0    0 -0.17548534170E+02  0.42842395795E+01 -0.14949978299E+02  0.23447976703E+02  0.00000000000E+00 0. -1.
</event>
<event>
 7    1  0.6857839E-013  0.5052885E+02  0.7816164E-02  0.1300439E+00
        -11   -1    0    0    0    0  0.00000000000E+00  0.00000000000E+00  0.45593999997E+02  0.45594000000E+02  0.51100000000E-03 0.  1.
         11   -1    0    0    0    0 -0.00000000000E+00 -0.00000000000E+00 -0.45593999997E+02  0.45594000000E+02  0.51100000000E-03 0. -1.
    9900012    2    1    2    0    0  0.14848966551E+02 -0.55998286908E+01 -0.37434159339E+02  0.50528853742E+02  0.29999981434E+02 0.  0.
        -12    1    1    2    0    0 -0.14848966551E+02  0.55998286908E+01  0.37434159339E+02  0.40659146258E+02  0.00000000000E+00 0.  1.
         11    1    3    3    0    0  0.37002051791E+01 -0.44777190349E+01 -0.27371008106E-01  0.58088067239E+01  0.51100000000E-03 0.  1.
        -11    1    3    3    0    0  0.73615559702E+01 -0.51949187651E+00 -0.26897257028E+00  0.73847630035E+01  0.51100000000E-03 0. -1.
         12    1    3    3    0    0  0.37872054017E+01 -0.60261777945E+00 -0.37137815761E+02  0.37335284014E+02  0.00000000000E+00 0. -1.
</event>
<event>
 7    1  0.6857839E-013  0.5052887E+02  0.7816164E-02  0.1300439E+00
        -11   -1    0    0    0    0  0.00000000000E+00  0.00000000000E+00  0.45593999997E+02  0.45594000000E+02  0.51100000000E-03 0.  1.
         11   -1    0    0    0    0 -0.00000000000E+00 -0.00000000000E+00 -0.45593999997E+02  0.45594000000E+02  0.51100000000E-03 0. -1.
    9900012    2    1    2    0    0  0.28487803174E+02 -0.22275036936E+02 -0.18585829454E+02  0.50528865028E+02  0.30000015739E+02 0.  0.
        -12    1    1    2    0    0 -0.28487803174E+02  0.22275036936E+02  0.18585829454E+02  0.40659134972E+02  0.00000000000E+00 0.  1.
         11    1    3    3    0    0  0.66173674896E+01 -0.14312795422E+02 -0.10901540891E+02  0.19170009373E+02  0.51100000000E-03 0. -1.
        -11    1    3    3    0    0 -0.35958866751E+01 -0.24358171914E+01 -0.10351373642E+01  0.44648758094E+01  0.51100000000E-03 0.  1.
        -12    1    3    3    0    0  0.25466322359E+02 -0.55264243226E+01 -0.66491511995E+01  0.26893979846E+02  0.00000000000E+00 0.  1.
</event>
<event>
 7    1  0.6857839E-013  0.5052886E+02  0.7816164E-02  0.1300439E+00
        -11   -1    0    0    0    0  0.00000000000E+00  0.00000000000E+00  0.45593999997E+02  0.45594000000E+02  0.51100000000E-03 0. -1.
         11   -1    0    0    0    0 -0.00000000000E+00 -0.00000000000E+00 -0.45593999997E+02  0.45594000000E+02  0.51100000000E-03 0.  1.
    9900012    2    1    2    0    0 -0.28268079808E+01  0.34099344192E+02  0.21963828737E+02  0.50528857234E+02  0.29999992049E+02 0.  0.
        -12    1    1    2    0    0  0.28268079808E+01 -0.34099344192E+02 -0.21963828737E+02  0.40659142766E+02  0.00000000000E+00 0.  1.
         11    1    3    3    0    0  0.29343887018E+01  0.19564397802E+02  0.23037302618E+02  0.30365994312E+02  0.51100000000E-03 0. -1.
        -11    1    3    3    0    0  0.38312747016E+01  0.23461084429E+01  0.71598298057E+00  0.45492331832E+01  0.51100000000E-03 0.  1.
         12    1    3    3    0    0 -0.95924713842E+01  0.12188837947E+02 -0.17894568615E+01  0.15613629739E+02  0.00000000000E+00 0. -1.
</event>
<event>
 7    1  0.6857839E-013  0.5052885E+02  0.7816164E-02  0.1300439E+00
        -11   -1    0    0    0    0  0.00000000000E+00  0.00000000000E+00  0.45593999997E+02  0.45594000000E+02  0.51100000000E-03 0.  1.
         11   -1    0    0    0    0 -0.00000000000E+00 -0.00000000000E+00 -0.45593999997E+02  0.45594000000E+02  0.51100000000E-03 0. -1.
    9900012    2    1    2    0    0 -0.22841909335E+02  0.29261854697E+02 -0.16587870254E+02  0.50528850944E+02  0.29999972930E+02 0.  0.
        -12    1    1    2    0    0  0.22841909335E+02 -0.29261854697E+02  0.16587870254E+02  0.40659149056E+02  0.00000000000E+00 0.  1.
         11    1    3    3    0    0  0.27412043501E+01  0.64464095638E+01  0.53663492305E+00  0.70255515694E+01  0.51100000000E-03 0.  1.
        -11    1    3    3    0    0 -0.38418496464E+01 -0.32562979018E+01  0.82406989913E+00  0.51031731491E+01  0.51100000000E-03 0. -1.
        -12    1    3    3    0    0 -0.21741264038E+02  0.26071743035E+02 -0.17948575076E+02  0.38400126226E+02  0.00000000000E+00 0.  1.
</event>
<event>
 7    1  0.6857839E-013  0.5052888E+02  0.7816164E-02  0.1300439E+00
        -11   -1    0    0    0    0  0.00000000000E+00  0.00000000000E+00  0.45593999997E+02  0.45594000000E+02  0.51100000000E-03 0.  1.
         11   -1    0    0    0    0 -0.00000000000E+00 -0.00000000000E+00 -0.45593999997E+02  0.45594000000E+02  0.51100000000E-03 0. -1.
    9900012    2    1    2    0    0  0.49385683097E+01 -0.30105557302E+02 -0.26878064805E+02  0.50528875500E+02  0.30000047571E+02 0.  0.
        -12    1    1    2    0    0 -0.49385683097E+01  0.30105557302E+02  0.26878064805E+02  0.40659124500E+02  0.00000000000E+00 0.  1.
         11    1    3    3    0    0 -0.50162138504E+01 -0.47692966720E+01 -0.12514074292E+02  0.14300721932E+02  0.51100000000E-03 0. -1.
        -11    1    3    3    0    0  0.33910307734E+01  0.27039059616E+01 -0.86200391867E+00  0.44219054911E+01  0.51100000000E-03 0.  1.
         12    1    3    3    0    0  0.65637513867E+01 -0.28040166592E+02 -0.13501986595E+02  0.31806248077E+02  0.00000000000E+00 0. -1.
</event>
<event>
 7    1  0.6857839E-013  0.5052886E+02  0.7816164E-02  0.1300439E+00
        -11   -1    0    0    0    0  0.00000000000E+00  0.00000000000E+00  0.45593999997E+02  0.45594000000E+02  0.51100000000E-03 0.  1.
         11   -1    0    0    0    0 -0.00000000000E+00 -0.00000000000E+00 -0.45593999997E+02  0.45594000000E+02  0.51100000000E-03 0. -1.
    9900012    2    1    2    0    0  0.37341666182E+02 -0.57698085142E+01 -0.15015819971E+02  0.50528861139E+02  0.30000003917E+02 0.  0.
        -12    1    1    2    0    0 -0.37341666182E+02  0.57698085142E+01  0.15015819971E+02  0.40659138861E+02  0.00000000000E+00 0.  1.
         11    1    3    3    0    0  0.96277079915E+01 -0.11628970735E+02 -0.10105202565E+02  0.18167026193E+02  0.51100000000E-03 0. -1.
        -11    1    3    3    0    0  0.16899921274E+02 -0.90710117168E+00 -0.87336723375E+01  0.19044873440E+02  0.51100000000E-03 0.  1.
        -12    1    3    3    0    0  0.10814036917E+02  0.67662633929E+01  0.38230549315E+01  0.13316961506E+02  0.00000000000E+00 0.  1.
</event>
<event>
 7    1  0.6857839E-013  0.5052886E+02  0.7816164E-02  0.1300439E+00
        -11   -1    0    0    0    0  0.00000000000E+00  0.00000000000E+00  0.45593999997E+02  0.45594000000E+02  0.51100000000E-03 0.  1.
         11   -1    0    0    0    0 -0.00000000000E+00 -0.00000000000E+00 -0.45593999997E+02  0.45594000000E+02  0.51100000000E-03 0. -1.
    9900012    2    1    2    0    0 -0.31977097101E+02  0.20548118663E+02 -0.14436255389E+02  0.50528863398E+02  0.30000010785E+02 0.  0.
        -12    1    1    2    0    0  0.31977097101E+02 -0.20548118663E+02  0.14436255389E+02  0.40659136602E+02  0.00000000000E+00 0.  1.
         11    1    3    3    0    0 -0.15847567321E+02  0.85324065163E+01  0.33575236068E+01  0.18309022803E+02  0.51100000000E-03 0.  1.
        -11    1    3    3    0    0 -0.20615355750E+01 -0.44146543117E+01 -0.54697830738E+01  0.73251367738E+01  0.51100000000E-03 0. -1.
         12    1    3    3    0    0 -0.14067994205E+02  0.16430366458E+02 -0.12323995922E+02  0.24894703822E+02  0.00000000000E+00 0. -1.
</event>
<event>
 7    1  0.6857839E-013  0.5052887E+02  0.7816164E-02  0.1300439E+00
        -11   -1    0    0    0    0  0.00000000000E+00  0.00000000000E+00  0.45593999997E+02  0.45594000000E+02  0.51100000000E-03 0.  1.
         11   -1    0    0    0    0 -0.00000000000E+00 -0.00000000000E+00 -0.45593999997E+02  0.45594000000E+02  0.51100000000E-03 0. -1.
    9900012    2    1    2    0    0 -0.43052515751E+01  0.11909648262E+02 -0.38636642189E+02  0.50528867785E+02  0.30000024118E+02 0.  0.
        -12    1    1    2    0    0  0.43052515751E+01 -0.11909648262E+02  0.38636642189E+02  0.40659132215E+02  0.00000000000E+00 0.  1.
         11    1    3    3    0    0 -0.79029992728E+01  0.19014399137E+01 -0.29511816827E+02  0.30610785745E+02  0.51100000000E-03 0. -1.
        -11    1    3    3    0    0 -0.23357199464E+01 -0.14184512251E+01  0.15951618811E+01  0.31641955114E+01  0.51100000000E-03 0.  1.
        -12    1    3    3    0    0  0.59334676441E+01  0.11426659574E+02 -0.10719987244E+02  0.16753886528E+02  0.00000000000E+00 0.  1.
</event>
<event>
 7    1  0.6857839E-013  0.5052886E+02  0.7816164E-02  0.1300439E+00
        -11   -1    0    0    0    0  0.00000000000E+00  0.00000000000E+00  0.45593999997E+02  0.45594000000E+02  0.51100000000E-03 0.  1.
         11   -1    0    0    0    0 -0.00000000000E+00 -0.00000000000E+00 -0.45593999997E+02  0.45594000000E+02  0.51100000000E-03 0. -1.
    9900012    2    1    2    0    0  0.10411513540E+02  0.16939818667E+02 -0.35465596469E+02  0.50528860762E+02  0.30000002772E+02 0.  0.
        -12    1    1    2    0    0 -0.10411513540E+02 -0.16939818667E+02  0.35465596469E+02  0.40659139238E+02  0.00000000000E+00 0.  1.
         11    1    3    3    0    0  0.21462981492E+01  0.73456442098E+01 -0.36833915614E+02  0.37620505370E+02  0.51100000000E-03 0. -1.
        -11    1    3    3    0    0  0.62081623781E+00  0.18390826661E+01  0.33936469222E+00  0.19704838262E+01  0.51100000000E-03 0.  1.
         12    1    3    3    0    0  0.76443991534E+01  0.77550917916E+01  0.10289544528E+01  0.10937871565E+02  0.00000000000E+00 0. -1.
</event>
<event>
 7    1  0.6857839E-013  0.5052885E+02  0.7816164E-02  0.1300439E+00
        -11   -1    0    0    0    0  0.00000000000E+00  0.00000000000E+00  0.45593999997E+02  0.45594000000E+02  0.51100000000E-03 0.  1.
         11   -1    0    0    0    0 -0.00000000000E+00 -0.00000000000E+00 -0.45593999997E+02  0.45594000000E+02  0.51100000000E-03 0. -1.
    9900012    2    1    2    0    0  0.17520158070E+01 -0.14670321597E+02 -0.37879790548E+02  0.50528850635E+02  0.29999971990E+02 0.  0.
        -12    1    1    2    0    0 -0.17520158070E+01  0.14670321597E+02  0.37879790548E+02  0.40659149365E+02  0.00000000000E+00 0.  1.
         11    1    3    3    0    0  0.53767807995E+01  0.63402269789E+01 -0.88264109085E+01  0.12124923905E+02  0.51100000000E-03 0. -1.
        -11    1    3    3    0    0  0.37854351573E+01 -0.12166315160E+01 -0.43746875416E+01  0.59116497632E+01  0.51100000000E-03 0.  1.
        -12    1    3    3    0    0 -0.74102001498E+01 -0.19793917060E+02 -0.24678692098E+02  0.32492276967E+02  0.00000000000E+00 0.  1.
</event>
<event>
 7    1  0.6857839E-013  0.5052886E+02  0.7816164E-02  0.1300439E+00
        -11   -1    0    0    0    0  0.00000000000E+00  0.00000000000E+00  0.45593999997E+02  0.45594000000E+02  0.51100000000E-03 0.  1.
         11   -1    0    0    0    0 -0.00000000000E+00 -0.00000000000E+00 -0.45593999997E+02  0.45594000000E+02  0.51100000000E-03 0. -1.
    9900012    2    1    2    0    0 -0.24488107093E+02  0.23500699003E+02 -0.22387838547E+02  0.50528861329E+02  0.30000004497E+02 0.  0.
        -12    1    1    2    0    0  0.24488107093E+02 -0.23500699003E+02  0.22387838547E+02  0.40659138671E+02  0.00000000000E+00 0.  1.
         11    1    3    3    0    0  0.19915764548E+01  0.41986183983E+01 -0.52418024297E+01  0.70050885935E+01  0.51100000000E-03 0. -1.
        -11    1    3    3    0    0 -0.72021632667E+01 -0.16513234617E+01 -0.12718819604E+02  0.14709398264E+02  0.51100000000E-03 0.  1.
         12    1    3    3    0    0 -0.19277520281E+02  0.20953404067E+02 -0.44272165132E+01  0.28814374472E+02  0.00000000000E+00 0. -1.
</event>
<event>
 7    1  0.6857839E-013  0.5052885E+02  0.7816164E-02  0.1300439E+00
        -11   -1    0    0    0    0  0.00000000000E+00  0.00000000000E+00  0.45593999997E+02  0.45594000000E+02  0.51100000000E-03 0.  1.
         11   -1    0    0    0    0 -0.00000000000E+00 -0.00000000000E+00 -0.45593999997E+02  0.45594000000E+02  0.51100000000E-03 0. -1.
    9900012    2    1    2    0    0  0.47770072685E-01  0.23894351236E+02 -0.32897177074E+02  0.50528848971E+02  0.29999966932E+02 0.  0.
        -12    1    1    2    0    0 -0.47770072685E-01 -0.23894351236E+02  0.32897177074E+02  0.40659151029E+02  0.00000000000E+00 0.  1.
         11    1    3    3    0    0 -0.28657967774E+01  0.58611527260E+01 -0.23271880944E+00  0.65284041505E+01  0.51100000000E-03 0. -1.
        -11    1    3    3    0    0 -0.43884515547E+01 -0.41008200194E+01 -0.49114851652E+01  0.77587317693E+01  0.51100000000E-03 0.  1.
         12    1    3    3    0    0  0.73020184048E+01  0.22134018530E+02 -0.27752973099E+02  0.36241713051E+02  0.00000000000E+00 0. -1.
</event>
<event>
 7    1  0.6857839E-013  0.5052886E+02  0.7816164E-02  0.1300439E+00
        -11   -1    0    0    0    0  0.00000000000E+00  0.00000000000E+00  0.45593999997E+02  0.45594000000E+02  0.51100000000E-03 0. -1.
         11   -1    0    0    0    0 -0.00000000000E+00 -0.00000000000E+00 -0.45593999997E+02  0.45594000000E+02  0.51100000000E-03 0.  1.
    9900012    2    1    2    0    0 -0.53927975204E+01  0.11231412237E+02  0.38703210409E+02  0.50528863488E+02  0.30000011059E+02 0.  0.
        -12    1    1    2    0    0  0.53927975204E+01 -0.11231412237E+02 -0.38703210409E+02  0.40659136512E+02  0.00000000000E+00 0.  1.
         11    1    3    3    0    0 -0.20104275988E+01  0.16270752625E+02  0.22868865843E+02  0.28138305480E+02  0.51100000000E-03 0. -1.
        -11    1    3    3    0    0  0.40020659366E+01 -0.12389842202E+01 -0.34556528825E+00  0.42036923399E+01  0.51100000000E-03 0.  1.
         12    1    3    3    0    0 -0.73844358582E+01 -0.38003561676E+01  0.16179909854E+02  0.18186865668E+02  0.00000000000E+00 0. -1.
</event>
<event>
 7    1  0.6857839E-013  0.5052885E+02  0.7816164E-02  0.1300439E+00
        -11   -1    0    0    0    0  0.00000000000E+00  0.00000000000E+00  0.45593999997E+02  0.45594000000E+02  0.51100000000E-03 0. -1.
         11   -1    0    0    0    0 -0.00000000000E+00 -0.00000000000E+00 -0.45593999997E+02  0.45594000000E+02  0.51100000000E-03 0.  1.
    9900012    2    1    2    0    0 -0.48610116896E+00 -0.40397473867E+02 -0.45797796239E+01  0.50528848871E+02  0.29999966627E+02 0.  0.
        -12    1    1    2    0    0  0.48610116896E+00  0.40397473867E+02  0.45797796239E+01  0.40659151129E+02  0.00000000000E+00 0.  1.
         11    1    3    3    0    0 -0.12421766265E+02 -0.28500805513E+02  0.13459223280E+01  0.31119249657E+02  0.51100000000E-03 0. -1.
        -11    1    3    3    0    0  0.15420001399E+01 -0.43397199038E+01 -0.45693991487E+01  0.64877069998E+01  0.51100000000E-03 0.  1.
        -12    1    3    3    0    0  0.10393664956E+02 -0.75569484499E+01 -0.13563028032E+01  0.12921892214E+02  0.00000000000E+00 0.  1.
</event>
<event>
 7    1  0.6857839E-013  0.5052886E+02  0.7816164E-02  0.1300439E+00
        -11   -1    0    0    0    0  0.00000000000E+00  0.00000000000E+00  0.45593999997E+02  0.45594000000E+02  0.51100000000E-03 0.  1.
         11   -1    0    0    0    0 -0.00000000000E+00 -0.00000000000E+00 -0.45593999997E+02  0.45594000000E+02  0.51100000000E-03 0. -1.
    9900012    2    1    2    0    0 -0.14376100467E+02 -0.26474527518E+02 -0.27305544166E+02  0.50528860632E+02  0.30000002378E+02 0.  0.
        -12    1    1    2    0    0  0.14376100467E+02  0.26474527518E+02  0.27305544166E+02  0.40659139368E+02  0.00000000000E+00 0.  1.
         11    1    3    3    0    0 -0.92727753681E+01 -0.27803469189E+01 -0.10839589041E+02  0.14533113323E+02  0.51100000000E-03 0. -1.
        -11    1    3    3    0    0  0.66747672398E+01 -0.16571058328E+01 -0.21882620892E+01  0.72171329958E+01  0.51100000000E-03 0.  1.
        -12    1    3    3    0    0 -0.11778092339E+02 -0.22037074766E+02 -0.14277693036E+02  0.28778614313E+02  0.00000000000E+00 0.  1.
</event>
<event>
 7    1  0.7404531E-013  0.5052886E+02  0.7816164E-02  0.1300439E+00
        -11   -1    0    0    0    0  0.00000000000E+00  0.00000000000E+00  0.45593999997E+02  0.45594000000E+02  0.51100000000E-03 0. -1.
         11   -1    0    0    0    0 -0.00000000000E+00 -0.00000000000E+00 -0.45593999997E+02  0.45594000000E+02  0.51100000000E-03 0.  1.
    9900012    2    1    2    0    0  0.23509884940E+02  0.31531563437E+02 -0.10305876837E+02  0.50528864740E+02  0.30000014864E+02 0.  0.
        -12    1    1    2    0    0 -0.23509884940E+02 -0.31531563437E+02  0.10305876837E+02  0.40659135260E+02  0.00000000000E+00 0.  1.
         11    1    3    3    0    0  0.95735126597E+01  0.15914269356E+02  0.16085586913E+01  0.18641447774E+02  0.51100000000E-03 0. -1.
        -11    1    3    3    0    0 -0.32237499786E+01  0.56977806364E+01  0.28819596243E+01  0.71528287860E+01  0.51100000000E-03 0.  1.
        -12    1    3    3    0    0  0.17160122259E+02  0.99195134446E+01 -0.14796395153E+02  0.24734588180E+02  0.00000000000E+00 0.  1.
</event>
<event>
 7    1  0.7713926E-013  0.5052886E+02  0.7816164E-02  0.1300439E+00
        -11   -1    0    0    0    0  0.00000000000E+00  0.00000000000E+00  0.45593999997E+02  0.45594000000E+02  0.51100000000E-03 0. -1.
         11   -1    0    0    0    0 -0.00000000000E+00 -0.00000000000E+00 -0.45593999997E+02  0.45594000000E+02  0.51100000000E-03 0.  1.
    9900012    2    1    2    0    0  0.34885488998E+02 -0.20707028262E+02 -0.27179978564E+01  0.50528857431E+02  0.29999992648E+02 0.  0.
        -12    1    1    2    0    0 -0.34885488998E+02  0.20707028262E+02  0.27179978564E+01  0.40659142569E+02  0.00000000000E+00 0.  1.
         11    1    3    3    0    0  0.20843861229E+02 -0.18291906199E+02  0.52637969822E+01  0.28227078175E+02  0.51100000000E-03 0. -1.
        -11    1    3    3    0    0 -0.29796821729E+01 -0.10503393583E+01  0.55993227559E+00  0.32086201136E+01  0.51100000000E-03 0.  1.
        -12    1    3    3    0    0  0.17021309942E+02 -0.13647827043E+01 -0.85417271141E+01  0.19093159143E+02  0.00000000000E+00 0.  1.
</event>
<event>
 7    1  0.6857839E-013  0.5052887E+02  0.7816164E-02  0.1300439E+00
        -11   -1    0    0    0    0  0.00000000000E+00  0.00000000000E+00  0.45593999997E+02  0.45594000000E+02  0.51100000000E-03 0. -1.
         11   -1    0    0    0    0 -0.00000000000E+00 -0.00000000000E+00 -0.45593999997E+02  0.45594000000E+02  0.51100000000E-03 0.  1.
    9900012    2    1    2    0    0  0.40017484855E+01  0.37667749029E+02  0.14774704303E+02  0.50528865785E+02  0.30000018040E+02 0.  0.
        -12    1    1    2    0    0 -0.40017484855E+01 -0.37667749029E+02 -0.14774704303E+02  0.40659134215E+02  0.00000000000E+00 0.  1.
         11    1    3    3    0    0 -0.47512933949E+01  0.59730598383E+01 -0.32121149161E+01  0.82806953363E+01  0.51100000000E-03 0. -1.
        -11    1    3    3    0    0  0.11940642622E+02  0.11172252492E+02  0.12997932339E+02  0.20888858689E+02  0.51100000000E-03 0.  1.
         12    1    3    3    0    0 -0.31876007420E+01  0.20522436699E+02  0.49888868801E+01  0.21359311760E+02  0.00000000000E+00 0. -1.
</event>
<event>
 7    1  0.6857839E-013  0.5052885E+02  0.7816164E-02  0.1300439E+00
        -11   -1    0    0    0    0  0.00000000000E+00  0.00000000000E+00  0.45593999997E+02  0.45594000000E+02  0.51100000000E-03 0.  1.
         11   -1    0    0    0    0 -0.00000000000E+00 -0.00000000000E+00 -0.45593999997E+02  0.45594000000E+02  0.51100000000E-03 0. -1.
    9900012    2    1    2    0    0 -0.35534544126E+01  0.26292914887E+02 -0.30809442149E+02  0.50528854202E+02  0.29999982833E+02 0.  0.
        -12    1    1    2    0    0  0.35534544126E+01 -0.26292914887E+02  0.30809442149E+02  0.40659145798E+02  0.00000000000E+00 0.  1.
         11    1    3    3    0    0  0.33326724388E+01  0.11127315474E+02 -0.19426550091E+02  0.22634369970E+02  0.51100000000E-03 0. -1.
        -11    1    3    3    0    0 -0.55846448717E+01  0.18842331071E+02 -0.13115104365E+02  0.23626841966E+02  0.51100000000E-03 0.  1.
        -12    1    3    3    0    0 -0.13014819797E+01 -0.36767316584E+01  0.17322123075E+01  0.42676422659E+01  0.00000000000E+00 0.  1.
</event>
<event>
 7    1  0.6857839E-013  0.5052886E+02  0.7816164E-02  0.1300439E+00
        -11   -1    0    0    0    0  0.00000000000E+00  0.00000000000E+00  0.45593999997E+02  0.45594000000E+02  0.51100000000E-03 0. -1.
         11   -1    0    0    0    0 -0.00000000000E+00 -0.00000000000E+00 -0.45593999997E+02  0.45594000000E+02  0.51100000000E-03 0.  1.
    9900012    2    1    2    0    0 -0.85346980208E+01 -0.15123598340E+02  0.36764128826E+02  0.50528862461E+02  0.30000007936E+02 0.  0.
        -12    1    1    2    0    0  0.85346980208E+01  0.15123598340E+02 -0.36764128826E+02  0.40659137539E+02  0.00000000000E+00 0.  1.
         11    1    3    3    0    0  0.60906210657E+00  0.14475150479E+01 -0.27828136818E+01  0.31953573684E+01  0.51100000000E-03 0.  1.
        -11    1    3    3    0    0  0.30919391143E+01 -0.10563152749E+02  0.10336674352E+02  0.15099242378E+02  0.51100000000E-03 0. -1.
         12    1    3    3    0    0 -0.12235699242E+02 -0.60079606396E+01  0.29210268156E+02  0.32234262714E+02  0.00000000000E+00 0. -1.
</event>
<event>
 7    1  0.6857839E-013  0.5052886E+02  0.7816164E-02  0.1300439E+00
        -11   -1    0    0    0    0  0.00000000000E+00  0.00000000000E+00  0.45593999997E+02  0.45594000000E+02  0.51100000000E-03 0.  1.
         11   -1    0    0    0    0 -0.00000000000E+00 -0.00000000000E+00 -0.45593999997E+02  0.45594000000E+02  0.51100000000E-03 0. -1.
    9900012    2    1    2    0    0  0.12655624554E+02 -0.28207243754E+02 -0.26407432649E+02  0.50528856721E+02  0.29999990490E+02 0.  0.
        -12    1    1    2    0    0 -0.12655624554E+02  0.28207243754E+02  0.26407432649E+02  0.40659143279E+02  0.00000000000E+00 0.  1.
         11    1    3    3    0    0 -0.18281964331E+01  0.87297187259E+00 -0.14197871313E+01  0.24738993204E+01  0.51100000000E-03 0. -1.
        -11    1    3    3    0    0 -0.91033410965E+00 -0.23101771773E+02 -0.82654807020E+01  0.24552774563E+02  0.51100000000E-03 0.  1.
         12    1    3    3    0    0  0.15394155097E+02 -0.59784438541E+01 -0.16722164816E+02  0.23502182838E+02  0.00000000000E+00 0. -1.
</event>
<event>
 7    1  0.6857839E-013  0.5052887E+02  0.7816164E-02  0.1300439E+00
        -11   -1    0    0    0    0  0.00000000000E+00  0.00000000000E+00  0.45593999997E+02  0.45594000000E+02  0.51100000000E-03 0.  1.
         11   -1    0    0    0    0 -0.00000000000E+00 -0.00000000000E+00 -0.45593999997E+02  0.45594000000E+02  0.51100000000E-03 0. -1.
    9900012    2    1    2    0    0 -0.23415744544E+02  0.32880445078E+02 -0.48728145115E+01  0.50528867172E+02  0.30000022257E+02 0.  0.
        -12    1    1    2    0    0  0.23415744544E+02 -0.32880445078E+02  0.48728145115E+01  0.40659132828E+02  0.00000000000E+00 0.  1.
         11    1    3    3    0    0 -0.16989330782E+02  0.18767442274E+02 -0.10380004613E+01  0.25336370994E+02  0.51100000000E-03 0. -1.
        -11    1    3    3    0    0 -0.10120035584E+02  0.20619956925E+01  0.31300269645E+01  0.10791849494E+02  0.51100000000E-03 0.  1.
         12    1    3    3    0    0  0.36936218218E+01  0.12051007111E+02 -0.69648410147E+01  0.14400646684E+02  0.00000000000E+00 0. -1.
</event>
<event>
 7    1  0.8081873E-013  0.5052886E+02  0.7816164E-02  0.1300439E+00
        -11   -1    0    0    0    0  0.00000000000E+00  0.00000000000E+00  0.45593999997E+02  0.45594000000E+02  0.51100000000E-03 0.  1.
         11   -1    0    0    0    0 -0.00000000000E+00 -0.00000000000E+00 -0.45593999997E+02  0.45594000000E+02  0.51100000000E-03 0. -1.
    9900012    2    1    2    0    0  0.24206419190E+02  0.32271283571E+02  0.50773037214E+01  0.50528862203E+02  0.30000007152E+02 0.  0.
        -12    1    1    2    0    0 -0.24206419190E+02 -0.32271283571E+02 -0.50773037214E+01  0.40659137797E+02  0.00000000000E+00 0.  1.
         11    1    3    3    0    0  0.11606205339E+02  0.13494345608E+02  0.11370405240E+02  0.21120783161E+02  0.51100000000E-03 0. -1.
        -11    1    3    3    0    0  0.12664678747E+02  0.18869127576E+02  0.38548725081E+00  0.22728542934E+02  0.51100000000E-03 0.  1.
        -12    1    3    3    0    0 -0.64464896147E-01 -0.92189612668E-01 -0.66785887699E+01  0.66795361070E+01  0.00000000000E+00 0.  1.
</event>
<event>
 7    1  0.6857839E-013  0.5052888E+02  0.7816164E-02  0.1300439E+00
        -11   -1    0    0    0    0  0.00000000000E+00  0.00000000000E+00  0.45593999997E+02  0.45594000000E+02  0.51100000000E-03 0.  1.
         11   -1    0    0    0    0 -0.00000000000E+00 -0.00000000000E+00 -0.45593999997E+02  0.45594000000E+02  0.51100000000E-03 0. -1.
    9900012    2    1    2    0    0 -0.13555372613E+02 -0.36840480930E+02 -0.10592210129E+02  0.50528879532E+02  0.30000059826E+02 0.  0.
        -12    1    1    2    0    0  0.13555372613E+02  0.36840480930E+02  0.10592210129E+02  0.40659120468E+02  0.00000000000E+00 0.  1.
         11    1    3    3    0    0  0.36819865491E+00 -0.10285206177E+02  0.72050200345E+01  0.12563174372E+02  0.51100000000E-03 0. -1.
        -11    1    3    3    0    0 -0.93964910469E+01 -0.92443606888E+01 -0.67287295135E+00  0.13198674434E+02  0.51100000000E-03 0.  1.
        -12    1    3    3    0    0 -0.45270802211E+01 -0.17310914064E+02 -0.17124357212E+02  0.24767030726E+02  0.00000000000E+00 0.  1.
</event>
<event>
 7    1  0.6857839E-013  0.5052884E+02  0.7816164E-02  0.1300439E+00
        -11   -1    0    0    0    0  0.00000000000E+00  0.00000000000E+00  0.45593999997E+02  0.45594000000E+02  0.51100000000E-03 0. -1.
         11   -1    0    0    0    0 -0.00000000000E+00 -0.00000000000E+00 -0.45593999997E+02  0.45594000000E+02  0.51100000000E-03 0.  1.
    9900012    2    1    2    0    0 -0.54115103973E+01  0.36554281178E+02  0.16960750369E+02  0.50528843955E+02  0.29999951685E+02 0.  0.
        -12    1    1    2    0    0  0.54115103973E+01 -0.36554281178E+02 -0.16960750369E+02  0.40659156045E+02  0.00000000000E+00 0.  1.
         11    1    3    3    0    0 -0.14255108081E+02  0.23894725616E+02  0.19874492637E+02  0.34193003327E+02  0.51100000000E-03 0. -1.
        -11    1    3    3    0    0  0.36859139472E+01  0.87296611275E+01 -0.77325806007E+00  0.95074114939E+01  0.51100000000E-03 0.  1.
         12    1    3    3    0    0  0.51576837369E+01  0.39298944345E+01 -0.21404842079E+01  0.68284291342E+01  0.00000000000E+00 0. -1.
</event>
<event>
 7    1  0.6857839E-013  0.5052884E+02  0.7816164E-02  0.1300439E+00
        -11   -1    0    0    0    0  0.00000000000E+00  0.00000000000E+00  0.45593999997E+02  0.45594000000E+02  0.51100000000E-03 0. -1.
         11   -1    0    0    0    0 -0.00000000000E+00 -0.00000000000E+00 -0.45593999997E+02  0.45594000000E+02  0.51100000000E-03 0.  1.
    9900012    2    1    2    0    0 -0.36462832111E+02 -0.13234361716E+00  0.17989201964E+02  0.50528843250E+02  0.29999949541E+02 0.  0.
        -12    1    1    2    0    0  0.36462832111E+02  0.13234361716E+00 -0.17989201964E+02  0.40659156750E+02  0.00000000000E+00 0.  1.
         11    1    3    3    0    0 -0.15021793937E+02 -0.11552035651E+02  0.42620433915E+01  0.19423409456E+02  0.51100000000E-03 0. -1.
        -11    1    3    3    0    0 -0.48949373259E+00  0.34787044925E+01 -0.16993684606E+01  0.39024149557E+01  0.51100000000E-03 0.  1.
        -12    1    3    3    0    0 -0.20951544441E+02  0.79409875413E+01  0.15426527033E+02  0.27203018838E+02  0.00000000000E+00 0.  1.
</event>
<event>
 7    1  0.6857839E-013  0.5052887E+02  0.7816164E-02  0.1300439E+00
        -11   -1    0    0    0    0  0.00000000000E+00  0.00000000000E+00  0.45593999997E+02  0.45594000000E+02  0.51100000000E-03 0.  1.
         11   -1    0    0    0    0 -0.00000000000E+00 -0.00000000000E+00 -0.45593999997E+02  0.45594000000E+02  0.51100000000E-03 0. -1.
    9900012    2    1    2    0    0  0.51242280749E+01 -0.35852053881E+01 -0.40175284138E+02  0.50528869825E+02  0.30000030319E+02 0.  0.
        -12    1    1    2    0    0 -0.51242280749E+01  0.35852053881E+01  0.40175284138E+02  0.40659130175E+02  0.00000000000E+00 0.  1.
         11    1    3    3    0    0 -0.37015526977E+01  0.21313617994E+01 -0.47643784087E+01  0.63987106027E+01  0.51100000000E-03 0.  1.
        -11    1    3    3    0    0  0.81123228865E+01  0.83034161798E+01 -0.21105823614E+02  0.24087596259E+02  0.51100000000E-03 0. -1.
         12    1    3    3    0    0  0.71345788615E+00 -0.14019983367E+02 -0.14305082115E+02  0.20042562962E+02  0.00000000000E+00 0. -1.
</event>
<event>
 7    1  0.6857839E-013  0.5052886E+02  0.7816164E-02  0.1300439E+00
        -11   -1    0    0    0    0  0.00000000000E+00  0.00000000000E+00  0.45593999997E+02  0.45594000000E+02  0.51100000000E-03 0.  1.
         11   -1    0    0    0    0 -0.00000000000E+00 -0.00000000000E+00 -0.45593999997E+02  0.45594000000E+02  0.51100000000E-03 0. -1.
    9900012    2    1    2    0    0  0.20985772260E+02 -0.81406090456E+01 -0.33859907082E+02  0.50528862520E+02  0.30000008117E+02 0.  0.
        -12    1    1    2    0    0 -0.20985772260E+02  0.81406090456E+01  0.33859907082E+02  0.40659137480E+02  0.00000000000E+00 0.  1.
         11    1    3    3    0    0  0.64528186295E+01 -0.32032297012E+01 -0.26805296174E+02  0.27756502878E+02  0.51100000000E-03 0. -1.
        -11    1    3    3    0    0  0.14550642591E+02 -0.23124386313E+01 -0.10750965084E+02  0.18238745098E+02  0.51100000000E-03 0.  1.
         12    1    3    3    0    0 -0.17688960739E-01 -0.26249407131E+01  0.36963541758E+01  0.45336145447E+01  0.00000000000E+00 0. -1.
</event>
<event>
 7    1  0.6857839E-013  0.5052886E+02  0.7816164E-02  0.1300439E+00
        -11   -1    0    0    0    0  0.00000000000E+00  0.00000000000E+00  0.45593999997E+02  0.45594000000E+02  0.51100000000E-03 0.  1.
         11   -1    0    0    0    0 -0.00000000000E+00 -0.00000000000E+00 -0.45593999997E+02  0.45594000000E+02  0.51100000000E-03 0. -1.
    9900012    2    1    2    0    0  0.32060173232E+02 -0.11381102537E+02 -0.22266145833E+02  0.50528862615E+02  0.30000008405E+02 0.  0.
        -12    1    1    2    0    0 -0.32060173232E+02  0.11381102537E+02  0.22266145833E+02  0.40659137385E+02  0.00000000000E+00 0.  1.
         11    1    3    3    0    0  0.76644591492E+01  0.37835215703E+01  0.28523381938E+01  0.90108158873E+01  0.51100000000E-03 0. -1.
        -11    1    3    3    0    0  0.82302883328E+01 -0.80588087236E+01 -0.91136627680E+00  0.11554766672E+02  0.51100000000E-03 0.  1.
         12    1    3    3    0    0  0.16165425750E+02 -0.71058153833E+01 -0.24207117750E+02  0.29963280056E+02  0.00000000000E+00 0. -1.
</event>
<event>
 7    1  0.6857839E-013  0.5052887E+02  0.7816164E-02  0.1300439E+00
        -11   -1    0    0    0    0  0.00000000000E+00  0.00000000000E+00  0.45593999997E+02  0.45594000000E+02  0.51100000000E-03 0. -1.
         11   -1    0    0    0    0 -0.00000000000E+00 -0.00000000000E+00 -0.45593999997E+02  0.45594000000E+02  0.51100000000E-03 0.  1.
    9900012    2    1    2    0    0 -0.95505704659E+01 -0.19977223291E+02  0.34100767168E+02  0.50528866117E+02  0.30000019049E+02 0.  0.
        -12    1    1    2    0    0  0.95505704659E+01  0.19977223291E+02 -0.34100767168E+02  0.40659133883E+02  0.00000000000E+00 0.  1.
         11    1    3    3    0    0 -0.13443044989E+02 -0.56098234652E+01  0.11083958542E+02  0.18304090120E+02  0.51100000000E-03 0. -1.
        -11    1    3    3    0    0 -0.76293581609E+00 -0.42190623678E+01 -0.20733410031E+01  0.47624890025E+01  0.51100000000E-03 0.  1.
         12    1    3    3    0    0  0.46554103388E+01 -0.10148337458E+02  0.25090149629E+02  0.27462286995E+02  0.00000000000E+00 0. -1.
</event>
<event>
 7    1  0.6857839E-013  0.5052886E+02  0.7816164E-02  0.1300439E+00
        -11   -1    0    0    0    0  0.00000000000E+00  0.00000000000E+00  0.45593999997E+02  0.45594000000E+02  0.51100000000E-03 0. -1.
         11   -1    0    0    0    0 -0.00000000000E+00 -0.00000000000E+00 -0.45593999997E+02  0.45594000000E+02  0.51100000000E-03 0.  1.
    9900012    2    1    2    0    0  0.93889205067E+00  0.20189003084E+02  0.35280145602E+02  0.50528855425E+02  0.29999986551E+02 0.  0.
        -12    1    1    2    0    0 -0.93889205067E+00 -0.20189003084E+02 -0.35280145602E+02  0.40659144575E+02  0.00000000000E+00 0.  1.
         11    1    3    3    0    0 -0.35583611865E+01  0.15751332594E+02  0.20033274203E+02  0.25731274519E+02  0.51100000000E-03 0. -1.
        -11    1    3    3    0    0 -0.20007413269E+01 -0.62409769550E+01  0.80247131747E+01  0.10360925683E+02  0.51100000000E-03 0.  1.
         12    1    3    3    0    0  0.64979945640E+01  0.10678647446E+02  0.72221582240E+01  0.14436655223E+02  0.00000000000E+00 0. -1.
</event>
<event>
 7    1  0.6857839E-013  0.5052886E+02  0.7816164E-02  0.1300439E+00
        -11   -1    0    0    0    0  0.00000000000E+00  0.00000000000E+00  0.45593999997E+02  0.45594000000E+02  0.51100000000E-03 0. -1.
         11   -1    0    0    0    0 -0.00000000000E+00 -0.00000000000E+00 -0.45593999997E+02  0.45594000000E+02  0.51100000000E-03 0.  1.
    9900012    2    1    2    0    0 -0.31186849246E+02 -0.52416297308E+01 -0.25555260200E+02  0.50528861150E+02  0.30000003951E+02 0.  0.
        -12    1    1    2    0    0  0.31186849246E+02  0.52416297308E+01  0.25555260200E+02  0.40659138850E+02  0.00000000000E+00 0.  1.
         11    1    3    3    0    0 -0.23713183064E+02 -0.44269616478E+01 -0.12991023889E+02  0.27398535406E+02  0.51100000000E-03 0. -1.
        -11    1    3    3    0    0 -0.10926783550E+02  0.45171268666E+00 -0.15113520730E+02  0.18655217828E+02  0.51100000000E-03 0.  1.
        -12    1    3    3    0    0  0.34531173674E+01 -0.12663807696E+01  0.25492844189E+01  0.44751079155E+01  0.00000000000E+00 0.  1.
</event>
<event>
 7    1  0.6857839E-013  0.5052886E+02  0.7816164E-02  0.1300439E+00
        -11   -1    0    0    0    0  0.00000000000E+00  0.00000000000E+00  0.45593999997E+02  0.45594000000E+02  0.51100000000E-03 0.  1.
         11   -1    0    0    0    0 -0.00000000000E+00 -0.00000000000E+00 -0.45593999997E+02  0.45594000000E+02  0.51100000000E-03 0. -1.
    9900012    2    1    2    0    0  0.42179165133E+01  0.75260383130E+01 -0.39733282119E+02  0.50528858588E+02  0.29999996165E+02 0.  0.
        -12    1    1    2    0    0 -0.42179165133E+01 -0.75260383130E+01  0.39733282119E+02  0.40659141412E+02  0.00000000000E+00 0.  1.
         11    1    3    3    0    0  0.13713013034E+01  0.77862249556E+01 -0.10403657424E+02  0.13066822658E+02  0.51100000000E-03 0. -1.
        -11    1    3    3    0    0 -0.58052922590E+01  0.10705452785E+01 -0.27990905874E+02  0.28606612824E+02  0.51100000000E-03 0.  1.
        -12    1    3    3    0    0  0.86519074689E+01 -0.13307319211E+01 -0.13387188208E+01  0.88554231055E+01  0.00000000000E+00 0.  1.
</event>
<event>
 7    1  0.6859245E-013  0.5052886E+02  0.7816164E-02  0.1300439E+00
        -11   -1    0    0    0    0  0.00000000000E+00  0.00000000000E+00  0.45593999997E+02  0.45594000000E+02  0.51100000000E-03 0.  1.
         11   -1    0    0    0    0 -0.00000000000E+00 -0.00000000000E+00 -0.45593999997E+02  0.45594000000E+02  0.51100000000E-03 0. -1.
    9900012    2    1    2    0    0 -0.39049148441E+02 -0.22930417525E+01 -0.11093761068E+02  0.50528861186E+02  0.30000004060E+02 0.  0.
        -12    1    1    2    0    0  0.39049148441E+02  0.22930417525E+01  0.11093761068E+02  0.40659138814E+02  0.00000000000E+00 0.  1.
         11    1    3    3    0    0 -0.10567209040E+02  0.31163943121E+01  0.24041769527E+01  0.11276430618E+02  0.51100000000E-03 0. -1.
        -11    1    3    3    0    0 -0.15595044038E+01 -0.46733179294E+01  0.46513110645E+01  0.67754445857E+01  0.51100000000E-03 0.  1.
         12    1    3    3    0    0 -0.26922434998E+02 -0.73611813522E+00 -0.18149249086E+02  0.32476985982E+02  0.00000000000E+00 0. -1.
</event>
<event>
 7    1  0.6857839E-013  0.5052885E+02  0.7816164E-02  0.1300439E+00
        -11   -1    0    0    0    0  0.00000000000E+00  0.00000000000E+00  0.45593999997E+02  0.45594000000E+02  0.51100000000E-03 0.  1.
         11   -1    0    0    0    0 -0.00000000000E+00 -0.00000000000E+00 -0.45593999997E+02  0.45594000000E+02  0.51100000000E-03 0. -1.
    9900012    2    1    2    0    0 -0.59783540218E+01 -0.40193998396E+02 -0.13667018480E+01  0.50528854684E+02  0.29999984298E+02 0.  0.
        -12    1    1    2    0    0  0.59783540218E+01  0.40193998396E+02  0.13667018480E+01  0.40659145316E+02  0.00000000000E+00 0.  1.
         11    1    3    3    0    0  0.15700314129E+01 -0.22068280144E+02  0.11373168470E+00  0.22124351342E+02  0.51100000000E-03 0. -1.
        -11    1    3    3    0    0 -0.43861855361E+01 -0.15163209728E+02 -0.10112215565E+02  0.18746158452E+02  0.51100000000E-03 0.  1.
        -12    1    3    3    0    0 -0.31621998986E+01 -0.29625085245E+01  0.86317820326E+01  0.96583448901E+01  0.00000000000E+00 0.  1.
</event>
<event>
 7    1  0.6857839E-013  0.5052885E+02  0.7816164E-02  0.1300439E+00
        -11   -1    0    0    0    0  0.00000000000E+00  0.00000000000E+00  0.45593999997E+02  0.45594000000E+02  0.51100000000E-03 0.  1.
         11   -1    0    0    0    0 -0.00000000000E+00 -0.00000000000E+00 -0.45593999997E+02  0.45594000000E+02  0.51100000000E-03 0. -1.
    9900012    2    1    2    0    0  0.22645023069E+02 -0.32526313429E+02  0.90779252226E+01  0.50528845293E+02  0.29999955754E+02 0.  0.
        -12    1    1    2    0    0 -0.22645023069E+02  0.32526313429E+02 -0.90779252226E+01  0.40659154707E+02  0.00000000000E+00 0.  1.
         11    1    3    3    0    0  0.46738364237E+00  0.49748848167E+01 -0.17536663760E+01  0.52955899037E+01  0.51100000000E-03 0.  1.
        -11    1    3    3    0    0  0.68330486360E+01 -0.74478261472E+01  0.14628860646E+01  0.10212771606E+02  0.51100000000E-03 0. -1.
        -12    1    3    3    0    0  0.15344590791E+02 -0.30053372099E+02  0.93687055340E+01  0.35020483784E+02  0.00000000000E+00 0.  1.
</event>
<event>
 7    1  0.6857839E-013  0.5052886E+02  0.7816164E-02  0.1300439E+00
        -11   -1    0    0    0    0  0.00000000000E+00  0.00000000000E+00  0.45593999997E+02  0.45594000000E+02  0.51100000000E-03 0.  1.
         11   -1    0    0    0    0 -0.00000000000E+00 -0.00000000000E+00 -0.45593999997E+02  0.45594000000E+02  0.51100000000E-03 0. -1.
    9900012    2    1    2    0    0  0.28559032747E+02 -0.22797075663E+02 -0.17828083160E+02  0.50528861305E+02  0.30000004423E+02 0.  0.
        -12    1    1    2    0    0 -0.28559032747E+02  0.22797075663E+02  0.17828083160E+02  0.40659138695E+02  0.00000000000E+00 0.  1.
         11    1    3    3    0    0  0.22792547081E+02 -0.21381932552E+02 -0.15700391769E+02  0.34974126781E+02  0.51100000000E-03 0. -1.
        -11    1    3    3    0    0  0.93985115973E+01  0.84038215291E+00  0.19624923888E+01  0.96379271135E+01  0.51100000000E-03 0.  1.
        -12    1    3    3    0    0 -0.36320259314E+01 -0.22555252639E+01 -0.40901837801E+01  0.59168074109E+01  0.00000000000E+00 0.  1.
</event>
<event>
 7    1  0.6857839E-013  0.5052886E+02  0.7816164E-02  0.1300439E+00
        -11   -1    0    0    0    0  0.00000000000E+00  0.00000000000E+00  0.45593999997E+02  0.45594000000E+02  0.51100000000E-03 0. -1.
         11   -1    0    0    0    0 -0.00000000000E+00 -0.00000000000E+00 -0.45593999997E+02  0.45594000000E+02  0.51100000000E-03 0.  1.
    9900012    2    1    2    0    0  0.38674165175E+02 -0.58822988117E+01 -0.11084809824E+02  0.50528862034E+02  0.30000006638E+02 0.  0.
        -12    1    1    2    0    0 -0.38674165175E+02  0.58822988117E+01  0.11084809824E+02  0.40659137966E+02  0.00000000000E+00 0.  1.
         11    1    3    3    0    0  0.73519412919E+01 -0.82140262769E+01 -0.78483323193E+01  0.13532094771E+02  0.51100000000E-03 0. -1.
        -11    1    3    3    0    0  0.24711412044E+02  0.42049296323E+00 -0.10623110428E+02  0.26901322922E+02  0.51100000000E-03 0.  1.
        -12    1    3    3    0    0  0.66108118389E+01  0.19112345020E+01  0.73866329229E+01  0.10095444340E+02  0.00000000000E+00 0.  1.
</event>
<event>
 7    1  0.6857839E-013  0.5052885E+02  0.7816164E-02  0.1300439E+00
        -11   -1    0    0    0    0  0.00000000000E+00  0.00000000000E+00  0.45593999997E+02  0.45594000000E+02  0.51100000000E-03 0.  1.
         11   -1    0    0    0    0 -0.00000000000E+00 -0.00000000000E+00 -0.45593999997E+02  0.45594000000E+02  0.51100000000E-03 0. -1.
    9900012    2    1    2    0    0  0.20574997151E+02  0.82352193831E+01 -0.34088377551E+02  0.50528845679E+02  0.29999956926E+02 0.  0.
        -12    1    1    2    0    0 -0.20574997151E+02 -0.82352193831E+01  0.34088377551E+02  0.40659154321E+02  0.00000000000E+00 0.  1.
         11    1    3    3    0    0  0.11600125223E+02  0.67842832509E+01 -0.40812006820E+01  0.14044415392E+02  0.51100000000E-03 0. -1.
        -11    1    3    3    0    0  0.46882559483E+01  0.45332082171E+01 -0.53534715149E+00  0.65434178691E+01  0.51100000000E-03 0.  1.
         12    1    3    3    0    0  0.42866159790E+01 -0.30822720849E+01 -0.29471829717E+02  0.29941012419E+02  0.00000000000E+00 0. -1.
</event>
<event>
 7    1  0.6857839E-013  0.5052886E+02  0.7816164E-02  0.1300439E+00
        -11   -1    0    0    0    0  0.00000000000E+00  0.00000000000E+00  0.45593999997E+02  0.45594000000E+02  0.51100000000E-03 0. -1.
         11   -1    0    0    0    0 -0.00000000000E+00 -0.00000000000E+00 -0.45593999997E+02  0.45594000000E+02  0.51100000000E-03 0.  1.
    9900012    2    1    2    0    0  0.39674238436E+02 -0.38990978237E+01 -0.79948588722E+01  0.50528856776E+02  0.29999990657E+02 0.  0.
        -12    1    1    2    0    0 -0.39674238436E+02  0.38990978237E+01  0.79948588722E+01  0.40659143224E+02  0.00000000000E+00 0.  1.
         11    1    3    3    0    0  0.56470187195E+01  0.25258360690E+01  0.28199716889E+01  0.67985960943E+01  0.51100000000E-03 0.  1.
        -11    1    3    3    0    0  0.11600074439E+02 -0.13925016293E+02 -0.10765661280E+01  0.18155627244E+02  0.51100000000E-03 0. -1.
         12    1    3    3    0    0  0.22427145278E+02  0.75000824000E+01 -0.97382644331E+01  0.25574633438E+02  0.00000000000E+00 0. -1.
</event>
<event>
 7    1  0.6857839E-013  0.5052876E+02  0.7816164E-02  0.1300439E+00
        -11   -1    0    0    0    0  0.00000000000E+00  0.00000000000E+00  0.45593999997E+02  0.45594000000E+02  0.51100000000E-03 0. -1.
         11   -1    0    0    0    0 -0.00000000000E+00 -0.00000000000E+00 -0.45593999997E+02  0.45594000000E+02  0.51100000000E-03 0.  1.
    9900012    2    1    2    0    0  0.11664285834E+02  0.15476563707E+02  0.35743453514E+02  0.50528756803E+02  0.29999686777E+02 0.  0.
        -12    1    1    2    0    0 -0.11664285834E+02 -0.15476563707E+02 -0.35743453514E+02  0.40659243197E+02  0.00000000000E+00 0.  1.
         11    1    3    3    0    0 -0.22376905776E+01  0.32227891507E+01  0.70490421061E+01  0.80673802381E+01  0.51100000000E-03 0. -1.
        -11    1    3    3    0    0  0.10769591510E+02  0.52818653120E+01  0.31969696937E+02  0.34145918130E+02  0.51100000000E-03 0.  1.
        -12    1    3    3    0    0  0.31323849019E+01  0.69719092443E+01 -0.32752855286E+01  0.83154584346E+01  0.00000000000E+00 0.  1.
</event>
<event>
 7    1  0.6857839E-013  0.5052885E+02  0.7816164E-02  0.1300439E+00
        -11   -1    0    0    0    0  0.00000000000E+00  0.00000000000E+00  0.45593999997E+02  0.45594000000E+02  0.51100000000E-03 0.  1.
         11   -1    0    0    0    0 -0.00000000000E+00 -0.00000000000E+00 -0.45593999997E+02  0.45594000000E+02  0.51100000000E-03 0. -1.
    9900012    2    1    2    0    0 -0.19902415476E+02  0.42239988561E+01 -0.35202525503E+02  0.50528854535E+02  0.29999983845E+02 0.  0.
        -12    1    1    2    0    0  0.19902415476E+02 -0.42239988561E+01  0.35202525503E+02  0.40659145465E+02  0.00000000000E+00 0.  1.
         11    1    3    3    0    0 -0.29729156430E+01  0.30932408436E+01 -0.11893374500E+02  0.12643524967E+02  0.51100000000E-03 0. -1.
        -11    1    3    3    0    0 -0.18186333953E+02 -0.50447215183E+01 -0.25034326260E+02  0.31351386723E+02  0.51100000000E-03 0.  1.
         12    1    3    3    0    0  0.12568341201E+01  0.61754795309E+01  0.17251752569E+01  0.65339428455E+01  0.00000000000E+00 0. -1.
</event>
<event>
 7    1  0.6857839E-013  0.5052887E+02  0.7816164E-02  0.1300439E+00
        -11   -1    0    0    0    0  0.00000000000E+00  0.00000000000E+00  0.45593999997E+02  0.45594000000E+02  0.51100000000E-03 0.  1.
         11   -1    0    0    0    0 -0.00000000000E+00 -0.00000000000E+00 -0.45593999997E+02  0.45594000000E+02  0.51100000000E-03 0. -1.
    9900012    2    1    2    0    0 -0.75314724208E+01 -0.28550014984E+02  0.27952436197E+02  0.50528866687E+02  0.30000020781E+02 0.  0.
        -12    1    1    2    0    0  0.75314724208E+01  0.28550014984E+02 -0.27952436197E+02  0.40659133313E+02  0.00000000000E+00 0.  1.
         11    1    3    3    0    0  0.35145573162E+01 -0.16630248107E+02  0.14403013399E+02  0.22279229351E+02  0.51100000000E-03 0. -1.
        -11    1    3    3    0    0  0.20376149643E+01 -0.11055659813E+02  0.88971347171E+01  0.14336613794E+02  0.51100000000E-03 0.  1.
        -12    1    3    3    0    0 -0.13083644701E+02 -0.86410706461E+00  0.46522880812E+01  0.13913023542E+02  0.00000000000E+00 0.  1.
</event>
<event>
 7    1  0.6857839E-013  0.5052886E+02  0.7816164E-02  0.1300439E+00
        -11   -1    0    0    0    0  0.00000000000E+00  0.00000000000E+00  0.45593999997E+02  0.45594000000E+02  0.51100000000E-03 0.  1.
         11   -1    0    0    0    0 -0.00000000000E+00 -0.00000000000E+00 -0.45593999997E+02  0.45594000000E+02  0.51100000000E-03 0. -1.
    9900012    2    1    2    0    0  0.37419290863E+02 -0.88405313359E+01 -0.13221471051E+02  0.50528860563E+02  0.30000002167E+02 0.  0.
        -12    1    1    2    0    0 -0.37419290863E+02  0.88405313359E+01  0.13221471051E+02  0.40659139437E+02  0.00000000000E+00 0.  1.
         11    1    3    3    0    0  0.12821049011E+02 -0.53669333754E+00 -0.55801722469E+01  0.13993057566E+02  0.51100000000E-03 0. -1.
        -11    1    3    3    0    0  0.90580262754E+01  0.72713537750E+01  0.31426966095E+01  0.12033161179E+02  0.51100000000E-03 0.  1.
        -12    1    3    3    0    0  0.15540215577E+02 -0.15575191773E+02 -0.10783995414E+02  0.24502641817E+02  0.00000000000E+00 0.  1.
</event>
<event>
 7    1  0.6857839E-013  0.5052886E+02  0.7816164E-02  0.1300439E+00
        -11   -1    0    0    0    0  0.00000000000E+00  0.00000000000E+00  0.45593999997E+02  0.45594000000E+02  0.51100000000E-03 0. -1.
         11   -1    0    0    0    0 -0.00000000000E+00 -0.00000000000E+00 -0.45593999997E+02  0.45594000000E+02  0.51100000000E-03 0.  1.
    9900012    2    1    2    0    0 -0.34162487645E+02  0.21090247297E+02 -0.64258485391E+01  0.50528860528E+02  0.30000002062E+02 0.  0.
        -12    1    1    2    0    0  0.34162487645E+02 -0.21090247297E+02  0.64258485391E+01  0.40659139472E+02  0.00000000000E+00 0.  1.
         11    1    3    3    0    0 -0.21641384167E+02  0.60817911249E+01 -0.18205382256E+00  0.22480454528E+02  0.51100000000E-03 0. -1.
        -11    1    3    3    0    0 -0.83698276430E+01 -0.17662836110E+01 -0.65356828997E+01  0.10765171796E+02  0.51100000000E-03 0.  1.
         12    1    3    3    0    0 -0.41512758348E+01  0.16774739783E+02  0.29188818317E+00  0.17283234204E+02  0.00000000000E+00 0. -1.
</event>
