<event>
 7    1  0.7313719E-013  0.5930195E+02  0.7816164E-02  0.1266605E+00
        -11   -1    0    0    0    0  0.00000000000E+00  0.00000000000E+00  0.45593999997E+02  0.45594000000E+02  0.51100000000E-03 0. -1.
         11   -1    0    0    0    0 -0.00000000000E+00 -0.00000000000E+00 -0.45593999997E+02  0.45594000000E+02  0.51100000000E-03 0.  1.
    9900012    2    1    2    0    0 -0.30806582710E+02  0.45483886781E+01 -0.68546835018E+01  0.59301951895E+02  0.50000014348E+02 0.  0.
        -12    1    1    2    0    0  0.30806582710E+02 -0.45483886781E+01  0.68546835018E+01  0.31886048105E+02  0.00000000000E+00 0.  1.
         11    1    3    3    0    0 -0.15447025670E+02  0.19734758889E+02  0.42755913341E+01  0.25423453580E+02  0.51100000000E-03 0. -1.
        -11    1    3    3    0    0 -0.15432237178E+02  0.25358590397E+00 -0.10013459492E+02  0.18398033085E+02  0.51100000000E-03 0.  1.
        -12    1    3    3    0    0  0.72680137409E-01 -0.15439956115E+02 -0.11168153441E+01  0.15480465230E+02  0.00000000000E+00 0.  1.
</event>
<event>
 7    1  0.7313719E-013  0.5930195E+02  0.7816164E-02  0.1266605E+00
        -11   -1    0    0    0    0  0.00000000000E+00  0.00000000000E+00  0.45593999997E+02  0.45594000000E+02  0.51100000000E-03 0. -1.
         11   -1    0    0    0    0 -0.00000000000E+00 -0.00000000000E+00 -0.45593999997E+02  0.45594000000E+02  0.51100000000E-03 0.  1.
    9900012    2    1    2    0    0  0.20419035849E+02  0.23977278000E+02  0.49873177629E+01  0.59301949387E+02  0.50000009773E+02 0.  0.
        -12    1    1    2    0    0 -0.20419035849E+02 -0.23977278000E+02 -0.49873177629E+01  0.31886050613E+02  0.00000000000E+00 0.  1.
         11    1    3    3    0    0  0.28348635299E+01  0.32436111487E+02  0.61452358989E+00  0.32565555717E+02  0.51100000000E-03 0. -1.
        -11    1    3    3    0    0 -0.12856855724E+01  0.27100566343E+01 -0.23400452995E+01  0.38043667826E+01  0.51100000000E-03 0.  1.
         12    1    3    3    0    0  0.18869857891E+02 -0.11168890122E+02  0.67128394725E+01  0.22932026887E+02  0.00000000000E+00 0. -1.
</event>
<event>
 7    1  0.7313719E-013  0.5930198E+02  0.7816164E-02  0.1266605E+00
        -11   -1    0    0    0    0  0.00000000000E+00  0.00000000000E+00  0.45593999997E+02  0.45594000000E+02  0.51100000000E-03 0.  1.
         11   -1    0    0    0    0 -0.00000000000E+00 -0.00000000000E+00 -0.45593999997E+02  0.45594000000E+02  0.51100000000E-03 0. -1.
    9900012    2    1    2    0    0  0.20066265394E+02 -0.22579664319E+02 -0.10208919126E+02  0.59301979907E+02  0.50000065436E+02 0.  0.
        -12    1    1    2    0    0 -0.20066265394E+02  0.22579664319E+02  0.10208919126E+02  0.31886020093E+02  0.00000000000E+00 0.  1.
         11    1    3    3    0    0 -0.18029905610E+01 -0.16269825000E+02  0.72303331404E+00  0.16385382447E+02  0.51100000000E-03 0. -1.
        -11    1    3    3    0    0 -0.73620076303E+01 -0.77145046890E+01  0.21211138029E+01  0.10872527902E+02  0.51100000000E-03 0.  1.
         12    1    3    3    0    0  0.29231263585E+02  0.14046653696E+01 -0.13053066243E+02  0.32044069559E+02  0.00000000000E+00 0. -1.
</event>
<event>
 7    1  0.7313719E-013  0.5930196E+02  0.7816164E-02  0.1266605E+00
        -11   -1    0    0    0    0  0.00000000000E+00  0.00000000000E+00  0.45593999997E+02  0.45594000000E+02  0.51100000000E-03 0.  1.
         11   -1    0    0    0    0 -0.00000000000E+00 -0.00000000000E+00 -0.45593999997E+02  0.45594000000E+02  0.51100000000E-03 0. -1.
    9900012    2    1    2    0    0 -0.28958915308E+02 -0.29684176207E+01 -0.13011115877E+02  0.59301962063E+02  0.50000032892E+02 0.  0.
        -12    1    1    2    0    0  0.28958915308E+02  0.29684176207E+01  0.13011115877E+02  0.31886037937E+02  0.00000000000E+00 0.  1.
         11    1    3    3    0    0 -0.19191872996E+02  0.35277364589E+01 -0.21519340579E+02  0.29049181277E+02  0.51100000000E-03 0. -1.
        -11    1    3    3    0    0 -0.17531266837E+02  0.18424835640E+01  0.55591852845E+01  0.18483630701E+02  0.51100000000E-03 0.  1.
        -12    1    3    3    0    0  0.77642245256E+01 -0.83386376436E+01  0.29490394178E+01  0.11769150085E+02  0.00000000000E+00 0.  1.
</event>
<event>
 7    1  0.7313719E-013  0.5930192E+02  0.7816164E-02  0.1266605E+00
        -11   -1    0    0    0    0  0.00000000000E+00  0.00000000000E+00  0.45593999997E+02  0.45594000000E+02  0.51100000000E-03 0. -1.
         11   -1    0    0    0    0 -0.00000000000E+00 -0.00000000000E+00 -0.45593999997E+02  0.45594000000E+02  0.51100000000E-03 0.  1.
    9900012    2    1    2    0    0 -0.19212684943E+02  0.25384530829E+02 -0.17945312095E+01  0.59301921371E+02  0.49999958679E+02 0.  0.
        -12    1    1    2    0    0  0.19212684943E+02 -0.25384530829E+02  0.17945312095E+01  0.31886078629E+02  0.00000000000E+00 0.  1.
         11    1    3    3    0    0 -0.61651685067E+01  0.11439205511E+02  0.15528341193E+02  0.20248311186E+02  0.51100000000E-03 0. -1.
        -11    1    3    3    0    0 -0.14219108940E+02  0.21508771303E+01  0.37628370890E+01  0.14865001672E+02  0.51100000000E-03 0.  1.
         12    1    3    3    0    0  0.11715925045E+01  0.11794448188E+02 -0.21085709491E+02  0.24188608513E+02  0.00000000000E+00 0. -1.
</event>
<event>
 7    1  0.7313719E-013  0.5930195E+02  0.7816164E-02  0.1266605E+00
        -11   -1    0    0    0    0  0.00000000000E+00  0.00000000000E+00  0.45593999997E+02  0.45594000000E+02  0.51100000000E-03 0.  1.
         11   -1    0    0    0    0 -0.00000000000E+00 -0.00000000000E+00 -0.45593999997E+02  0.45594000000E+02  0.51100000000E-03 0. -1.
    9900012    2    1    2    0    0  0.55888610238E+01 -0.15457414937E+02 -0.27323129345E+02  0.59301945975E+02  0.50000003552E+02 0.  0.
        -12    1    1    2    0    0 -0.55888610238E+01  0.15457414937E+02  0.27323129345E+02  0.31886054025E+02  0.00000000000E+00 0.  1.
         11    1    3    3    0    0 -0.21950120273E+01 -0.45476852855E+01 -0.69217816731E+00  0.50969235949E+01  0.51100000000E-03 0. -1.
        -11    1    3    3    0    0  0.38961623946E+01 -0.13875866624E+02  0.98120009871E+01  0.17435455819E+02  0.51100000000E-03 0.  1.
         12    1    3    3    0    0  0.38877106564E+01  0.29661369724E+01 -0.36442952164E+02  0.36769566562E+02  0.00000000000E+00 0. -1.
</event>
<event>
 7    1  0.7313719E-013  0.5930195E+02  0.7816164E-02  0.1266605E+00
        -11   -1    0    0    0    0  0.00000000000E+00  0.00000000000E+00  0.45593999997E+02  0.45594000000E+02  0.51100000000E-03 0.  1.
         11   -1    0    0    0    0 -0.00000000000E+00 -0.00000000000E+00 -0.45593999997E+02  0.45594000000E+02  0.51100000000E-03 0. -1.
    9900012    2    1    2    0    0 -0.30374317962E+02  0.33239960317E+01  0.91143748038E+01  0.59301953376E+02  0.50000017048E+02 0.  0.
        -12    1    1    2    0    0  0.30374317962E+02 -0.33239960317E+01 -0.91143748038E+01  0.31886046624E+02  0.00000000000E+00 0.  1.
         11    1    3    3    0    0 -0.13329697536E+02 -0.15681305228E+02  0.10661943353E+02  0.23178895711E+02  0.51100000000E-03 0. -1.
        -11    1    3    3    0    0  0.67384405113E+01  0.43606515985E+01 -0.16423576985E+01  0.81926309546E+01  0.51100000000E-03 0.  1.
        -12    1    3    3    0    0 -0.23783060937E+02  0.14644649661E+02  0.94789149735E-01  0.27930426710E+02  0.00000000000E+00 0.  1.
</event>
<event>
 7    1  0.7313719E-013  0.5930193E+02  0.7816164E-02  0.1266605E+00
        -11   -1    0    0    0    0  0.00000000000E+00  0.00000000000E+00  0.45593999997E+02  0.45594000000E+02  0.51100000000E-03 0.  1.
         11   -1    0    0    0    0 -0.00000000000E+00 -0.00000000000E+00 -0.45593999997E+02  0.45594000000E+02  0.51100000000E-03 0. -1.
    9900012    2    1    2    0    0  0.52699966794E+01  0.28971874924E+02 -0.12230250581E+02  0.59301930457E+02  0.49999975251E+02 0.  0.
        -12    1    1    2    0    0 -0.52699966794E+01 -0.28971874924E+02  0.12230250581E+02  0.31886069543E+02  0.00000000000E+00 0.  1.
         11    1    3    3    0    0  0.78340044032E+01  0.29887682193E+02 -0.19623897019E+02  0.36602493171E+02  0.51100000000E-03 0. -1.
        -11    1    3    3    0    0  0.78986866610E+01 -0.10442421263E+01 -0.24477968912E+01  0.83349506578E+01  0.51100000000E-03 0.  1.
        -12    1    3    3    0    0 -0.10462694385E+02  0.12843485740E+00  0.98414433293E+01  0.14364486629E+02  0.00000000000E+00 0.  1.
</event>
<event>
 7    1  0.7313719E-013  0.5930197E+02  0.7816164E-02  0.1266605E+00
        -11   -1    0    0    0    0  0.00000000000E+00  0.00000000000E+00  0.45593999997E+02  0.45594000000E+02  0.51100000000E-03 0.  1.
         11   -1    0    0    0    0 -0.00000000000E+00 -0.00000000000E+00 -0.45593999997E+02  0.45594000000E+02  0.51100000000E-03 0. -1.
    9900012    2    1    2    0    0  0.18667091849E+02  0.25387214818E+02 -0.48731726188E+01  0.59301971623E+02  0.50000050327E+02 0.  0.
        -12    1    1    2    0    0 -0.18667091849E+02 -0.25387214818E+02  0.48731726188E+01  0.31886028377E+02  0.00000000000E+00 0.  1.
         11    1    3    3    0    0  0.58304579742E+01  0.50017023816E+01 -0.75786890393E+01  0.10791097939E+02  0.51100000000E-03 0. -1.
        -11    1    3    3    0    0  0.72269611944E+01  0.21906845453E+02 -0.16554144751E+02  0.28393283616E+02  0.51100000000E-03 0.  1.
        -12    1    3    3    0    0  0.56096726801E+01 -0.15213330166E+01  0.19259661172E+02  0.20117590069E+02  0.00000000000E+00 0.  1.
</event>
<event>
 7    1  0.7313719E-013  0.5930192E+02  0.7816164E-02  0.1266605E+00
        -11   -1    0    0    0    0  0.00000000000E+00  0.00000000000E+00  0.45593999997E+02  0.45594000000E+02  0.51100000000E-03 0. -1.
         11   -1    0    0    0    0 -0.00000000000E+00 -0.00000000000E+00 -0.45593999997E+02  0.45594000000E+02  0.51100000000E-03 0.  1.
    9900012    2    1    2    0    0 -0.12286222815E+02 -0.29086709855E+02  0.44423368816E+01  0.59301916543E+02  0.49999949875E+02 0.  0.
        -12    1    1    2    0    0  0.12286222815E+02  0.29086709855E+02 -0.44423368816E+01  0.31886083457E+02  0.00000000000E+00 0.  1.
         11    1    3    3    0    0  0.90965944989E+01  0.61203103003E+01 -0.20171933077E+01  0.11147883151E+02  0.51100000000E-03 0. -1.
        -11    1    3    3    0    0 -0.25855129861E+01 -0.86871465913E+01 -0.84501148088E+01  0.12391764759E+02  0.51100000000E-03 0.  1.
         12    1    3    3    0    0 -0.18797304328E+02 -0.26519873564E+02  0.14909644998E+02  0.35762268633E+02  0.00000000000E+00 0. -1.
</event>
<event>
 7    1  0.7313719E-013  0.5930196E+02  0.7816164E-02  0.1266605E+00
        -11   -1    0    0    0    0  0.00000000000E+00  0.00000000000E+00  0.45593999997E+02  0.45594000000E+02  0.51100000000E-03 0.  1.
         11   -1    0    0    0    0 -0.00000000000E+00 -0.00000000000E+00 -0.45593999997E+02  0.45594000000E+02  0.51100000000E-03 0. -1.
    9900012    2    1    2    0    0 -0.25046498350E+02 -0.50348262993E+01 -0.19079912188E+02  0.59301959095E+02  0.50000027480E+02 0.  0.
        -12    1    1    2    0    0  0.25046498350E+02  0.50348262993E+01  0.19079912188E+02  0.31886040905E+02  0.00000000000E+00 0.  1.
         11    1    3    3    0    0 -0.26816270435E+02 -0.79788633497E+01 -0.17945315468E+02  0.33238666759E+02  0.51100000000E-03 0. -1.
        -11    1    3    3    0    0 -0.19058087072E+01 -0.10832708595E+02 -0.36409902416E+01  0.11586047322E+02  0.51100000000E-03 0.  1.
        -12    1    3    3    0    0  0.36755807922E+01  0.13776745646E+02  0.25063935211E+01  0.14477245015E+02  0.00000000000E+00 0.  1.
</event>
<event>
 7    1  0.7313719E-013  0.5930193E+02  0.7816164E-02  0.1266605E+00
        -11   -1    0    0    0    0  0.00000000000E+00  0.00000000000E+00  0.45593999997E+02  0.45594000000E+02  0.51100000000E-03 0.  1.
         11   -1    0    0    0    0 -0.00000000000E+00 -0.00000000000E+00 -0.45593999997E+02  0.45594000000E+02  0.51100000000E-03 0. -1.
    9900012    2    1    2    0    0  0.74586368156E+01  0.30996232066E+02  0.56910510781E+00  0.59301928651E+02  0.49999971957E+02 0.  0.
        -12    1    1    2    0    0 -0.74586368156E+01 -0.30996232066E+02 -0.56910510781E+00  0.31886071349E+02  0.00000000000E+00 0.  1.
         11    1    3    3    0    0 -0.59335474584E+01  0.22153828459E+02 -0.21834012679E+02  0.31665805071E+02  0.51100000000E-03 0.  1.
        -11    1    3    3    0    0  0.34040103986E+00  0.37118667233E+00  0.24403383489E+00  0.55964737768E+00  0.51100000000E-03 0. -1.
        -12    1    3    3    0    0  0.13051783234E+02  0.84712169348E+01  0.22159083952E+02  0.27076476203E+02  0.00000000000E+00 0.  1.
</event>
<event>
 7    1  0.7313719E-013  0.5930195E+02  0.7816164E-02  0.1266605E+00
        -11   -1    0    0    0    0  0.00000000000E+00  0.00000000000E+00  0.45593999997E+02  0.45594000000E+02  0.51100000000E-03 0. -1.
         11   -1    0    0    0    0 -0.00000000000E+00 -0.00000000000E+00 -0.45593999997E+02  0.45594000000E+02  0.51100000000E-03 0.  1.
    9900012    2    1    2    0    0 -0.26747882180E+02 -0.16120292881E+02 -0.64348361400E+01  0.59301950389E+02  0.50000011601E+02 0.  0.
        -12    1    1    2    0    0  0.26747882180E+02  0.16120292881E+02  0.64348361400E+01  0.31886049611E+02  0.00000000000E+00 0.  1.
         11    1    3    3    0    0 -0.89936354660E+00 -0.63631782215E+01  0.86969957926E+01  0.10813724055E+02  0.51100000000E-03 0. -1.
        -11    1    3    3    0    0 -0.33322414050E+01 -0.13058634507E+02 -0.21031302664E+02  0.24978940329E+02  0.51100000000E-03 0.  1.
         12    1    3    3    0    0 -0.22516277228E+02  0.33015198477E+01  0.58994707311E+01  0.23509286004E+02  0.00000000000E+00 0. -1.
</event>
<event>
 7    1  0.7313719E-013  0.5930190E+02  0.7816164E-02  0.1266605E+00
        -11   -1    0    0    0    0  0.00000000000E+00  0.00000000000E+00  0.45593999997E+02  0.45594000000E+02  0.51100000000E-03 0. -1.
         11   -1    0    0    0    0 -0.00000000000E+00 -0.00000000000E+00 -0.45593999997E+02  0.45594000000E+02  0.51100000000E-03 0.  1.
    9900012    2    1    2    0    0  0.17891184889E+02  0.26133487361E+02  0.36972320181E+01  0.59301902983E+02  0.49999925145E+02 0.  0.
        -12    1    1    2    0    0 -0.17891184889E+02 -0.26133487361E+02 -0.36972320181E+01  0.31886097017E+02  0.00000000000E+00 0.  1.
         11    1    3    3    0    0  0.19501272687E+02  0.67428502221E+01  0.89813334547E+01  0.22504000009E+02  0.51100000000E-03 0. -1.
        -11    1    3    3    0    0  0.89189693123E-02 -0.80194304489E+00 -0.14514533281E+02  0.14536673237E+02  0.51100000000E-03 0.  1.
         12    1    3    3    0    0 -0.16190067672E+01  0.20192580183E+02  0.92304318441E+01  0.22261229737E+02  0.00000000000E+00 0. -1.
</event>
<event>
 7    1  0.7313719E-013  0.5930197E+02  0.7816164E-02  0.1266605E+00
        -11   -1    0    0    0    0  0.00000000000E+00  0.00000000000E+00  0.45593999997E+02  0.45594000000E+02  0.51100000000E-03 0.  1.
         11   -1    0    0    0    0 -0.00000000000E+00 -0.00000000000E+00 -0.45593999997E+02  0.45594000000E+02  0.51100000000E-03 0. -1.
    9900012    2    1    2    0    0  0.44693177204E+01 -0.26927343510E+01 -0.31456214745E+02  0.59301967552E+02  0.50000042902E+02 0.  0.
        -12    1    1    2    0    0 -0.44693177204E+01  0.26927343510E+01  0.31456214745E+02  0.31886032448E+02  0.00000000000E+00 0.  1.
         11    1    3    3    0    0  0.88856814434E+01 -0.31821660122E+01 -0.43895004236E+00  0.94485021376E+01  0.51100000000E-03 0. -1.
        -11    1    3    3    0    0  0.12631080005E+02 -0.12323253190E+02 -0.12706582632E+02  0.21745436158E+02  0.51100000000E-03 0.  1.
         12    1    3    3    0    0 -0.17047443728E+02  0.12812684851E+02 -0.18310682072E+02  0.28108029256E+02  0.00000000000E+00 0. -1.
</event>
<event>
 7    1  0.7313719E-013  0.5930192E+02  0.7816164E-02  0.1266605E+00
        -11   -1    0    0    0    0  0.00000000000E+00  0.00000000000E+00  0.45593999997E+02  0.45594000000E+02  0.51100000000E-03 0.  1.
         11   -1    0    0    0    0 -0.00000000000E+00 -0.00000000000E+00 -0.45593999997E+02  0.45594000000E+02  0.51100000000E-03 0. -1.
    9900012    2    1    2    0    0  0.16754253297E+02 -0.12545687077E+02 -0.24054584624E+02  0.59301916684E+02  0.49999950132E+02 0.  0.
        -12    1    1    2    0    0 -0.16754253297E+02  0.12545687077E+02  0.24054584624E+02  0.31886083316E+02  0.00000000000E+00 0.  1.
         11    1    3    3    0    0  0.14886785000E+02 -0.22651927608E+01 -0.15378886618E+02  0.21523420262E+02  0.51100000000E-03 0. -1.
        -11    1    3    3    0    0  0.11272347947E+01 -0.54793460178E+00  0.13495652340E+02  0.13553727272E+02  0.51100000000E-03 0.  1.
         12    1    3    3    0    0  0.74023350251E+00 -0.97325597149E+01 -0.22171350346E+02  0.24224769151E+02  0.00000000000E+00 0. -1.
</event>
<event>
 7    1  0.7313719E-013  0.5930195E+02  0.7816164E-02  0.1266605E+00
        -11   -1    0    0    0    0  0.00000000000E+00  0.00000000000E+00  0.45593999997E+02  0.45594000000E+02  0.51100000000E-03 0.  1.
         11   -1    0    0    0    0 -0.00000000000E+00 -0.00000000000E+00 -0.45593999997E+02  0.45594000000E+02  0.51100000000E-03 0. -1.
    9900012    2    1    2    0    0  0.25772016391E+02 -0.60359066926E+01 -0.17778949585E+02  0.59301952160E+02  0.50000014832E+02 0.  0.
        -12    1    1    2    0    0 -0.25772016391E+02  0.60359066926E+01  0.17778949585E+02  0.31886047840E+02  0.00000000000E+00 0.  1.
         11    1    3    3    0    0  0.21824879939E+02  0.29388803490E+01 -0.59278282937E+01  0.22805735037E+02  0.51100000000E-03 0.  1.
        -11    1    3    3    0    0 -0.66174512953E+00  0.12352135603E+02 -0.19001191592E+01  0.12514935624E+02  0.51100000000E-03 0. -1.
        -12    1    3    3    0    0  0.46088815824E+01 -0.21326922645E+02 -0.99510021321E+01  0.23981281500E+02  0.00000000000E+00 0.  1.
</event>
<event>
 7    1  0.7313719E-013  0.5930195E+02  0.7816164E-02  0.1266605E+00
        -11   -1    0    0    0    0  0.00000000000E+00  0.00000000000E+00  0.45593999997E+02  0.45594000000E+02  0.51100000000E-03 0. -1.
         11   -1    0    0    0    0 -0.00000000000E+00 -0.00000000000E+00 -0.45593999997E+02  0.45594000000E+02  0.51100000000E-03 0.  1.
    9900012    2    1    2    0    0 -0.13595659214E+02 -0.82818184275E+01  0.27627693647E+02  0.59301954115E+02  0.50000018397E+02 0.  0.
        -12    1    1    2    0    0  0.13595659214E+02  0.82818184275E+01 -0.27627693647E+02  0.31886045885E+02  0.00000000000E+00 0.  1.
         11    1    3    3    0    0 -0.16711975456E+02  0.19178827486E+01  0.16203955780E+02  0.23356724536E+02  0.51100000000E-03 0. -1.
        -11    1    3    3    0    0 -0.20783288870E-01  0.11721480449E+02  0.20543328460E+01  0.11900160485E+02  0.51100000000E-03 0.  1.
        -12    1    3    3    0    0  0.31370995314E+01 -0.21921181625E+02  0.93694050207E+01  0.24045069094E+02  0.00000000000E+00 0.  1.
</event>
<event>
 7    1  0.7313719E-013  0.5930195E+02  0.7816164E-02  0.1266605E+00
        -11   -1    0    0    0    0  0.00000000000E+00  0.00000000000E+00  0.45593999997E+02  0.45594000000E+02  0.51100000000E-03 0.  1.
         11   -1    0    0    0    0 -0.00000000000E+00 -0.00000000000E+00 -0.45593999997E+02  0.45594000000E+02  0.51100000000E-03 0. -1.
    9900012    2    1    2    0    0  0.35590989562E+01 -0.28359263935E+02 -0.14135241361E+02  0.59301951568E+02  0.50000013751E+02 0.  0.
        -12    1    1    2    0    0 -0.35590989562E+01  0.28359263935E+02  0.14135241361E+02  0.31886048432E+02  0.00000000000E+00 0.  1.
         11    1    3    3    0    0 -0.12045492788E+02 -0.20521639431E+02 -0.11390902054E+02  0.26381513059E+02  0.51100000000E-03 0. -1.
        -11    1    3    3    0    0 -0.57835808082E+01  0.20406051965E+01 -0.66426515152E+01  0.90409455228E+01  0.51100000000E-03 0.  1.
         12    1    3    3    0    0  0.21388172553E+02 -0.98782297006E+01  0.38983122089E+01  0.23879492985E+02  0.00000000000E+00 0. -1.
</event>
<event>
 7    1  0.7313719E-013  0.5930193E+02  0.7816164E-02  0.1266605E+00
        -11   -1    0    0    0    0  0.00000000000E+00  0.00000000000E+00  0.45593999997E+02  0.45594000000E+02  0.51100000000E-03 0.  1.
         11   -1    0    0    0    0 -0.00000000000E+00 -0.00000000000E+00 -0.45593999997E+02  0.45594000000E+02  0.51100000000E-03 0. -1.
    9900012    2    1    2    0    0 -0.30700736275E+02 -0.74902794863E+01  0.42522674154E+01  0.59301932937E+02  0.49999979773E+02 0.  0.
        -12    1    1    2    0    0  0.30700736275E+02  0.74902794863E+01 -0.42522674154E+01  0.31886067063E+02  0.00000000000E+00 0.  1.
         11    1    3    3    0    0 -0.12236971113E+02 -0.90250340746E+01 -0.32404731364E+01  0.15546554875E+02  0.51100000000E-03 0. -1.
        -11    1    3    3    0    0 -0.85827237269E+01 -0.13198654770E+02 -0.10153072306E+02  0.18733726587E+02  0.51100000000E-03 0.  1.
         12    1    3    3    0    0 -0.98810414352E+01  0.14733409358E+02  0.17645812858E+02  0.25021651476E+02  0.00000000000E+00 0. -1.
</event>
<event>
 7    1  0.7313719E-013  0.5930194E+02  0.7816164E-02  0.1266605E+00
        -11   -1    0    0    0    0  0.00000000000E+00  0.00000000000E+00  0.45593999997E+02  0.45594000000E+02  0.51100000000E-03 0. -1.
         11   -1    0    0    0    0 -0.00000000000E+00 -0.00000000000E+00 -0.45593999997E+02  0.45594000000E+02  0.51100000000E-03 0.  1.
    9900012    2    1    2    0    0  0.23237099103E+02 -0.19393430737E+02  0.10032583699E+02  0.59301942449E+02  0.49999997120E+02 0.  0.
        -12    1    1    2    0    0 -0.23237099103E+02  0.19393430737E+02 -0.10032583699E+02  0.31886057551E+02  0.00000000000E+00 0.  1.
         11    1    3    3    0    0  0.20641446992E+02 -0.10423130564E+02  0.22961131509E+02  0.32587183756E+02  0.51100000000E-03 0. -1.
        -11    1    3    3    0    0  0.91949025175E+01 -0.12055860088E+02 -0.50420776935E+01  0.15978502511E+02  0.51100000000E-03 0.  1.
        -12    1    3    3    0    0 -0.65992504061E+01  0.30855599149E+01 -0.78864701166E+01  0.10736256182E+02  0.00000000000E+00 0.  1.
</event>
<event>
 7    1  0.7313719E-013  0.5930192E+02  0.7816164E-02  0.1266605E+00
        -11   -1    0    0    0    0  0.00000000000E+00  0.00000000000E+00  0.45593999997E+02  0.45594000000E+02  0.51100000000E-03 0.  1.
         11   -1    0    0    0    0 -0.00000000000E+00 -0.00000000000E+00 -0.45593999997E+02  0.45594000000E+02  0.51100000000E-03 0. -1.
    9900012    2    1    2    0    0  0.26751686749E+02 -0.15502127448E+02 -0.77944278549E+01  0.59301924592E+02  0.49999964554E+02 0.  0.
        -12    1    1    2    0    0 -0.26751686749E+02  0.15502127448E+02  0.77944278549E+01  0.31886075408E+02  0.00000000000E+00 0.  1.
         11    1    3    3    0    0  0.16880864700E+02  0.68418131666E+01  0.52710361804E+01  0.18962009996E+02  0.51100000000E-03 0. -1.
        -11    1    3    3    0    0  0.20082827528E+02 -0.11524035613E+02 -0.63014147064E+01  0.23996482782E+02  0.51100000000E-03 0.  1.
         12    1    3    3    0    0 -0.10212005479E+02 -0.10819905001E+02 -0.67640493289E+01  0.16343431814E+02  0.00000000000E+00 0. -1.
</event>
<event>
 7    1  0.7313719E-013  0.5930196E+02  0.7816164E-02  0.1266605E+00
        -11   -1    0    0    0    0  0.00000000000E+00  0.00000000000E+00  0.45593999997E+02  0.45594000000E+02  0.51100000000E-03 0.  1.
         11   -1    0    0    0    0 -0.00000000000E+00 -0.00000000000E+00 -0.45593999997E+02  0.45594000000E+02  0.51100000000E-03 0. -1.
    9900012    2    1    2    0    0 -0.64974737938E+01  0.10705644567E+02 -0.29323908727E+02  0.59301958943E+02  0.50000027201E+02 0.  0.
        -12    1    1    2    0    0  0.64974737938E+01 -0.10705644567E+02  0.29323908727E+02  0.31886041057E+02  0.00000000000E+00 0.  1.
         11    1    3    3    0    0 -0.17338353163E+02  0.17962061582E+02 -0.13316488683E+02  0.28294575766E+02  0.51100000000E-03 0. -1.
        -11    1    3    3    0    0  0.16561779379E+01  0.82769898633E+01 -0.40731764857E+01  0.93724198318E+01  0.51100000000E-03 0.  1.
         12    1    3    3    0    0  0.91847014311E+01 -0.15533406878E+02 -0.11934243558E+02  0.21634963345E+02  0.00000000000E+00 0. -1.
</event>
<event>
 7    1  0.7313719E-013  0.5930197E+02  0.7816164E-02  0.1266605E+00
        -11   -1    0    0    0    0  0.00000000000E+00  0.00000000000E+00  0.45593999997E+02  0.45594000000E+02  0.51100000000E-03 0.  1.
         11   -1    0    0    0    0 -0.00000000000E+00 -0.00000000000E+00 -0.45593999997E+02  0.45594000000E+02  0.51100000000E-03 0. -1.
    9900012    2    1    2    0    0 -0.48142172367E+00 -0.31818057830E+02  0.20244518763E+01  0.59301968946E+02  0.50000045445E+02 0.  0.
        -12    1    1    2    0    0  0.48142172367E+00  0.31818057830E+02 -0.20244518763E+01  0.31886031054E+02  0.00000000000E+00 0.  1.
         11    1    3    3    0    0 -0.55143351542E+01 -0.67965985487E+01 -0.14316135200E+02  0.16779552179E+02  0.51100000000E-03 0. -1.
        -11    1    3    3    0    0 -0.10841288807E+02 -0.26307594436E+01  0.83539441654E+01  0.13937102340E+02  0.51100000000E-03 0.  1.
        -12    1    3    3    0    0  0.15874202237E+02 -0.22390699838E+02  0.79866429104E+01  0.28585314427E+02  0.00000000000E+00 0.  1.
</event>
<event>
 7    1  0.7313719E-013  0.5930195E+02  0.7816164E-02  0.1266605E+00
        -11   -1    0    0    0    0  0.00000000000E+00  0.00000000000E+00  0.45593999997E+02  0.45594000000E+02  0.51100000000E-03 0.  1.
         11   -1    0    0    0    0 -0.00000000000E+00 -0.00000000000E+00 -0.45593999997E+02  0.45594000000E+02  0.51100000000E-03 0. -1.
    9900012    2    1    2    0    0 -0.26831614675E+02  0.13009338374E+02 -0.11293447752E+02  0.59301946730E+02  0.50000004929E+02 0.  0.
        -12    1    1    2    0    0  0.26831614675E+02 -0.13009338374E+02  0.11293447752E+02  0.31886053270E+02  0.00000000000E+00 0.  1.
         11    1    3    3    0    0 -0.21651632414E+01  0.51092469237E+01 -0.16161877734E+02  0.17087967349E+02  0.51100000000E-03 0. -1.
        -11    1    3    3    0    0 -0.14337907428E+01  0.15722092284E+02 -0.37543234957E+01  0.16227596460E+02  0.51100000000E-03 0.  1.
         12    1    3    3    0    0 -0.23232660691E+02 -0.78220008338E+01  0.86227534775E+01  0.25986382921E+02  0.00000000000E+00 0. -1.
</event>
<event>
 7    1  0.7313719E-013  0.5930194E+02  0.7816164E-02  0.1266605E+00
        -11   -1    0    0    0    0  0.00000000000E+00  0.00000000000E+00  0.45593999997E+02  0.45594000000E+02  0.51100000000E-03 0. -1.
         11   -1    0    0    0    0 -0.00000000000E+00 -0.00000000000E+00 -0.45593999997E+02  0.45594000000E+02  0.51100000000E-03 0.  1.
    9900012    2    1    2    0    0 -0.16639944668E+02  0.20769734420E+02  0.17562778232E+02  0.59301940261E+02  0.49999993131E+02 0.  0.
        -12    1    1    2    0    0  0.16639944668E+02 -0.20769734420E+02 -0.17562778232E+02  0.31886059739E+02  0.00000000000E+00 0.  1.
         11    1    3    3    0    0  0.15389455648E+01 -0.59300767940E+01  0.22117217212E+02  0.22950064525E+02  0.51100000000E-03 0. -1.
        -11    1    3    3    0    0 -0.12714575978E+02  0.14989963340E+02  0.49990528570E+01  0.20281764542E+02  0.51100000000E-03 0.  1.
        -12    1    3    3    0    0 -0.54643142549E+01  0.11709847874E+02 -0.95534918368E+01  0.16070111194E+02  0.00000000000E+00 0.  1.
</event>
<event>
 7    1  0.7313719E-013  0.5930196E+02  0.7816164E-02  0.1266605E+00
        -11   -1    0    0    0    0  0.00000000000E+00  0.00000000000E+00  0.45593999997E+02  0.45594000000E+02  0.51100000000E-03 0. -1.
         11   -1    0    0    0    0 -0.00000000000E+00 -0.00000000000E+00 -0.45593999997E+02  0.45594000000E+02  0.51100000000E-03 0.  1.
    9900012    2    1    2    0    0  0.28111004110E+02 -0.80128407299E+01  0.12739129019E+02  0.59301959531E+02  0.50000028274E+02 0.  0.
        -12    1    1    2    0    0 -0.28111004110E+02  0.80128407299E+01 -0.12739129019E+02  0.31886040469E+02  0.00000000000E+00 0.  1.
         11    1    3    3    0    0 -0.30460795594E+01  0.10469918965E+02  0.28924235896E+01  0.11281131073E+02  0.51100000000E-03 0. -1.
        -11    1    3    3    0    0  0.27886675705E+01 -0.18350947374E+02  0.26155348090E+01  0.18744998238E+02  0.51100000000E-03 0.  1.
         12    1    3    3    0    0  0.28368416099E+02 -0.13181232043E+00  0.72311706203E+01  0.29275830219E+02  0.00000000000E+00 0. -1.
</event>
<event>
 7    1  0.7313719E-013  0.5930194E+02  0.7816164E-02  0.1266605E+00
        -11   -1    0    0    0    0  0.00000000000E+00  0.00000000000E+00  0.45593999997E+02  0.45594000000E+02  0.51100000000E-03 0. -1.
         11   -1    0    0    0    0 -0.00000000000E+00 -0.00000000000E+00 -0.45593999997E+02  0.45594000000E+02  0.51100000000E-03 0.  1.
    9900012    2    1    2    0    0  0.16763533591E+02 -0.26043996314E+02  0.75772834590E+01  0.59301936789E+02  0.49999986798E+02 0.  0.
        -12    1    1    2    0    0 -0.16763533591E+02  0.26043996314E+02 -0.75772834590E+01  0.31886063211E+02  0.00000000000E+00 0.  1.
         11    1    3    3    0    0  0.70752992267E+01 -0.10301463999E+02 -0.65957751000E+01  0.14130968442E+02  0.51100000000E-03 0. -1.
        -11    1    3    3    0    0 -0.12729534654E+02 -0.54369008441E+01 -0.41359261605E+01  0.14446689198E+02  0.51100000000E-03 0.  1.
         12    1    3    3    0    0  0.22417769019E+02 -0.10305631471E+02  0.18308984719E+02  0.30724279149E+02  0.00000000000E+00 0. -1.
</event>
<event>
 7    1  0.7313719E-013  0.5930195E+02  0.7816164E-02  0.1266605E+00
        -11   -1    0    0    0    0  0.00000000000E+00  0.00000000000E+00  0.45593999997E+02  0.45594000000E+02  0.51100000000E-03 0.  1.
         11   -1    0    0    0    0 -0.00000000000E+00 -0.00000000000E+00 -0.45593999997E+02  0.45594000000E+02  0.51100000000E-03 0. -1.
    9900012    2    1    2    0    0  0.15053536924E+02  0.20925091879E+02 -0.18768371429E+02  0.59301949600E+02  0.50000010162E+02 0.  0.
        -12    1    1    2    0    0 -0.15053536924E+02 -0.20925091879E+02  0.18768371429E+02  0.31886050400E+02  0.00000000000E+00 0.  1.
         11    1    3    3    0    0  0.21776072385E+01  0.19648670235E+02 -0.20379986654E+02  0.28392887693E+02  0.51100000000E-03 0. -1.
        -11    1    3    3    0    0 -0.86920304863E+01 -0.14560343764E+01 -0.15233757838E+01  0.89438305060E+01  0.51100000000E-03 0.  1.
         12    1    3    3    0    0  0.21567960171E+02  0.27324560200E+01  0.31349910081E+01  0.21965231401E+02  0.00000000000E+00 0. -1.
</event>
<event>
 7    1  0.7313719E-013  0.5930194E+02  0.7816164E-02  0.1266605E+00
        -11   -1    0    0    0    0  0.00000000000E+00  0.00000000000E+00  0.45593999997E+02  0.45594000000E+02  0.51100000000E-03 0.  1.
         11   -1    0    0    0    0 -0.00000000000E+00 -0.00000000000E+00 -0.45593999997E+02  0.45594000000E+02  0.51100000000E-03 0. -1.
    9900012    2    1    2    0    0  0.25732009050E+02  0.54750196010E+01 -0.18016901818E+02  0.59301939088E+02  0.49999990991E+02 0.  0.
        -12    1    1    2    0    0 -0.25732009050E+02 -0.54750196010E+01  0.18016901818E+02  0.31886060912E+02  0.00000000000E+00 0.  1.
         11    1    3    3    0    0 -0.27631036498E+01  0.72736399426E+01 -0.19639147190E+01  0.80248078531E+01  0.51100000000E-03 0. -1.
        -11    1    3    3    0    0  0.11799076871E+02  0.12679184646E+02  0.75937665297E+01  0.18911510481E+02  0.51100000000E-03 0.  1.
        -12    1    3    3    0    0  0.16696035829E+02 -0.14477804988E+02 -0.23646753629E+02  0.32365620754E+02  0.00000000000E+00 0.  1.
</event>
<event>
 7    1  0.7313719E-013  0.5930194E+02  0.7816164E-02  0.1266605E+00
        -11   -1    0    0    0    0  0.00000000000E+00  0.00000000000E+00  0.45593999997E+02  0.45594000000E+02  0.51100000000E-03 0.  1.
         11   -1    0    0    0    0 -0.00000000000E+00 -0.00000000000E+00 -0.45593999997E+02  0.45594000000E+02  0.51100000000E-03 0. -1.
    9900012    2    1    2    0    0 -0.25628035235E+02 -0.41731448670E+01 -0.18507006622E+02  0.59301943138E+02  0.49999998378E+02 0.  0.
        -12    1    1    2    0    0  0.25628035235E+02  0.41731448670E+01  0.18507006622E+02  0.31886056862E+02  0.00000000000E+00 0.  1.
         11    1    3    3    0    0 -0.25162917471E+02 -0.71818760716E+01 -0.15041363832E+02  0.30182683541E+02  0.51100000000E-03 0. -1.
        -11    1    3    3    0    0 -0.92886758458E+01 -0.91593895868E+01 -0.50862461523E+01  0.14001564797E+02  0.51100000000E-03 0.  1.
        -12    1    3    3    0    0  0.88235580821E+01  0.12168120791E+02  0.16206033617E+01  0.15117694800E+02  0.00000000000E+00 0.  1.
</event>
<event>
 7    1  0.7313719E-013  0.5930202E+02  0.7816164E-02  0.1266604E+00
        -11   -1    0    0    0    0  0.00000000000E+00  0.00000000000E+00  0.45593999997E+02  0.45594000000E+02  0.51100000000E-03 0.  1.
         11   -1    0    0    0    0 -0.00000000000E+00 -0.00000000000E+00 -0.45593999997E+02  0.45594000000E+02  0.51100000000E-03 0. -1.
    9900012    2    1    2    0    0  0.20468873219E+02 -0.19107962668E+02 -0.15252103243E+02  0.59302020926E+02  0.50000140244E+02 0.  0.
        -12    1    1    2    0    0 -0.20468873219E+02  0.19107962668E+02  0.15252103243E+02  0.31885979074E+02  0.00000000000E+00 0.  1.
         11    1    3    3    0    0  0.21870944332E+02 -0.95345056819E+01 -0.63077159147E+01  0.24678579475E+02  0.51100000000E-03 0. -1.
        -11    1    3    3    0    0  0.14892008813E+02 -0.21780602139E+01 -0.70805783545E+01  0.16632812837E+02  0.51100000000E-03 0.  1.
        -12    1    3    3    0    0 -0.16294079925E+02 -0.73953967722E+01 -0.18638089734E+01  0.17990628614E+02  0.00000000000E+00 0.  1.
</event>
<event>
 7    1  0.7313719E-013  0.5930209E+02  0.7816164E-02  0.1266604E+00
        -11   -1    0    0    0    0  0.00000000000E+00  0.00000000000E+00  0.45593999997E+02  0.45594000000E+02  0.51100000000E-03 0.  1.
         11   -1    0    0    0    0 -0.00000000000E+00 -0.00000000000E+00 -0.45593999997E+02  0.45594000000E+02  0.51100000000E-03 0. -1.
    9900012    2    1    2    0    0  0.14902511804E+01 -0.31608496274E+02  0.39234758435E+01  0.59302085430E+02  0.50000257882E+02 0.  0.
        -12    1    1    2    0    0 -0.14902511804E+01  0.31608496274E+02 -0.39234758435E+01  0.31885914570E+02  0.00000000000E+00 0.  1.
         11    1    3    3    0    0  0.27439676542E+01 -0.61062993597E+01 -0.95617573455E+01  0.11672337133E+02  0.51100000000E-03 0. -1.
        -11    1    3    3    0    0 -0.15565759291E+02  0.18264767755E+00  0.87205368537E+01  0.17843037459E+02  0.51100000000E-03 0.  1.
        -12    1    3    3    0    0  0.14312042817E+02 -0.25684844592E+02  0.47646963352E+01  0.29786710837E+02  0.00000000000E+00 0.  1.
</event>
<event>
 7    1  0.7313719E-013  0.5930192E+02  0.7816164E-02  0.1266605E+00
        -11   -1    0    0    0    0  0.00000000000E+00  0.00000000000E+00  0.45593999997E+02  0.45594000000E+02  0.51100000000E-03 0.  1.
         11   -1    0    0    0    0 -0.00000000000E+00 -0.00000000000E+00 -0.45593999997E+02  0.45594000000E+02  0.51100000000E-03 0. -1.
    9900012    2    1    2    0    0  0.62111060514E+01  0.35131609790E+01 -0.31077352720E+02  0.59301921681E+02  0.49999959245E+02 0.  0.
        -12    1    1    2    0    0 -0.62111060514E+01 -0.35131609790E+01  0.31077352720E+02  0.31886078319E+02  0.00000000000E+00 0.  1.
         11    1    3    3    0    0 -0.18906789097E+02 -0.63019687885E+01 -0.13773462516E+02  0.24225807613E+02  0.51100000000E-03 0. -1.
        -11    1    3    3    0    0  0.24093820526E+01 -0.34272211265E+01 -0.18230897226E+01  0.45688754550E+01  0.51100000000E-03 0.  1.
        -12    1    3    3    0    0  0.22708513096E+02  0.13242350894E+02 -0.15480800482E+02  0.30507238613E+02  0.00000000000E+00 0.  1.
</event>
<event>
 7    1  0.7313719E-013  0.5930194E+02  0.7816164E-02  0.1266605E+00
        -11   -1    0    0    0    0  0.00000000000E+00  0.00000000000E+00  0.45593999997E+02  0.45594000000E+02  0.51100000000E-03 0.  1.
         11   -1    0    0    0    0 -0.00000000000E+00 -0.00000000000E+00 -0.45593999997E+02  0.45594000000E+02  0.51100000000E-03 0. -1.
    9900012    2    1    2    0    0 -0.16653731207E+02 -0.12096347069E+01 -0.27164518886E+02  0.59301936186E+02  0.49999985699E+02 0.  0.
        -12    1    1    2    0    0  0.16653731207E+02  0.12096347069E+01  0.27164518886E+02  0.31886063814E+02  0.00000000000E+00 0.  1.
         11    1    3    3    0    0  0.32698873640E+01 -0.12724844042E+02 -0.40656807571E+01  0.13752948031E+02  0.51100000000E-03 0. -1.
        -11    1    3    3    0    0 -0.12144470783E+02 -0.10075491044E+02 -0.13129704163E+02  0.20527854785E+02  0.51100000000E-03 0.  1.
        -12    1    3    3    0    0 -0.77791477878E+01  0.21590700379E+02 -0.99691339657E+01  0.25021133371E+02  0.00000000000E+00 0.  1.
</event>
<event>
 7    1  0.9356894E-013  0.5930194E+02  0.7816164E-02  0.1266605E+00
        -11   -1    0    0    0    0  0.00000000000E+00  0.00000000000E+00  0.45593999997E+02  0.45594000000E+02  0.51100000000E-03 0. -1.
         11   -1    0    0    0    0 -0.00000000000E+00 -0.00000000000E+00 -0.45593999997E+02  0.45594000000E+02  0.51100000000E-03 0.  1.
    9900012    2    1    2    0    0 -0.15411327004E+02  0.25136496929E+02  0.12139534054E+02  0.59301940900E+02  0.49999994296E+02 0.  0.
        -12    1    1    2    0    0  0.15411327004E+02 -0.25136496929E+02 -0.12139534054E+02  0.31886059100E+02  0.00000000000E+00 0.  1.
         11    1    3    3    0    0 -0.84277973926E+01  0.10577412530E+02  0.15295271274E+02  0.20417021044E+02  0.51100000000E-03 0. -1.
        -11    1    3    3    0    0 -0.14294012516E+02 -0.59733573175E+01 -0.65636914307E+01  0.16825036015E+02  0.51100000000E-03 0.  1.
         12    1    3    3    0    0  0.73104829054E+01  0.20532441717E+02  0.34079542105E+01  0.22059883841E+02  0.00000000000E+00 0. -1.
</event>
<event>
 7    1  0.7313719E-013  0.5930193E+02  0.7816164E-02  0.1266605E+00
        -11   -1    0    0    0    0  0.00000000000E+00  0.00000000000E+00  0.45593999997E+02  0.45594000000E+02  0.51100000000E-03 0.  1.
         11   -1    0    0    0    0 -0.00000000000E+00 -0.00000000000E+00 -0.45593999997E+02  0.45594000000E+02  0.51100000000E-03 0. -1.
    9900012    2    1    2    0    0  0.28385400056E+02 -0.95760460741E+01  0.10921986907E+02  0.59301931055E+02  0.49999976341E+02 0.  0.
        -12    1    1    2    0    0 -0.28385400056E+02  0.95760460741E+01 -0.10921986907E+02  0.31886068945E+02  0.00000000000E+00 0.  1.
         11    1    3    3    0    0 -0.29769852977E+01 -0.38541132666E+01  0.10560231950E+02  0.11629064005E+02  0.51100000000E-03 0. -1.
        -11    1    3    3    0    0  0.11677567107E+02  0.10292154537E+02  0.12097932975E+02  0.19714309551E+02  0.51100000000E-03 0.  1.
         12    1    3    3    0    0  0.19684818247E+02 -0.16014087345E+02 -0.11736178018E+02  0.27958557499E+02  0.00000000000E+00 0. -1.
</event>
<event>
 7    1  0.7313719E-013  0.5930194E+02  0.7816164E-02  0.1266605E+00
        -11   -1    0    0    0    0  0.00000000000E+00  0.00000000000E+00  0.45593999997E+02  0.45594000000E+02  0.51100000000E-03 0. -1.
         11   -1    0    0    0    0 -0.00000000000E+00 -0.00000000000E+00 -0.45593999997E+02  0.45594000000E+02  0.51100000000E-03 0.  1.
    9900012    2    1    2    0    0  0.11082369455E+02  0.22071324616E+02  0.20168256346E+02  0.59301939612E+02  0.49999991947E+02 0.  0.
        -12    1    1    2    0    0 -0.11082369455E+02 -0.22071324616E+02 -0.20168256346E+02  0.31886060388E+02  0.00000000000E+00 0.  1.
         11    1    3    3    0    0  0.18861534218E+02  0.45102551555E+01  0.11299107349E+02  0.22444814585E+02  0.51100000000E-03 0. -1.
        -11    1    3    3    0    0  0.29077014880E+01  0.66906463391E+01  0.17767023089E+02  0.19206420439E+02  0.51100000000E-03 0.  1.
        -12    1    3    3    0    0 -0.10686866251E+02  0.10870423121E+02 -0.88978740916E+01  0.17650704588E+02  0.00000000000E+00 0.  1.
</event>
<event>
 7    1  0.7313719E-013  0.5930191E+02  0.7816164E-02  0.1266605E+00
        -11   -1    0    0    0    0  0.00000000000E+00  0.00000000000E+00  0.45593999997E+02  0.45594000000E+02  0.51100000000E-03 0. -1.
         11   -1    0    0    0    0 -0.00000000000E+00 -0.00000000000E+00 -0.45593999997E+02  0.45594000000E+02  0.51100000000E-03 0.  1.
    9900012    2    1    2    0    0 -0.23552053827E+02 -0.13410158541E+02  0.16798541856E+02  0.59301912124E+02  0.49999941815E+02 0.  0.
        -12    1    1    2    0    0  0.23552053827E+02  0.13410158541E+02 -0.16798541856E+02  0.31886087876E+02  0.00000000000E+00 0.  1.
         11    1    3    3    0    0  0.56448948555E+01  0.65270143747E+01  0.18900682298E+02  0.20777452832E+02  0.51100000000E-03 0. -1.
        -11    1    3    3    0    0 -0.13054540887E+02 -0.35518431358E+00 -0.14342492260E+01  0.13137894229E+02  0.51100000000E-03 0.  1.
        -12    1    3    3    0    0 -0.16142407795E+02 -0.19581988602E+02 -0.66789121569E+00  0.25386565063E+02  0.00000000000E+00 0.  1.
</event>
<event>
 7    1  0.7313719E-013  0.5930195E+02  0.7816164E-02  0.1266605E+00
        -11   -1    0    0    0    0  0.00000000000E+00  0.00000000000E+00  0.45593999997E+02  0.45594000000E+02  0.51100000000E-03 0.  1.
         11   -1    0    0    0    0 -0.00000000000E+00 -0.00000000000E+00 -0.45593999997E+02  0.45594000000E+02  0.51100000000E-03 0. -1.
    9900012    2    1    2    0    0 -0.62732332812E+01  0.23651756391E+02 -0.20444104549E+02  0.59301945885E+02  0.50000003388E+02 0.  0.
        -12    1    1    2    0    0  0.62732332812E+01 -0.23651756391E+02  0.20444104549E+02  0.31886054115E+02  0.00000000000E+00 0.  1.
         11    1    3    3    0    0  0.15105365125E+02  0.64457170583E+01 -0.72261951971E+01  0.17942609098E+02  0.51100000000E-03 0. -1.
        -11    1    3    3    0    0  0.83060888995E+00  0.54431637705E+01 -0.15183105177E+02  0.16150685002E+02  0.51100000000E-03 0.  1.
        -12    1    3    3    0    0 -0.22209207296E+02  0.11762875563E+02  0.19651958255E+01  0.25208651785E+02  0.00000000000E+00 0.  1.
</event>
<event>
 7    1  0.7313719E-013  0.5930195E+02  0.7816164E-02  0.1266605E+00
        -11   -1    0    0    0    0  0.00000000000E+00  0.00000000000E+00  0.45593999997E+02  0.45594000000E+02  0.51100000000E-03 0. -1.
         11   -1    0    0    0    0 -0.00000000000E+00 -0.00000000000E+00 -0.45593999997E+02  0.45594000000E+02  0.51100000000E-03 0.  1.
    9900012    2    1    2    0    0  0.21813336850E+02  0.14217503258E+02  0.18405466353E+02  0.59301948894E+02  0.50000008876E+02 0.  0.
        -12    1    1    2    0    0 -0.21813336850E+02 -0.14217503258E+02 -0.18405466353E+02  0.31886051106E+02  0.00000000000E+00 0.  1.
         11    1    3    3    0    0  0.18121093697E+02 -0.32193491906E+01  0.20823056732E+02  0.27790968639E+02  0.51100000000E-03 0. -1.
        -11    1    3    3    0    0  0.12586622547E+02  0.92074028801E+00 -0.17432104981E+01  0.12740079000E+02  0.51100000000E-03 0.  1.
        -12    1    3    3    0    0 -0.88943793937E+01  0.16516112161E+02 -0.67437988131E+00  0.18770901255E+02  0.00000000000E+00 0.  1.
</event>
<event>
 7    1  0.7313719E-013  0.5930194E+02  0.7816164E-02  0.1266605E+00
        -11   -1    0    0    0    0  0.00000000000E+00  0.00000000000E+00  0.45593999997E+02  0.45594000000E+02  0.51100000000E-03 0.  1.
         11   -1    0    0    0    0 -0.00000000000E+00 -0.00000000000E+00 -0.45593999997E+02  0.45594000000E+02  0.51100000000E-03 0. -1.
    9900012    2    1    2    0    0  0.84086849039E+01  0.30727292313E+02  0.13595709675E+01  0.59301938658E+02  0.49999990207E+02 0.  0.
        -12    1    1    2    0    0 -0.84086849039E+01 -0.30727292313E+02 -0.13595709675E+01  0.31886061342E+02  0.00000000000E+00 0.  1.
         11    1    3    3    0    0  0.13549466147E+02 -0.44893957676E+00 -0.11738016901E+02  0.17932390265E+02  0.51100000000E-03 0. -1.
        -11    1    3    3    0    0 -0.15490787929E+01 -0.37839954641E+01  0.11052088176E+01  0.42355346263E+01  0.51100000000E-03 0.  1.
         12    1    3    3    0    0 -0.35917024500E+01  0.34960227354E+02  0.11992379051E+02  0.37134013766E+02  0.00000000000E+00 0. -1.
</event>
<event>
 7    1  0.1554767E-012  0.5930191E+02  0.7816164E-02  0.1266605E+00
        -11   -1    0    0    0    0  0.00000000000E+00  0.00000000000E+00  0.45593999997E+02  0.45594000000E+02  0.51100000000E-03 0. -1.
         11   -1    0    0    0    0 -0.00000000000E+00 -0.00000000000E+00 -0.45593999997E+02  0.45594000000E+02  0.51100000000E-03 0.  1.
    9900012    2    1    2    0    0 -0.20663987192E+02 -0.80961688777E+01  0.22894852978E+02  0.59301911967E+02  0.49999941528E+02 0.  0.
        -12    1    1    2    0    0  0.20663987192E+02  0.80961688777E+01 -0.22894852978E+02  0.31886088033E+02  0.00000000000E+00 0.  1.
         11    1    3    3    0    0  0.57144471696E+01  0.71535946143E+01  0.28310015748E+01  0.95834958412E+01  0.51100000000E-03 0. -1.
        -11    1    3    3    0    0 -0.73894871600E+00 -0.57701141993E+01 -0.84235671490E+01  0.10237028224E+02  0.51100000000E-03 0.  1.
         12    1    3    3    0    0 -0.25639485646E+02 -0.94796492928E+01  0.28487418552E+02  0.39481387902E+02  0.00000000000E+00 0. -1.
</event>
<event>
 7    1  0.7313719E-013  0.5930191E+02  0.7816164E-02  0.1266605E+00
        -11   -1    0    0    0    0  0.00000000000E+00  0.00000000000E+00  0.45593999997E+02  0.45594000000E+02  0.51100000000E-03 0. -1.
         11   -1    0    0    0    0 -0.00000000000E+00 -0.00000000000E+00 -0.45593999997E+02  0.45594000000E+02  0.51100000000E-03 0.  1.
    9900012    2    1    2    0    0  0.29628640805E+02  0.11460609536E+02 -0.27424132150E+01  0.59301909660E+02  0.49999937322E+02 0.  0.
        -12    1    1    2    0    0 -0.29628640805E+02 -0.11460609536E+02  0.27424132150E+01  0.31886090340E+02  0.00000000000E+00 0.  1.
         11    1    3    3    0    0  0.21880144399E+02  0.90853889562E+01 -0.59327589063E+01  0.24422994081E+02  0.51100000000E-03 0. -1.
        -11    1    3    3    0    0  0.25874438004E+01  0.14513967968E+02 -0.87016590621E+01  0.17119258228E+02  0.51100000000E-03 0.  1.
        -12    1    3    3    0    0  0.51610526060E+01 -0.12138747388E+02  0.11892004753E+02  0.17759657351E+02  0.00000000000E+00 0.  1.
</event>
<event>
 7    1  0.7313719E-013  0.5930202E+02  0.7816164E-02  0.1266604E+00
        -11   -1    0    0    0    0  0.00000000000E+00  0.00000000000E+00  0.45593999997E+02  0.45594000000E+02  0.51100000000E-03 0. -1.
         11   -1    0    0    0    0 -0.00000000000E+00 -0.00000000000E+00 -0.45593999997E+02  0.45594000000E+02  0.51100000000E-03 0.  1.
    9900012    2    1    2    0    0 -0.93925340155E+01  0.27641400573E+02  0.12823761602E+02  0.59302022165E+02  0.50000142503E+02 0.  0.
        -12    1    1    2    0    0  0.93925340155E+01 -0.27641400573E+02 -0.12823761602E+02  0.31885977835E+02  0.00000000000E+00 0.  1.
         11    1    3    3    0    0  0.12222467112E+02  0.21588985518E+02  0.21134469184E+02  0.32590470784E+02  0.51100000000E-03 0. -1.
        -11    1    3    3    0    0  0.11048337454E+01  0.44827231663E+00  0.97053531932E+00  0.15373824319E+01  0.51100000000E-03 0.  1.
        -12    1    3    3    0    0 -0.22719834873E+02  0.56041427387E+01 -0.92812429008E+01  0.25174168949E+02  0.00000000000E+00 0.  1.
</event>
<event>
 7    1  0.7313719E-013  0.5930194E+02  0.7816164E-02  0.1266605E+00
        -11   -1    0    0    0    0  0.00000000000E+00  0.00000000000E+00  0.45593999997E+02  0.45594000000E+02  0.51100000000E-03 0.  1.
         11   -1    0    0    0    0 -0.00000000000E+00 -0.00000000000E+00 -0.45593999997E+02  0.45594000000E+02  0.51100000000E-03 0. -1.
    9900012    2    1    2    0    0  0.31811922310E+02  0.20407196994E+01  0.74676326981E+00  0.59301943591E+02  0.49999999203E+02 0.  0.
        -12    1    1    2    0    0 -0.31811922310E+02 -0.20407196994E+01 -0.74676326981E+00  0.31886056409E+02  0.00000000000E+00 0.  1.
         11    1    3    3    0    0  0.28259562326E+02  0.31461327745E+01 -0.15566427644E+02  0.32416271904E+02  0.51100000000E-03 0. -1.
        -11    1    3    3    0    0  0.11938179475E+02  0.43743956651E+00  0.13213545374E+02  0.17813176701E+02  0.51100000000E-03 0.  1.
        -12    1    3    3    0    0 -0.83858194910E+01 -0.15428526415E+01  0.30996455397E+01  0.90724949865E+01  0.00000000000E+00 0.  1.
</event>
<event>
 7    1  0.7313719E-013  0.5930194E+02  0.7816164E-02  0.1266605E+00
        -11   -1    0    0    0    0  0.00000000000E+00  0.00000000000E+00  0.45593999997E+02  0.45594000000E+02  0.51100000000E-03 0. -1.
         11   -1    0    0    0    0 -0.00000000000E+00 -0.00000000000E+00 -0.45593999997E+02  0.45594000000E+02  0.51100000000E-03 0.  1.
    9900012    2    1    2    0    0  0.20275154606E+02  0.19872965391E+02 -0.14515642146E+02  0.59301944824E+02  0.50000001453E+02 0.  0.
        -12    1    1    2    0    0 -0.20275154606E+02 -0.19872965391E+02  0.14515642146E+02  0.31886055176E+02  0.00000000000E+00 0.  1.
         11    1    3    3    0    0  0.14865427849E+01  0.14587811942E+02  0.77559089223E+01  0.16588194301E+02  0.51100000000E-03 0. -1.
        -11    1    3    3    0    0 -0.42486676848E+01 -0.30543020347E+01  0.41518205060E+01  0.66796371002E+01  0.51100000000E-03 0.  1.
        -12    1    3    3    0    0  0.23037279506E+02  0.83394554839E+01 -0.26423371575E+02  0.36034113423E+02  0.00000000000E+00 0.  1.
</event>
<event>
 7    1  0.7313719E-013  0.5930195E+02  0.7816164E-02  0.1266605E+00
        -11   -1    0    0    0    0  0.00000000000E+00  0.00000000000E+00  0.45593999997E+02  0.45594000000E+02  0.51100000000E-03 0.  1.
         11   -1    0    0    0    0 -0.00000000000E+00 -0.00000000000E+00 -0.45593999997E+02  0.45594000000E+02  0.51100000000E-03 0. -1.
    9900012    2    1    2    0    0 -0.10326403758E+02  0.11239946860E+02 -0.27995523876E+02  0.59301946982E+02  0.50000005388E+02 0.  0.
        -12    1    1    2    0    0  0.10326403758E+02 -0.11239946860E+02  0.27995523876E+02  0.31886053018E+02  0.00000000000E+00 0.  1.
         11    1    3    3    0    0  0.87962654335E+01  0.59656305333E+00 -0.47907649354E+01  0.10034022223E+02  0.51100000000E-03 0. -1.
        -11    1    3    3    0    0 -0.59745282595E+01  0.13179795915E+02 -0.30687684532E+02  0.33928395047E+02  0.51100000000E-03 0.  1.
        -12    1    3    3    0    0 -0.13148140932E+02 -0.25364121090E+01  0.74829255915E+01  0.15339529711E+02  0.00000000000E+00 0.  1.
</event>
<event>
 7    1  0.7313719E-013  0.5930195E+02  0.7816164E-02  0.1266605E+00
        -11   -1    0    0    0    0  0.00000000000E+00  0.00000000000E+00  0.45593999997E+02  0.45594000000E+02  0.51100000000E-03 0. -1.
         11   -1    0    0    0    0 -0.00000000000E+00 -0.00000000000E+00 -0.45593999997E+02  0.45594000000E+02  0.51100000000E-03 0.  1.
    9900012    2    1    2    0    0 -0.86303858785E+01  0.20438040752E+02  0.22902472755E+02  0.59301947744E+02  0.50000006778E+02 0.  0.
        -12    1    1    2    0    0  0.86303858785E+01 -0.20438040752E+02 -0.22902472755E+02  0.31886052256E+02  0.00000000000E+00 0.  1.
         11    1    3    3    0    0 -0.56077165206E+01 -0.21611894765E+01  0.13154037871E+01  0.61520331528E+01  0.51100000000E-03 0. -1.
        -11    1    3    3    0    0 -0.14042159647E+02 -0.16291581667E+01 -0.55052247538E+01  0.15170494512E+02  0.51100000000E-03 0.  1.
         12    1    3    3    0    0  0.11019490289E+02  0.24228388395E+02  0.27092293722E+02  0.37979420079E+02  0.00000000000E+00 0. -1.
</event>
<event>
 7    1  0.7313719E-013  0.5930195E+02  0.7816164E-02  0.1266605E+00
        -11   -1    0    0    0    0  0.00000000000E+00  0.00000000000E+00  0.45593999997E+02  0.45594000000E+02  0.51100000000E-03 0. -1.
         11   -1    0    0    0    0 -0.00000000000E+00 -0.00000000000E+00 -0.45593999997E+02  0.45594000000E+02  0.51100000000E-03 0.  1.
    9900012    2    1    2    0    0  0.14828525843E+02  0.61984053956E+01  0.27539329911E+02  0.59301951325E+02  0.50000013309E+02 0.  0.
        -12    1    1    2    0    0 -0.14828525843E+02 -0.61984053956E+01 -0.27539329911E+02  0.31886048675E+02  0.00000000000E+00 0.  1.
         11    1    3    3    0    0  0.11865163787E+02  0.16718144171E+02  0.13947964697E+01  0.20548087835E+02  0.51100000000E-03 0. -1.
        -11    1    3    3    0    0 -0.19379920705E+01 -0.58754556881E+01 -0.43227143019E+01  0.75473605986E+01  0.51100000000E-03 0.  1.
        -12    1    3    3    0    0  0.49013541274E+01 -0.46442830873E+01  0.30467247743E+02  0.31206502892E+02  0.00000000000E+00 0.  1.
</event>
<event>
 7    1  0.7313719E-013  0.5930186E+02  0.7816164E-02  0.1266605E+00
        -11   -1    0    0    0    0  0.00000000000E+00  0.00000000000E+00  0.45593999997E+02  0.45594000000E+02  0.51100000000E-03 0. -1.
         11   -1    0    0    0    0 -0.00000000000E+00 -0.00000000000E+00 -0.45593999997E+02  0.45594000000E+02  0.51100000000E-03 0.  1.
    9900012    2    1    2    0    0 -0.11968805278E+01  0.31366449374E+02  0.56070931532E+01  0.59301856255E+02  0.49999839923E+02 0.  0.
        -12    1    1    2    0    0  0.11968805278E+01 -0.31366449374E+02 -0.56070931532E+01  0.31886143745E+02  0.00000000000E+00 0.  1.
         11    1    3    3    0    0  0.12349212503E+02  0.66310227225E+00  0.99813891032E+01  0.15892478811E+02  0.51100000000E-03 0. -1.
        -11    1    3    3    0    0  0.32126912851E+01  0.35653531420E+01 -0.99342898703E+01  0.11032825740E+02  0.51100000000E-03 0.  1.
         12    1    3    3    0    0 -0.16758784315E+02  0.27137993959E+02  0.55599939203E+01  0.32376551704E+02  0.00000000000E+00 0. -1.
</event>
<event>
 7    1  0.7313719E-013  0.5930195E+02  0.7816164E-02  0.1266605E+00
        -11   -1    0    0    0    0  0.00000000000E+00  0.00000000000E+00  0.45593999997E+02  0.45594000000E+02  0.51100000000E-03 0.  1.
         11   -1    0    0    0    0 -0.00000000000E+00 -0.00000000000E+00 -0.45593999997E+02  0.45594000000E+02  0.51100000000E-03 0. -1.
    9900012    2    1    2    0    0 -0.19491037333E+02  0.24802886969E+02 -0.46514796897E+01  0.59301952869E+02  0.50000016125E+02 0.  0.
        -12    1    1    2    0    0  0.19491037333E+02 -0.24802886969E+02  0.46514796897E+01  0.31886047131E+02  0.00000000000E+00 0.  1.
         11    1    3    3    0    0 -0.16929725064E+02  0.16208968284E+02 -0.85215269006E+01  0.24939179308E+02  0.51100000000E-03 0. -1.
        -11    1    3    3    0    0  0.19733834653E+01  0.11219571372E+02 -0.12654846336E+02  0.17026983295E+02  0.51100000000E-03 0.  1.
        -12    1    3    3    0    0 -0.45346957337E+01 -0.26256526872E+01  0.16524893547E+02  0.17335790266E+02  0.00000000000E+00 0.  1.
</event>
<event>
 7    1  0.7313719E-013  0.5930195E+02  0.7816164E-02  0.1266605E+00
        -11   -1    0    0    0    0  0.00000000000E+00  0.00000000000E+00  0.45593999997E+02  0.45594000000E+02  0.51100000000E-03 0.  1.
         11   -1    0    0    0    0 -0.00000000000E+00 -0.00000000000E+00 -0.45593999997E+02  0.45594000000E+02  0.51100000000E-03 0. -1.
    9900012    2    1    2    0    0  0.21491661704E+02 -0.22439620842E+02 -0.71618265696E+01  0.59301954994E+02  0.50000020000E+02 0.  0.
        -12    1    1    2    0    0 -0.21491661704E+02  0.22439620842E+02  0.71618265696E+01  0.31886045006E+02  0.00000000000E+00 0.  1.
         11    1    3    3    0    0 -0.81102297234E+00 -0.14965458638E+02  0.57548254334E+01  0.16054305546E+02  0.51100000000E-03 0. -1.
        -11    1    3    3    0    0 -0.33149308943E+01  0.43764289574E+01  0.68574332851E+01  0.87844344595E+01  0.51100000000E-03 0.  1.
         12    1    3    3    0    0  0.25617615571E+02 -0.11850591161E+02 -0.19774085288E+02  0.34463214989E+02  0.00000000000E+00 0. -1.
</event>
<event>
 7    1  0.7313719E-013  0.5930194E+02  0.7816164E-02  0.1266605E+00
        -11   -1    0    0    0    0  0.00000000000E+00  0.00000000000E+00  0.45593999997E+02  0.45594000000E+02  0.51100000000E-03 0.  1.
         11   -1    0    0    0    0 -0.00000000000E+00 -0.00000000000E+00 -0.45593999997E+02  0.45594000000E+02  0.51100000000E-03 0. -1.
    9900012    2    1    2    0    0  0.19582160670E+02  0.25001723135E+02 -0.28589396908E+01  0.59301941724E+02  0.49999995798E+02 0.  0.
        -12    1    1    2    0    0 -0.19582160670E+02 -0.25001723135E+02  0.28589396908E+01  0.31886058276E+02  0.00000000000E+00 0.  1.
         11    1    3    3    0    0 -0.29849771012E+01  0.20432931599E+02  0.13658098204E+02  0.24757997270E+02  0.51100000000E-03 0.  1.
        -11    1    3    3    0    0  0.11717049861E+02  0.24398329445E+01  0.27951705921E+01  0.12290444302E+02  0.51100000000E-03 0. -1.
         12    1    3    3    0    0  0.10850087910E+02  0.21289585914E+01 -0.19312208487E+02  0.22253500151E+02  0.00000000000E+00 0. -1.
</event>
<event>
 7    1  0.7313719E-013  0.5930194E+02  0.7816164E-02  0.1266605E+00
        -11   -1    0    0    0    0  0.00000000000E+00  0.00000000000E+00  0.45593999997E+02  0.45594000000E+02  0.51100000000E-03 0.  1.
         11   -1    0    0    0    0 -0.00000000000E+00 -0.00000000000E+00 -0.45593999997E+02  0.45594000000E+02  0.51100000000E-03 0. -1.
    9900012    2    1    2    0    0 -0.29511281194E+02  0.10728574711E+02 -0.55410120997E+01  0.59301939595E+02  0.49999991916E+02 0.  0.
        -12    1    1    2    0    0  0.29511281194E+02 -0.10728574711E+02  0.55410120997E+01  0.31886060405E+02  0.00000000000E+00 0.  1.
         11    1    3    3    0    0 -0.47560265147E+01 -0.37232532982E+01 -0.14753677268E+01  0.62176453358E+01  0.51100000000E-03 0. -1.
        -11    1    3    3    0    0 -0.30765312922E+02 -0.40095696046E+01  0.53881494574E+01  0.31489891750E+02  0.51100000000E-03 0.  1.
         12    1    3    3    0    0  0.60100582424E+01  0.18461397614E+02 -0.94537938303E+01  0.21594402509E+02  0.00000000000E+00 0. -1.
</event>
<event>
 7    1  0.7313719E-013  0.5930195E+02  0.7816164E-02  0.1266605E+00
        -11   -1    0    0    0    0  0.00000000000E+00  0.00000000000E+00  0.45593999997E+02  0.45594000000E+02  0.51100000000E-03 0.  1.
         11   -1    0    0    0    0 -0.00000000000E+00 -0.00000000000E+00 -0.45593999997E+02  0.45594000000E+02  0.51100000000E-03 0. -1.
    9900012    2    1    2    0    0  0.14212795829E+02  0.21508593665E+02 -0.18764252152E+02  0.59301947790E+02  0.50000006861E+02 0.  0.
        -12    1    1    2    0    0 -0.14212795829E+02 -0.21508593665E+02  0.18764252152E+02  0.31886052210E+02  0.00000000000E+00 0.  1.
         11    1    3    3    0    0  0.17383993648E+01  0.13135037385E+02 -0.18705316748E+02  0.22922480546E+02  0.51100000000E-03 0. -1.
        -11    1    3    3    0    0 -0.96261477160E+01  0.10407790356E+02 -0.40742309862E+00  0.14182764673E+02  0.51100000000E-03 0.  1.
         12    1    3    3    0    0  0.22100544181E+02 -0.20342340756E+01  0.34848769507E+00  0.22196702571E+02  0.00000000000E+00 0. -1.
</event>
<event>
 7    1  0.7313719E-013  0.5930193E+02  0.7816164E-02  0.1266605E+00
        -11   -1    0    0    0    0  0.00000000000E+00  0.00000000000E+00  0.45593999997E+02  0.45594000000E+02  0.51100000000E-03 0. -1.
         11   -1    0    0    0    0 -0.00000000000E+00 -0.00000000000E+00 -0.45593999997E+02  0.45594000000E+02  0.51100000000E-03 0.  1.
    9900012    2    1    2    0    0  0.20870332431E+02 -0.19396833701E+02 -0.14314808755E+02  0.59301926502E+02  0.49999968037E+02 0.  0.
        -12    1    1    2    0    0 -0.20870332431E+02  0.19396833701E+02  0.14314808755E+02  0.31886073498E+02  0.00000000000E+00 0.  1.
         11    1    3    3    0    0  0.65514569971E+01  0.38128326986E+01  0.96857970060E+00  0.76418210440E+01  0.51100000000E-03 0. -1.
        -11    1    3    3    0    0 -0.34470879652E+00  0.32973931675E+01 -0.20633904450E+02  0.20898555907E+02  0.51100000000E-03 0.  1.
         12    1    3    3    0    0  0.14663584231E+02 -0.26507059567E+02  0.53505159945E+01  0.30761549551E+02  0.00000000000E+00 0. -1.
</event>
<event>
 7    1  0.7313719E-013  0.5930193E+02  0.7816164E-02  0.1266605E+00
        -11   -1    0    0    0    0  0.00000000000E+00  0.00000000000E+00  0.45593999997E+02  0.45594000000E+02  0.51100000000E-03 0. -1.
         11   -1    0    0    0    0 -0.00000000000E+00 -0.00000000000E+00 -0.45593999997E+02  0.45594000000E+02  0.51100000000E-03 0.  1.
    9900012    2    1    2    0    0 -0.27866679365E+02 -0.12595554631E+01  0.15446127887E+02  0.59301934618E+02  0.49999982839E+02 0.  0.
        -12    1    1    2    0    0  0.27866679365E+02  0.12595554631E+01 -0.15446127887E+02  0.31886065382E+02  0.00000000000E+00 0.  1.
         11    1    3    3    0    0 -0.40623510535E+00  0.39567637997E+01 -0.13664346580E+01  0.42057283154E+01  0.51100000000E-03 0. -1.
        -11    1    3    3    0    0 -0.15712202511E+02  0.17283302051E+02 -0.20865915731E+01  0.23450793210E+02  0.51100000000E-03 0.  1.
         12    1    3    3    0    0 -0.11748241749E+02 -0.22499621313E+02  0.18899154118E+02  0.31645413093E+02  0.00000000000E+00 0. -1.
</event>
<event>
 7    1  0.7313719E-013  0.5930198E+02  0.7816164E-02  0.1266605E+00
        -11   -1    0    0    0    0  0.00000000000E+00  0.00000000000E+00  0.45593999997E+02  0.45594000000E+02  0.51100000000E-03 0. -1.
         11   -1    0    0    0    0 -0.00000000000E+00 -0.00000000000E+00 -0.45593999997E+02  0.45594000000E+02  0.51100000000E-03 0.  1.
    9900012    2    1    2    0    0  0.10535325347E+02  0.29243057482E+02 -0.71111858528E+01  0.59301977117E+02  0.50000060346E+02 0.  0.
        -12    1    1    2    0    0 -0.10535325347E+02 -0.29243057482E+02  0.71111858528E+01  0.31886022883E+02  0.00000000000E+00 0.  1.
         11    1    3    3    0    0  0.50057515364E+01  0.47181903219E+01 -0.58283347461E+01  0.90160054642E+01  0.51100000000E-03 0. -1.
        -11    1    3    3    0    0 -0.13390943886E+02  0.49422786827E+01 -0.14211942146E+02  0.20142561817E+02  0.51100000000E-03 0.  1.
         12    1    3    3    0    0  0.18920517697E+02  0.19582588478E+02  0.12929091039E+02  0.30143409835E+02  0.00000000000E+00 0. -1.
</event>
<event>
 7    1  0.7313719E-013  0.5930194E+02  0.7816164E-02  0.1266605E+00
        -11   -1    0    0    0    0  0.00000000000E+00  0.00000000000E+00  0.45593999997E+02  0.45594000000E+02  0.51100000000E-03 0.  1.
         11   -1    0    0    0    0 -0.00000000000E+00 -0.00000000000E+00 -0.45593999997E+02  0.45594000000E+02  0.51100000000E-03 0. -1.
    9900012    2    1    2    0    0 -0.16005452508E+02 -0.14899637155E+02 -0.23206615334E+02  0.59301942034E+02  0.49999996364E+02 0.  0.
        -12    1    1    2    0    0  0.16005452508E+02  0.14899637155E+02  0.23206615334E+02  0.31886057966E+02  0.00000000000E+00 0.  1.
         11    1    3    3    0    0 -0.15031848996E+00 -0.14855474936E+02 -0.20166032109E+02  0.25047486550E+02  0.51100000000E-03 0. -1.
        -11    1    3    3    0    0  0.78968170987E+01 -0.11631193229E+01  0.46816285848E+01  0.92536594554E+01  0.51100000000E-03 0.  1.
        -12    1    3    3    0    0 -0.23751951116E+02  0.11189571034E+01 -0.77222118105E+01  0.25000796029E+02  0.00000000000E+00 0.  1.
</event>
<event>
 7    1  0.7313719E-013  0.5930183E+02  0.7816164E-02  0.1266605E+00
        -11   -1    0    0    0    0  0.00000000000E+00  0.00000000000E+00  0.45593999997E+02  0.45594000000E+02  0.51100000000E-03 0.  1.
         11   -1    0    0    0    0 -0.00000000000E+00 -0.00000000000E+00 -0.45593999997E+02  0.45594000000E+02  0.51100000000E-03 0. -1.
    9900012    2    1    2    0    0 -0.33900180772E+01  0.86355801643E+01 -0.30506759653E+02  0.59301829772E+02  0.49999791624E+02 0.  0.
        -12    1    1    2    0    0  0.33900180772E+01 -0.86355801643E+01  0.30506759653E+02  0.31886170228E+02  0.00000000000E+00 0.  1.
         11    1    3    3    0    0  0.87283941395E+01  0.64876257434E+01 -0.17943424201E+01  0.11022423373E+02  0.51100000000E-03 0.  1.
        -11    1    3    3    0    0  0.25697596026E+01  0.10466859206E+02  0.39776516154E+01  0.11488277447E+02  0.51100000000E-03 0. -1.
         12    1    3    3    0    0 -0.14688171819E+02 -0.83189047856E+01 -0.32690068848E+02  0.36791128951E+02  0.00000000000E+00 0. -1.
</event>
<event>
 7    1  0.7313719E-013  0.5930193E+02  0.7816164E-02  0.1266605E+00
        -11   -1    0    0    0    0  0.00000000000E+00  0.00000000000E+00  0.45593999997E+02  0.45594000000E+02  0.51100000000E-03 0.  1.
         11   -1    0    0    0    0 -0.00000000000E+00 -0.00000000000E+00 -0.45593999997E+02  0.45594000000E+02  0.51100000000E-03 0. -1.
    9900012    2    1    2    0    0  0.43288884653E+01 -0.18293122882E+02 -0.25755463208E+02  0.59301929293E+02  0.49999973127E+02 0.  0.
        -12    1    1    2    0    0 -0.43288884653E+01  0.18293122882E+02  0.25755463208E+02  0.31886070707E+02  0.00000000000E+00 0.  1.
         11    1    3    3    0    0  0.88623979306E+01 -0.15846452111E+02  0.39942376160E+00  0.18160718080E+02  0.51100000000E-03 0. -1.
        -11    1    3    3    0    0  0.85712396185E+01 -0.45009131155E+00  0.30177125500E+01  0.90980943105E+01  0.51100000000E-03 0.  1.
         12    1    3    3    0    0 -0.13104749084E+02 -0.19965794594E+01 -0.29172599519E+02  0.32043116902E+02  0.00000000000E+00 0. -1.
</event>
<event>
 7    1  0.7313719E-013  0.5930183E+02  0.7816164E-02  0.1266605E+00
        -11   -1    0    0    0    0  0.00000000000E+00  0.00000000000E+00  0.45593999997E+02  0.45594000000E+02  0.51100000000E-03 0.  1.
         11   -1    0    0    0    0 -0.00000000000E+00 -0.00000000000E+00 -0.45593999997E+02  0.45594000000E+02  0.51100000000E-03 0. -1.
    9900012    2    1    2    0    0 -0.23718945896E+02  0.31280447938E+01 -0.21079730171E+02  0.59301826151E+02  0.49999785021E+02 0.  0.
        -12    1    1    2    0    0  0.23718945896E+02 -0.31280447938E+01  0.21079730171E+02  0.31886173849E+02  0.00000000000E+00 0.  1.
         11    1    3    3    0    0 -0.17275738581E+01 -0.95567709642E+01 -0.20202004721E+02  0.22415114939E+02  0.51100000000E-03 0. -1.
        -11    1    3    3    0    0 -0.36286506969E+01  0.88775751083E+00 -0.11873758727E+02  0.12447544571E+02  0.51100000000E-03 0.  1.
        -12    1    3    3    0    0 -0.18362721341E+02  0.11797058247E+02  0.10996033277E+02  0.24439166642E+02  0.00000000000E+00 0.  1.
</event>
<event>
 7    1  0.7313719E-013  0.5930193E+02  0.7816164E-02  0.1266605E+00
        -11   -1    0    0    0    0  0.00000000000E+00  0.00000000000E+00  0.45593999997E+02  0.45594000000E+02  0.51100000000E-03 0.  1.
         11   -1    0    0    0    0 -0.00000000000E+00 -0.00000000000E+00 -0.45593999997E+02  0.45594000000E+02  0.51100000000E-03 0. -1.
    9900012    2    1    2    0    0 -0.20029422651E+02 -0.24518698537E+02  0.37916993193E+01  0.59301931986E+02  0.49999978039E+02 0.  0.
        -12    1    1    2    0    0  0.20029422651E+02  0.24518698537E+02 -0.37916993193E+01  0.31886068014E+02  0.00000000000E+00 0.  1.
         11    1    3    3    0    0 -0.20430528141E+02 -0.90713694811E+01 -0.11830096794E+02  0.25291251745E+02  0.51100000000E-03 0. -1.
        -11    1    3    3    0    0  0.46642601019E+01 -0.30988325078E+00 -0.57916782107E+01  0.74427741256E+01  0.51100000000E-03 0.  1.
         12    1    3    3    0    0 -0.42631546114E+01 -0.15137445805E+02  0.21413474324E+02  0.26567906116E+02  0.00000000000E+00 0. -1.
</event>
<event>
 7    1  0.7313719E-013  0.5930193E+02  0.7816164E-02  0.1266605E+00
        -11   -1    0    0    0    0  0.00000000000E+00  0.00000000000E+00  0.45593999997E+02  0.45594000000E+02  0.51100000000E-03 0. -1.
         11   -1    0    0    0    0 -0.00000000000E+00 -0.00000000000E+00 -0.45593999997E+02  0.45594000000E+02  0.51100000000E-03 0.  1.
    9900012    2    1    2    0    0 -0.50844473578E+01 -0.31353482298E+02 -0.27980386735E+01  0.59301929725E+02  0.49999973916E+02 0.  0.
        -12    1    1    2    0    0  0.50844473578E+01  0.31353482298E+02  0.27980386735E+01  0.31886070275E+02  0.00000000000E+00 0.  1.
         11    1    3    3    0    0 -0.69441599047E+01 -0.27143976254E+02 -0.51776865847E+01  0.28492547136E+02  0.51100000000E-03 0.  1.
        -11    1    3    3    0    0 -0.53061472316E+01  0.23546031540E+01 -0.12071420303E+02  0.13394720708E+02  0.51100000000E-03 0. -1.
         12    1    3    3    0    0  0.71658597785E+01 -0.65641091980E+01  0.14451068214E+02  0.17414661882E+02  0.00000000000E+00 0. -1.
</event>
<event>
 7    1  0.7313719E-013  0.5930198E+02  0.7816164E-02  0.1266605E+00
        -11   -1    0    0    0    0  0.00000000000E+00  0.00000000000E+00  0.45593999997E+02  0.45594000000E+02  0.51100000000E-03 0. -1.
         11   -1    0    0    0    0 -0.00000000000E+00 -0.00000000000E+00 -0.45593999997E+02  0.45594000000E+02  0.51100000000E-03 0.  1.
    9900012    2    1    2    0    0 -0.30838093776E+02 -0.79897466081E+01  0.13763588728E+01  0.59301977320E+02  0.50000060718E+02 0.  0.
        -12    1    1    2    0    0  0.30838093776E+02  0.79897466081E+01 -0.13763588728E+01  0.31886022680E+02  0.00000000000E+00 0.  1.
         11    1    3    3    0    0 -0.29536836804E+01  0.24937099988E+00 -0.39412348849E+01  0.49315074631E+01  0.51100000000E-03 0. -1.
        -11    1    3    3    0    0 -0.24339839092E+02 -0.93047226441E+01 -0.17413092103E+02  0.31340411729E+02  0.51100000000E-03 0.  1.
         12    1    3    3    0    0 -0.35445710037E+01  0.10656050361E+01  0.22730685861E+02  0.23030058128E+02  0.00000000000E+00 0. -1.
</event>
<event>
 7    1  0.7313719E-013  0.5930173E+02  0.7816164E-02  0.1266605E+00
        -11   -1    0    0    0    0  0.00000000000E+00  0.00000000000E+00  0.45593999997E+02  0.45594000000E+02  0.51100000000E-03 0. -1.
         11   -1    0    0    0    0 -0.00000000000E+00 -0.00000000000E+00 -0.45593999997E+02  0.45594000000E+02  0.51100000000E-03 0.  1.
    9900012    2    1    2    0    0  0.20984845447E+02 -0.13416839893E+02 -0.19908761102E+02  0.59301731800E+02  0.49999612945E+02 0.  0.
        -12    1    1    2    0    0 -0.20984845447E+02  0.13416839893E+02  0.19908761102E+02  0.31886268200E+02  0.00000000000E+00 0.  1.
         11    1    3    3    0    0  0.10075047337E+02 -0.15078617233E+02  0.67244715609E+01  0.19341401049E+02  0.51100000000E-03 0. -1.
        -11    1    3    3    0    0  0.63076587111E+00  0.13801315813E+02 -0.11034415485E+02  0.17681417055E+02  0.51100000000E-03 0.  1.
         12    1    3    3    0    0  0.10279032239E+02 -0.12139538473E+02 -0.15598817178E+02  0.22278913695E+02  0.00000000000E+00 0. -1.
</event>
<event>
 7    1  0.7313719E-013  0.5930195E+02  0.7816164E-02  0.1266605E+00
        -11   -1    0    0    0    0  0.00000000000E+00  0.00000000000E+00  0.45593999997E+02  0.45594000000E+02  0.51100000000E-03 0. -1.
         11   -1    0    0    0    0 -0.00000000000E+00 -0.00000000000E+00 -0.45593999997E+02  0.45594000000E+02  0.51100000000E-03 0.  1.
    9900012    2    1    2    0    0  0.29796321442E+02  0.24481037886E+01  0.11086309285E+02  0.59301949176E+02  0.50000009389E+02 0.  0.
        -12    1    1    2    0    0 -0.29796321442E+02 -0.24481037886E+01 -0.11086309285E+02  0.31886050824E+02  0.00000000000E+00 0.  1.
         11    1    3    3    0    0  0.17136105100E+02 -0.16102655345E+01  0.60367872573E+01  0.18239568354E+02  0.51100000000E-03 0. -1.
        -11    1    3    3    0    0  0.15086505379E+02  0.15624353031E+02 -0.82840974916E+01  0.23245415112E+02  0.51100000000E-03 0.  1.
        -12    1    3    3    0    0 -0.24262890373E+01 -0.11565983708E+02  0.13333619519E+02  0.17816965710E+02  0.00000000000E+00 0.  1.
</event>
<event>
 7    1  0.7313719E-013  0.5930193E+02  0.7816164E-02  0.1266605E+00
        -11   -1    0    0    0    0  0.00000000000E+00  0.00000000000E+00  0.45593999997E+02  0.45594000000E+02  0.51100000000E-03 0.  1.
         11   -1    0    0    0    0 -0.00000000000E+00 -0.00000000000E+00 -0.45593999997E+02  0.45594000000E+02  0.51100000000E-03 0. -1.
    9900012    2    1    2    0    0  0.57325447140E+01  0.17733989265E+02 -0.25872084790E+02  0.59301933834E+02  0.49999981410E+02 0.  0.
        -12    1    1    2    0    0 -0.57325447140E+01 -0.17733989265E+02  0.25872084790E+02  0.31886066166E+02  0.00000000000E+00 0.  1.
         11    1    3    3    0    0 -0.54737985032E+01 -0.45591684431E+01  0.72467328936E+00  0.71605613316E+01  0.51100000000E-03 0. -1.
        -11    1    3    3    0    0 -0.97838041505E+01 -0.44951377530E+01 -0.53703659388E+01  0.12032037136E+02  0.51100000000E-03 0.  1.
         12    1    3    3    0    0  0.20990147368E+02  0.26788295461E+02 -0.21226392140E+02  0.40109335366E+02  0.00000000000E+00 0. -1.
</event>
<event>
 7    1  0.7313719E-013  0.5930196E+02  0.7816164E-02  0.1266605E+00
        -11   -1    0    0    0    0  0.00000000000E+00  0.00000000000E+00  0.45593999997E+02  0.45594000000E+02  0.51100000000E-03 0.  1.
         11   -1    0    0    0    0 -0.00000000000E+00 -0.00000000000E+00 -0.45593999997E+02  0.45594000000E+02  0.51100000000E-03 0. -1.
    9900012    2    1    2    0    0 -0.55631165030E+01 -0.30690416494E+02 -0.66234211018E+01  0.59301958588E+02  0.50000026555E+02 0.  0.
        -12    1    1    2    0    0  0.55631165030E+01  0.30690416494E+02  0.66234211018E+01  0.31886041412E+02  0.00000000000E+00 0.  1.
         11    1    3    3    0    0 -0.93600878076E+01  0.75244407256E+01 -0.50399064896E+01  0.13024174050E+02  0.51100000000E-03 0.  1.
        -11    1    3    3    0    0 -0.57022069831E+01 -0.29240943165E+02 -0.91655083283E+01  0.31169768443E+02  0.51100000000E-03 0. -1.
         12    1    3    3    0    0  0.94991782877E+01 -0.89739140553E+01  0.75819937161E+01  0.15108016095E+02  0.00000000000E+00 0. -1.
</event>
<event>
 7    1  0.7581935E-013  0.5930191E+02  0.7816164E-02  0.1266605E+00
        -11   -1    0    0    0    0  0.00000000000E+00  0.00000000000E+00  0.45593999997E+02  0.45594000000E+02  0.51100000000E-03 0.  1.
         11   -1    0    0    0    0 -0.00000000000E+00 -0.00000000000E+00 -0.45593999997E+02  0.45594000000E+02  0.51100000000E-03 0. -1.
    9900012    2    1    2    0    0 -0.16407243635E+02 -0.23290345398E+02  0.14320785102E+02  0.59301910268E+02  0.49999938431E+02 0.  0.
        -12    1    1    2    0    0  0.16407243635E+02  0.23290345398E+02 -0.14320785102E+02  0.31886089732E+02  0.00000000000E+00 0.  1.
         11    1    3    3    0    0  0.32538849350E+01 -0.38408520918E+00  0.12000414739E+02  0.12439664095E+02  0.51100000000E-03 0. -1.
        -11    1    3    3    0    0  0.39566071384E+01 -0.10122428840E+02 -0.12194803312E+02  0.16334978841E+02  0.51100000000E-03 0.  1.
         12    1    3    3    0    0 -0.23617735709E+02 -0.12783831349E+02  0.14515173674E+02  0.30527267332E+02  0.00000000000E+00 0. -1.
</event>
<event>
 7    1  0.7313719E-013  0.5930194E+02  0.7816164E-02  0.1266605E+00
        -11   -1    0    0    0    0  0.00000000000E+00  0.00000000000E+00  0.45593999997E+02  0.45594000000E+02  0.51100000000E-03 0.  1.
         11   -1    0    0    0    0 -0.00000000000E+00 -0.00000000000E+00 -0.45593999997E+02  0.45594000000E+02  0.51100000000E-03 0. -1.
    9900012    2    1    2    0    0  0.28303408961E+02  0.27999352152E+01 -0.14415204722E+02  0.59301941554E+02  0.49999995488E+02 0.  0.
        -12    1    1    2    0    0 -0.28303408961E+02 -0.27999352152E+01  0.14415204722E+02  0.31886058446E+02  0.00000000000E+00 0.  1.
         11    1    3    3    0    0  0.24037895465E+02  0.88884878646E+01 -0.73555218960E+01  0.26663258194E+02  0.51100000000E-03 0. -1.
        -11    1    3    3    0    0  0.78626720480E+01  0.68767196263E+01 -0.14025153592E+02  0.17487590403E+02  0.51100000000E-03 0.  1.
        -12    1    3    3    0    0 -0.35971585512E+01 -0.12965272276E+02  0.69654707657E+01  0.15151092958E+02  0.00000000000E+00 0.  1.
</event>
<event>
 7    1  0.7313719E-013  0.5930194E+02  0.7816164E-02  0.1266605E+00
        -11   -1    0    0    0    0  0.00000000000E+00  0.00000000000E+00  0.45593999997E+02  0.45594000000E+02  0.51100000000E-03 0.  1.
         11   -1    0    0    0    0 -0.00000000000E+00 -0.00000000000E+00 -0.45593999997E+02  0.45594000000E+02  0.51100000000E-03 0. -1.
    9900012    2    1    2    0    0  0.92822234664E+01  0.71614665021E+01 -0.29652561440E+02  0.59301942312E+02  0.49999996871E+02 0.  0.
        -12    1    1    2    0    0 -0.92822234664E+01 -0.71614665021E+01  0.29652561440E+02  0.31886057688E+02  0.00000000000E+00 0.  1.
         11    1    3    3    0    0  0.10829112413E+02 -0.36700376840E+01 -0.33263457540E+02  0.35173803605E+02  0.51100000000E-03 0. -1.
        -11    1    3    3    0    0  0.69365345464E+01  0.13317773270E+02  0.22227402525E+01  0.15179564252E+02  0.51100000000E-03 0.  1.
        -12    1    3    3    0    0 -0.84834234929E+01 -0.24862690843E+01  0.13881558476E+01  0.89485744550E+01  0.00000000000E+00 0.  1.
</event>
<event>
 7    1  0.7313719E-013  0.5930195E+02  0.7816164E-02  0.1266605E+00
        -11   -1    0    0    0    0  0.00000000000E+00  0.00000000000E+00  0.45593999997E+02  0.45594000000E+02  0.51100000000E-03 0.  1.
         11   -1    0    0    0    0 -0.00000000000E+00 -0.00000000000E+00 -0.45593999997E+02  0.45594000000E+02  0.51100000000E-03 0. -1.
    9900012    2    1    2    0    0  0.22092887711E+02 -0.17993825164E+02 -0.14312460751E+02  0.59301953457E+02  0.50000017196E+02 0.  0.
        -12    1    1    2    0    0 -0.22092887711E+02  0.17993825164E+02  0.14312460751E+02  0.31886046543E+02  0.00000000000E+00 0.  1.
         11    1    3    3    0    0  0.11659512057E+02  0.36834235909E+01 -0.10085152392E+02  0.15849988322E+02  0.51100000000E-03 0. -1.
        -11    1    3    3    0    0  0.89531456738E+01 -0.91566505650E+00 -0.16854567279E+02  0.19106901851E+02  0.51100000000E-03 0.  1.
        -12    1    3    3    0    0  0.14802299799E+01 -0.20761583698E+02  0.12627258920E+02  0.24345063284E+02  0.00000000000E+00 0.  1.
</event>
<event>
 7    1  0.7313719E-013  0.5930199E+02  0.7816164E-02  0.1266605E+00
        -11   -1    0    0    0    0  0.00000000000E+00  0.00000000000E+00  0.45593999997E+02  0.45594000000E+02  0.51100000000E-03 0. -1.
         11   -1    0    0    0    0 -0.00000000000E+00 -0.00000000000E+00 -0.45593999997E+02  0.45594000000E+02  0.51100000000E-03 0.  1.
    9900012    2    1    2    0    0 -0.35729401505E+00  0.10816104489E+02  0.29993365004E+02  0.59301988653E+02  0.50000081386E+02 0.  0.
        -12    1    1    2    0    0  0.35729401505E+00 -0.10816104489E+02 -0.29993365004E+02  0.31886011347E+02  0.00000000000E+00 0.  1.
         11    1    3    3    0    0  0.11629719727E+02  0.23009806289E+02  0.12394004564E+02  0.28606169191E+02  0.51100000000E-03 0. -1.
        -11    1    3    3    0    0  0.33993029070E+01  0.22129253070E+01  0.32394048726E+01  0.51909577978E+01  0.51100000000E-03 0.  1.
        -12    1    3    3    0    0 -0.15386316649E+02 -0.14406627106E+02  0.14359955568E+02  0.25504861664E+02  0.00000000000E+00 0.  1.
</event>
<event>
 7    1  0.7313719E-013  0.5930199E+02  0.7816164E-02  0.1266605E+00
        -11   -1    0    0    0    0  0.00000000000E+00  0.00000000000E+00  0.45593999997E+02  0.45594000000E+02  0.51100000000E-03 0. -1.
         11   -1    0    0    0    0 -0.00000000000E+00 -0.00000000000E+00 -0.45593999997E+02  0.45594000000E+02  0.51100000000E-03 0.  1.
    9900012    2    1    2    0    0 -0.80383563983E+01 -0.24346081651E+02  0.18957078222E+02  0.59301989273E+02  0.50000082517E+02 0.  0.
        -12    1    1    2    0    0  0.80383563983E+01  0.24346081651E+02 -0.18957078222E+02  0.31886010727E+02  0.00000000000E+00 0.  1.
         11    1    3    3    0    0  0.12429711520E+00 -0.12500779642E+02  0.30529768132E+01  0.12868784290E+02  0.51100000000E-03 0. -1.
        -11    1    3    3    0    0  0.99987289449E+01 -0.26459122423E+01 -0.93861219058E+01  0.13966915078E+02  0.51100000000E-03 0.  1.
         12    1    3    3    0    0 -0.18161382458E+02 -0.91993897668E+01  0.25290223315E+02  0.32466289905E+02  0.00000000000E+00 0. -1.
</event>
<event>
 7    1  0.7313719E-013  0.5930192E+02  0.7816164E-02  0.1266605E+00
        -11   -1    0    0    0    0  0.00000000000E+00  0.00000000000E+00  0.45593999997E+02  0.45594000000E+02  0.51100000000E-03 0. -1.
         11   -1    0    0    0    0 -0.00000000000E+00 -0.00000000000E+00 -0.45593999997E+02  0.45594000000E+02  0.51100000000E-03 0.  1.
    9900012    2    1    2    0    0  0.75767812774E+01 -0.50805449452E+01  0.30553270235E+02  0.59301923516E+02  0.49999962592E+02 0.  0.
        -12    1    1    2    0    0 -0.75767812774E+01  0.50805449452E+01 -0.30553270235E+02  0.31886076484E+02  0.00000000000E+00 0.  1.
         11    1    3    3    0    0 -0.39440201421E+01 -0.84811755872E+01  0.36073116346E+01  0.10024885621E+02  0.51100000000E-03 0. -1.
        -11    1    3    3    0    0  0.20927760488E+01 -0.15442658561E+02  0.67241904333E+00  0.15598319225E+02  0.51100000000E-03 0.  1.
         12    1    3    3    0    0  0.94280253706E+01  0.18843289203E+02  0.26273539557E+02  0.33678718670E+02  0.00000000000E+00 0. -1.
</event>
<event>
 7    1  0.7313719E-013  0.5930196E+02  0.7816164E-02  0.1266605E+00
        -11   -1    0    0    0    0  0.00000000000E+00  0.00000000000E+00  0.45593999997E+02  0.45594000000E+02  0.51100000000E-03 0.  1.
         11   -1    0    0    0    0 -0.00000000000E+00 -0.00000000000E+00 -0.45593999997E+02  0.45594000000E+02  0.51100000000E-03 0. -1.
    9900012    2    1    2    0    0 -0.22953680425E+02 -0.11963571239E+02  0.18620449771E+02  0.59301958673E+02  0.50000026710E+02 0.  0.
        -12    1    1    2    0    0  0.22953680425E+02  0.11963571239E+02 -0.18620449771E+02  0.31886041327E+02  0.00000000000E+00 0.  1.
         11    1    3    3    0    0  0.47703744111E+01  0.51348912423E+01  0.12068909176E+01  0.71119734280E+01  0.51100000000E-03 0. -1.
        -11    1    3    3    0    0 -0.62190520299E+01 -0.25331765086E+02  0.10803854541E+02  0.28232927651E+02  0.51100000000E-03 0.  1.
         12    1    3    3    0    0 -0.21505002806E+02  0.82333026052E+01  0.66097043126E+01  0.23957057594E+02  0.00000000000E+00 0. -1.
</event>
<event>
 7    1  0.7313719E-013  0.5930195E+02  0.7816164E-02  0.1266605E+00
        -11   -1    0    0    0    0  0.00000000000E+00  0.00000000000E+00  0.45593999997E+02  0.45594000000E+02  0.51100000000E-03 0.  1.
         11   -1    0    0    0    0 -0.00000000000E+00 -0.00000000000E+00 -0.45593999997E+02  0.45594000000E+02  0.51100000000E-03 0. -1.
    9900012    2    1    2    0    0 -0.11562884751E+02 -0.22160553164E+02 -0.19797216131E+02  0.59301949965E+02  0.50000010828E+02 0.  0.
        -12    1    1    2    0    0  0.11562884751E+02  0.22160553164E+02  0.19797216131E+02  0.31886050035E+02  0.00000000000E+00 0.  1.
         11    1    3    3    0    0  0.56707138459E+01 -0.14731541606E+02 -0.21602290724E+02  0.26755079488E+02  0.51100000000E-03 0. -1.
        -11    1    3    3    0    0 -0.29099189892E+01 -0.15170657960E+02  0.43949397616E+01  0.16060261120E+02  0.51100000000E-03 0.  1.
         12    1    3    3    0    0 -0.14323679607E+02  0.77416464020E+01 -0.25898651690E+01  0.16486609357E+02  0.00000000000E+00 0. -1.
</event>
<event>
 7    1  0.7313719E-013  0.5930196E+02  0.7816164E-02  0.1266605E+00
        -11   -1    0    0    0    0  0.00000000000E+00  0.00000000000E+00  0.45593999997E+02  0.45594000000E+02  0.51100000000E-03 0.  1.
         11   -1    0    0    0    0 -0.00000000000E+00 -0.00000000000E+00 -0.45593999997E+02  0.45594000000E+02  0.51100000000E-03 0. -1.
    9900012    2    1    2    0    0 -0.29921591873E+02  0.99348986911E+01 -0.47661089622E+01  0.59301958118E+02  0.50000025698E+02 0.  0.
        -12    1    1    2    0    0  0.29921591873E+02 -0.99348986911E+01  0.47661089622E+01  0.31886041882E+02  0.00000000000E+00 0.  1.
         11    1    3    3    0    0 -0.20291639110E+02  0.14503782641E+02  0.22242310054E+01  0.25041116838E+02  0.51100000000E-03 0. -1.
        -11    1    3    3    0    0 -0.35580031803E+01  0.10265564867E+02 -0.13177752778E+02  0.17079062539E+02  0.51100000000E-03 0.  1.
        -12    1    3    3    0    0 -0.60719495832E+01 -0.14834448817E+02  0.61874128107E+01  0.17181778742E+02  0.00000000000E+00 0.  1.
</event>
<event>
 7    1  0.7313719E-013  0.5930192E+02  0.7816164E-02  0.1266605E+00
        -11   -1    0    0    0    0  0.00000000000E+00  0.00000000000E+00  0.45593999997E+02  0.45594000000E+02  0.51100000000E-03 0.  1.
         11   -1    0    0    0    0 -0.00000000000E+00 -0.00000000000E+00 -0.45593999997E+02  0.45594000000E+02  0.51100000000E-03 0. -1.
    9900012    2    1    2    0    0 -0.64986786076E+01  0.16748537714E+02 -0.26343416097E+02  0.59301922931E+02  0.49999961524E+02 0.  0.
        -12    1    1    2    0    0  0.64986786076E+01 -0.16748537714E+02  0.26343416097E+02  0.31886077069E+02  0.00000000000E+00 0.  1.
         11    1    3    3    0    0  0.54607416018E+00  0.20920435684E+02 -0.11754946381E+01  0.20960548994E+02  0.51100000000E-03 0. -1.
        -11    1    3    3    0    0 -0.15767593095E+02 -0.77059948035E+01 -0.22546128639E+02  0.28571441419E+02  0.51100000000E-03 0.  1.
         12    1    3    3    0    0  0.87228403274E+01  0.35340968335E+01 -0.26217928204E+01  0.97699325176E+01  0.00000000000E+00 0. -1.
</event>
<event>
 7    1  0.7313719E-013  0.5930196E+02  0.7816164E-02  0.1266605E+00
        -11   -1    0    0    0    0  0.00000000000E+00  0.00000000000E+00  0.45593999997E+02  0.45594000000E+02  0.51100000000E-03 0.  1.
         11   -1    0    0    0    0 -0.00000000000E+00 -0.00000000000E+00 -0.45593999997E+02  0.45594000000E+02  0.51100000000E-03 0. -1.
    9900012    2    1    2    0    0 -0.59380971010E+01 -0.30833037401E+02 -0.55481780813E+01  0.59301961165E+02  0.50000031255E+02 0.  0.
        -12    1    1    2    0    0  0.59380971010E+01  0.30833037401E+02  0.55481780813E+01  0.31886038835E+02  0.00000000000E+00 0.  1.
         11    1    3    3    0    0  0.22993313003E+01 -0.60640611886E+00 -0.50617169509E+01  0.55924620305E+01  0.51100000000E-03 0. -1.
        -11    1    3    3    0    0  0.17080438443E+02 -0.54054506412E+01 -0.30012969652E+01  0.18165022922E+02  0.51100000000E-03 0.  1.
         12    1    3    3    0    0 -0.25317866844E+02 -0.24821180641E+02  0.25148358349E+01  0.35544476213E+02  0.00000000000E+00 0. -1.
</event>
<event>
 7    1  0.7313719E-013  0.5930194E+02  0.7816164E-02  0.1266605E+00
        -11   -1    0    0    0    0  0.00000000000E+00  0.00000000000E+00  0.45593999997E+02  0.45594000000E+02  0.51100000000E-03 0.  1.
         11   -1    0    0    0    0 -0.00000000000E+00 -0.00000000000E+00 -0.45593999997E+02  0.45594000000E+02  0.51100000000E-03 0. -1.
    9900012    2    1    2    0    0 -0.30607511622E+02  0.84723918190E+01  0.28494552502E+01  0.59301943705E+02  0.49999999411E+02 0.  0.
        -12    1    1    2    0    0  0.30607511622E+02 -0.84723918190E+01 -0.28494552502E+01  0.31886056295E+02  0.00000000000E+00 0.  1.
         11    1    3    3    0    0 -0.17014775405E+02  0.12626925783E+02 -0.80294301947E+01  0.22658631608E+02  0.51100000000E-03 0.  1.
        -11    1    3    3    0    0 -0.33362379796E+01  0.83270033538E+01 -0.78424997795E+01  0.11915295706E+02  0.51100000000E-03 0. -1.
        -12    1    3    3    0    0 -0.10256498237E+02 -0.12481537318E+02  0.18721385224E+02  0.24728016391E+02  0.00000000000E+00 0.  1.
</event>
<event>
 7    1  0.7313719E-013  0.5930196E+02  0.7816164E-02  0.1266605E+00
        -11   -1    0    0    0    0  0.00000000000E+00  0.00000000000E+00  0.45593999997E+02  0.45594000000E+02  0.51100000000E-03 0. -1.
         11   -1    0    0    0    0 -0.00000000000E+00 -0.00000000000E+00 -0.45593999997E+02  0.45594000000E+02  0.51100000000E-03 0.  1.
    9900012    2    1    2    0    0  0.48730590390E+01 -0.19329915958E+01  0.31452124556E+02  0.59301963872E+02  0.50000036191E+02 0.  0.
        -12    1    1    2    0    0 -0.48730590390E+01  0.19329915958E+01 -0.31452124556E+02  0.31886036128E+02  0.00000000000E+00 0.  1.
         11    1    3    3    0    0  0.38678934757E+01  0.56860645181E+01  0.92304890332E+00  0.69385840906E+01  0.51100000000E-03 0. -1.
        -11    1    3    3    0    0  0.15820792297E+02  0.63068131008E+01  0.17431979826E+01  0.17120516928E+02  0.51100000000E-03 0.  1.
         12    1    3    3    0    0 -0.14815626734E+02 -0.13925869215E+02  0.28785877670E+02  0.35242862854E+02  0.00000000000E+00 0. -1.
</event>
<event>
 7    1  0.7313719E-013  0.5930196E+02  0.7816164E-02  0.1266605E+00
        -11   -1    0    0    0    0  0.00000000000E+00  0.00000000000E+00  0.45593999997E+02  0.45594000000E+02  0.51100000000E-03 0.  1.
         11   -1    0    0    0    0 -0.00000000000E+00 -0.00000000000E+00 -0.45593999997E+02  0.45594000000E+02  0.51100000000E-03 0. -1.
    9900012    2    1    2    0    0 -0.14827256998E+02  0.24656904130E+02 -0.13744417733E+02  0.59301960889E+02  0.50000030751E+02 0.  0.
        -12    1    1    2    0    0  0.14827256998E+02 -0.24656904130E+02  0.13744417733E+02  0.31886039111E+02  0.00000000000E+00 0.  1.
         11    1    3    3    0    0 -0.66020806819E+01  0.41641380156E+01 -0.93249119167E+00  0.78611102795E+01  0.51100000000E-03 0. -1.
        -11    1    3    3    0    0 -0.15573826880E+02  0.79655019637E+01  0.13019822256E+02  0.21806170619E+02  0.51100000000E-03 0.  1.
         12    1    3    3    0    0  0.73486505635E+01  0.12527264151E+02 -0.25831748797E+02  0.29634679991E+02  0.00000000000E+00 0. -1.
</event>
<event>
 7    1  0.7313719E-013  0.5930197E+02  0.7816164E-02  0.1266605E+00
        -11   -1    0    0    0    0  0.00000000000E+00  0.00000000000E+00  0.45593999997E+02  0.45594000000E+02  0.51100000000E-03 0.  1.
         11   -1    0    0    0    0 -0.00000000000E+00 -0.00000000000E+00 -0.45593999997E+02  0.45594000000E+02  0.51100000000E-03 0. -1.
    9900012    2    1    2    0    0  0.29724685413E+02 -0.11245417920E+02  0.25889499380E+01  0.59301968437E+02  0.50000044516E+02 0.  0.
        -12    1    1    2    0    0 -0.29724685413E+02  0.11245417920E+02 -0.25889499380E+01  0.31886031563E+02  0.00000000000E+00 0.  1.
         11    1    3    3    0    0  0.12009315862E+02  0.81441051561E+00  0.84610190598E+00  0.12066599382E+02  0.51100000000E-03 0. -1.
        -11    1    3    3    0    0  0.21447225746E+02  0.10207829776E+01  0.16564159464E+02  0.27118201804E+02  0.51100000000E-03 0.  1.
         12    1    3    3    0    0 -0.37318561947E+01 -0.13080611414E+02 -0.14821311432E+02  0.20117167250E+02  0.00000000000E+00 0. -1.
</event>
<event>
 7    1  0.7313719E-013  0.5930195E+02  0.7816164E-02  0.1266605E+00
        -11   -1    0    0    0    0  0.00000000000E+00  0.00000000000E+00  0.45593999997E+02  0.45594000000E+02  0.51100000000E-03 0.  1.
         11   -1    0    0    0    0 -0.00000000000E+00 -0.00000000000E+00 -0.45593999997E+02  0.45594000000E+02  0.51100000000E-03 0. -1.
    9900012    2    1    2    0    0  0.19982255653E+02 -0.68983328464E+01 -0.23871375600E+02  0.59301951169E+02  0.50000013023E+02 0.  0.
        -12    1    1    2    0    0 -0.19982255653E+02  0.68983328464E+01  0.23871375600E+02  0.31886048831E+02  0.00000000000E+00 0.  1.
         11    1    3    3    0    0  0.80574687494E+01  0.46607236743E+01  0.65233099658E+01  0.11366561529E+02  0.51100000000E-03 0. -1.
        -11    1    3    3    0    0 -0.51654162459E+01 -0.83005628794E+01  0.30456083627E+01  0.10239951156E+02  0.51100000000E-03 0.  1.
        -12    1    3    3    0    0  0.17090203150E+02 -0.32584936413E+01 -0.33440293928E+02  0.37695438484E+02  0.00000000000E+00 0.  1.
</event>
<event>
 7    1  0.7313719E-013  0.5930194E+02  0.7816164E-02  0.1266605E+00
        -11   -1    0    0    0    0  0.00000000000E+00  0.00000000000E+00  0.45593999997E+02  0.45594000000E+02  0.51100000000E-03 0.  1.
         11   -1    0    0    0    0 -0.00000000000E+00 -0.00000000000E+00 -0.45593999997E+02  0.45594000000E+02  0.51100000000E-03 0. -1.
    9900012    2    1    2    0    0  0.15004162215E+02  0.56976403773E+01 -0.27552367264E+02  0.59301938288E+02  0.49999989533E+02 0.  0.
        -12    1    1    2    0    0 -0.15004162215E+02 -0.56976403773E+01  0.27552367264E+02  0.31886061712E+02  0.00000000000E+00 0.  1.
         11    1    3    3    0    0 -0.39651754411E+01 -0.12297675400E+02 -0.18501383950E+02  0.22566715420E+02  0.51100000000E-03 0. -1.
        -11    1    3    3    0    0 -0.37577141482E+01  0.47177954446E-01 -0.66980407846E+01  0.76802598910E+01  0.51100000000E-03 0.  1.
        -12    1    3    3    0    0  0.22727051805E+02  0.17948137823E+02 -0.23529425289E+01  0.29054962977E+02  0.00000000000E+00 0.  1.
</event>
<event>
 7    1  0.7313719E-013  0.5930195E+02  0.7816164E-02  0.1266605E+00
        -11   -1    0    0    0    0  0.00000000000E+00  0.00000000000E+00  0.45593999997E+02  0.45594000000E+02  0.51100000000E-03 0.  1.
         11   -1    0    0    0    0 -0.00000000000E+00 -0.00000000000E+00 -0.45593999997E+02  0.45594000000E+02  0.51100000000E-03 0. -1.
    9900012    2    1    2    0    0 -0.30636912460E+02  0.61562064539E+01 -0.63404380855E+01  0.59301946025E+02  0.50000003643E+02 0.  0.
        -12    1    1    2    0    0  0.30636912460E+02 -0.61562064539E+01  0.63404380855E+01  0.31886053975E+02  0.00000000000E+00 0.  1.
         11    1    3    3    0    0  0.35953941848E+01 -0.59874580918E+01 -0.20335611159E+01  0.72740555963E+01  0.51100000000E-03 0. -1.
        -11    1    3    3    0    0 -0.51267758571E+01  0.18565763310E+02 -0.99714935208E+01  0.21688754719E+02  0.51100000000E-03 0.  1.
         12    1    3    3    0    0 -0.29105530787E+02 -0.64220987638E+01  0.56646165512E+01  0.30339135710E+02  0.00000000000E+00 0. -1.
</event>
<event>
 7    1  0.7313719E-013  0.5930194E+02  0.7816164E-02  0.1266605E+00
        -11   -1    0    0    0    0  0.00000000000E+00  0.00000000000E+00  0.45593999997E+02  0.45594000000E+02  0.51100000000E-03 0. -1.
         11   -1    0    0    0    0 -0.00000000000E+00 -0.00000000000E+00 -0.45593999997E+02  0.45594000000E+02  0.51100000000E-03 0.  1.
    9900012    2    1    2    0    0 -0.26595485788E+02  0.11086778116E+02  0.13655931230E+02  0.59301937668E+02  0.49999988402E+02 0.  0.
        -12    1    1    2    0    0  0.26595485788E+02 -0.11086778116E+02 -0.13655931230E+02  0.31886062332E+02  0.00000000000E+00 0.  1.
         11    1    3    3    0    0 -0.22504577877E+02  0.67058116546E+01  0.12546774669E+01  0.23515912722E+02  0.51100000000E-03 0. -1.
        -11    1    3    3    0    0 -0.15839007525E+02  0.84510083897E+01 -0.37795659003E+00  0.17956518416E+02  0.51100000000E-03 0.  1.
        -12    1    3    3    0    0  0.11748099614E+02 -0.40700419285E+01  0.12779210353E+02  0.17829506530E+02  0.00000000000E+00 0.  1.
</event>
<event>
 7    1  0.7313719E-013  0.5930194E+02  0.7816164E-02  0.1266605E+00
        -11   -1    0    0    0    0  0.00000000000E+00  0.00000000000E+00  0.45593999997E+02  0.45594000000E+02  0.51100000000E-03 0. -1.
         11   -1    0    0    0    0 -0.00000000000E+00 -0.00000000000E+00 -0.45593999997E+02  0.45594000000E+02  0.51100000000E-03 0.  1.
    9900012    2    1    2    0    0 -0.28464386265E+02 -0.69172925431E+01  0.12595669481E+02  0.59301935469E+02  0.49999984391E+02 0.  0.
        -12    1    1    2    0    0  0.28464386265E+02  0.69172925431E+01 -0.12595669481E+02  0.31886064531E+02  0.00000000000E+00 0.  1.
         11    1    3    3    0    0 -0.23760175365E+02 -0.11334993868E+02  0.17322634920E+02  0.31513516151E+02  0.51100000000E-03 0. -1.
        -11    1    3    3    0    0  0.63651695688E+01  0.26049863952E+01  0.81809392556E+01  0.10687801697E+02  0.51100000000E-03 0.  1.
         12    1    3    3    0    0 -0.11069380469E+02  0.18127149293E+01 -0.12907904695E+02  0.17100617621E+02  0.00000000000E+00 0. -1.
</event>
<event>
 7    1  0.7313719E-013  0.5930195E+02  0.7816164E-02  0.1266605E+00
        -11   -1    0    0    0    0  0.00000000000E+00  0.00000000000E+00  0.45593999997E+02  0.45594000000E+02  0.51100000000E-03 0. -1.
         11   -1    0    0    0    0 -0.00000000000E+00 -0.00000000000E+00 -0.45593999997E+02  0.45594000000E+02  0.51100000000E-03 0.  1.
    9900012    2    1    2    0    0  0.31400225623E+02 -0.55446733153E+01 -0.53393917288E-01  0.59301946273E+02  0.50000004095E+02 0.  0.
        -12    1    1    2    0    0 -0.31400225623E+02  0.55446733153E+01  0.53393917288E-01  0.31886053727E+02  0.00000000000E+00 0.  1.
         11    1    3    3    0    0  0.22670692845E+02 -0.94493600377E+01  0.12662907878E+02  0.27633312422E+02  0.51100000000E-03 0. -1.
        -11    1    3    3    0    0  0.74979175212E+01 -0.11397187609E+02 -0.63917852478E+01  0.15065509333E+02  0.51100000000E-03 0.  1.
        -12    1    3    3    0    0  0.12316152565E+01  0.15301874332E+02 -0.63245165474E+01  0.16603124518E+02  0.00000000000E+00 0.  1.
</event>
<event>
 7    1  0.7313719E-013  0.5930198E+02  0.7816164E-02  0.1266605E+00
        -11   -1    0    0    0    0  0.00000000000E+00  0.00000000000E+00  0.45593999997E+02  0.45594000000E+02  0.51100000000E-03 0. -1.
         11   -1    0    0    0    0 -0.00000000000E+00 -0.00000000000E+00 -0.45593999997E+02  0.45594000000E+02  0.51100000000E-03 0.  1.
    9900012    2    1    2    0    0 -0.29746663240E+02 -0.68528859204E+01  0.92137159679E+01  0.59301975141E+02  0.50000056743E+02 0.  0.
        -12    1    1    2    0    0  0.29746663240E+02  0.68528859204E+01 -0.92137159679E+01  0.31886024859E+02  0.00000000000E+00 0.  1.
         11    1    3    3    0    0  0.12387634225E+01 -0.70909467786E+01 -0.98999386009E+01  0.12240295977E+02  0.51100000000E-03 0. -1.
        -11    1    3    3    0    0 -0.17453468963E+02  0.14377014516E+02  0.56524680177E+01  0.23308207142E+02  0.51100000000E-03 0.  1.
         12    1    3    3    0    0 -0.13531957700E+02 -0.14138953658E+02  0.13461186551E+02  0.23753472022E+02  0.00000000000E+00 0. -1.
</event>
<event>
 7    1  0.7313719E-013  0.5930194E+02  0.7816164E-02  0.1266605E+00
        -11   -1    0    0    0    0  0.00000000000E+00  0.00000000000E+00  0.45593999997E+02  0.45594000000E+02  0.51100000000E-03 0.  1.
         11   -1    0    0    0    0 -0.00000000000E+00 -0.00000000000E+00 -0.45593999997E+02  0.45594000000E+02  0.51100000000E-03 0. -1.
    9900012    2    1    2    0    0 -0.11838592437E+02 -0.15245243545E+02 -0.25380130238E+02  0.59301941408E+02  0.49999995222E+02 0.  0.
        -12    1    1    2    0    0  0.11838592437E+02  0.15245243545E+02  0.25380130238E+02  0.31886058592E+02  0.00000000000E+00 0.  1.
         11    1    3    3    0    0 -0.29665851462E+01 -0.29925327649E+01 -0.27431499598E+02  0.27753252967E+02  0.51100000000E-03 0. -1.
        -11    1    3    3    0    0 -0.28040674430E+01  0.17660078855E+01 -0.10980401495E+02  0.11469559509E+02  0.51100000000E-03 0.  1.
        -12    1    3    3    0    0 -0.60679398482E+01 -0.14018718666E+02  0.13031770856E+02  0.20079128932E+02  0.00000000000E+00 0.  1.
</event>
<event>
 7    1  0.7313719E-013  0.5930196E+02  0.7816164E-02  0.1266605E+00
        -11   -1    0    0    0    0  0.00000000000E+00  0.00000000000E+00  0.45593999997E+02  0.45594000000E+02  0.51100000000E-03 0. -1.
         11   -1    0    0    0    0 -0.00000000000E+00 -0.00000000000E+00 -0.45593999997E+02  0.45594000000E+02  0.51100000000E-03 0.  1.
    9900012    2    1    2    0    0  0.23249569856E+02 -0.69603652025E-01  0.21821366476E+02  0.59301962647E+02  0.50000033958E+02 0.  0.
        -12    1    1    2    0    0 -0.23249569856E+02  0.69603652025E-01 -0.21821366476E+02  0.31886037353E+02  0.00000000000E+00 0.  1.
         11    1    3    3    0    0  0.27349477350E+02  0.70208798054E+01  0.23928148611E+02  0.37011389609E+02  0.51100000000E-03 0. -1.
        -11    1    3    3    0    0  0.48642884760E+01 -0.23521172762E+01 -0.86674802960E+01  0.10213665992E+02  0.51100000000E-03 0.  1.
        -12    1    3    3    0    0 -0.89641959698E+01 -0.47383661812E+01  0.65606981609E+01  0.12076907047E+02  0.00000000000E+00 0.  1.
</event>
<event>
 7    1  0.7313719E-013  0.5930194E+02  0.7816164E-02  0.1266605E+00
        -11   -1    0    0    0    0  0.00000000000E+00  0.00000000000E+00  0.45593999997E+02  0.45594000000E+02  0.51100000000E-03 0. -1.
         11   -1    0    0    0    0 -0.00000000000E+00 -0.00000000000E+00 -0.45593999997E+02  0.45594000000E+02  0.51100000000E-03 0.  1.
    9900012    2    1    2    0    0 -0.47371264032E+01 -0.26743417975E+02  0.16705383142E+02  0.59301943526E+02  0.49999999085E+02 0.  0.
        -12    1    1    2    0    0  0.47371264032E+01  0.26743417975E+02 -0.16705383142E+02  0.31886056474E+02  0.00000000000E+00 0.  1.
         11    1    3    3    0    0  0.17436975290E+02 -0.17907133369E+02  0.61924897312E+01  0.25749960429E+02  0.51100000000E-03 0. -1.
        -11    1    3    3    0    0  0.27938216029E+01 -0.43595228247E+01 -0.16311211332E+01  0.54287599708E+01  0.51100000000E-03 0.  1.
         12    1    3    3    0    0 -0.24967923296E+02 -0.44767617816E+01  0.12144014544E+02  0.28123223127E+02  0.00000000000E+00 0. -1.
</event>
<event>
 7    1  0.7313719E-013  0.5930193E+02  0.7816164E-02  0.1266605E+00
        -11   -1    0    0    0    0  0.00000000000E+00  0.00000000000E+00  0.45593999997E+02  0.45594000000E+02  0.51100000000E-03 0.  1.
         11   -1    0    0    0    0 -0.00000000000E+00 -0.00000000000E+00 -0.45593999997E+02  0.45594000000E+02  0.51100000000E-03 0. -1.
    9900012    2    1    2    0    0  0.16664779117E+01  0.21824837424E+02 -0.23186648524E+02  0.59301931773E+02  0.49999977650E+02 0.  0.
        -12    1    1    2    0    0 -0.16664779117E+01 -0.21824837424E+02  0.23186648524E+02  0.31886068227E+02  0.00000000000E+00 0.  1.
         11    1    3    3    0    0  0.11432959578E+02  0.37963455897E+01 -0.10110850582E+02  0.15727495169E+02  0.51100000000E-03 0. -1.
        -11    1    3    3    0    0  0.91143219898E+01  0.19833013619E+02 -0.28087043091E+01  0.22007001493E+02  0.51100000000E-03 0.  1.
         12    1    3    3    0    0 -0.18880803656E+02 -0.18045217852E+01 -0.10267093633E+02  0.21567435110E+02  0.00000000000E+00 0. -1.
</event>
<event>
 7    1  0.7313719E-013  0.5930194E+02  0.7816164E-02  0.1266605E+00
        -11   -1    0    0    0    0  0.00000000000E+00  0.00000000000E+00  0.45593999997E+02  0.45594000000E+02  0.51100000000E-03 0.  1.
         11   -1    0    0    0    0 -0.00000000000E+00 -0.00000000000E+00 -0.45593999997E+02  0.45594000000E+02  0.51100000000E-03 0. -1.
    9900012    2    1    2    0    0  0.51724902722E+01  0.31459144717E+02 -0.53722681994E+00  0.59301936358E+02  0.49999986011E+02 0.  0.
        -12    1    1    2    0    0 -0.51724902722E+01 -0.31459144717E+02  0.53722681994E+00  0.31886063642E+02  0.00000000000E+00 0.  1.
         11    1    3    3    0    0  0.12775294593E+02  0.33140012877E+01  0.49867094444E+01  0.14108792571E+02  0.51100000000E-03 0. -1.
        -11    1    3    3    0    0  0.11714609366E+02  0.13151432280E+01 -0.11448145681E+01  0.11843659695E+02  0.51100000000E-03 0.  1.
         12    1    3    3    0    0 -0.19317413687E+02  0.26830000201E+02 -0.43791216962E+01  0.33349484092E+02  0.00000000000E+00 0. -1.
</event>
<event>
 7    1  0.7313719E-013  0.5930184E+02  0.7816164E-02  0.1266605E+00
        -11   -1    0    0    0    0  0.00000000000E+00  0.00000000000E+00  0.45593999997E+02  0.45594000000E+02  0.51100000000E-03 0.  1.
         11   -1    0    0    0    0 -0.00000000000E+00 -0.00000000000E+00 -0.45593999997E+02  0.45594000000E+02  0.51100000000E-03 0. -1.
    9900012    2    1    2    0    0  0.19769651111E+02 -0.23482344837E+02 -0.86294739096E+01  0.59301836166E+02  0.49999803286E+02 0.  0.
        -12    1    1    2    0    0 -0.19769651111E+02  0.23482344837E+02  0.86294739096E+01  0.31886163834E+02  0.00000000000E+00 0.  1.
         11    1    3    3    0    0 -0.63116552919E+01  0.83818475746E+01  0.46078472683E+00  0.10502603683E+02  0.51100000000E-03 0.  1.
        -11    1    3    3    0    0  0.16747018469E+02 -0.17680221399E+02  0.70703213953E+01  0.25358278751E+02  0.51100000000E-03 0. -1.
         12    1    3    3    0    0  0.93342879330E+01 -0.14183971013E+02 -0.16160580032E+02  0.23440953732E+02  0.00000000000E+00 0. -1.
</event>
<event>
 7    1  0.7313719E-013  0.5930193E+02  0.7816164E-02  0.1266605E+00
        -11   -1    0    0    0    0  0.00000000000E+00  0.00000000000E+00  0.45593999997E+02  0.45594000000E+02  0.51100000000E-03 0.  1.
         11   -1    0    0    0    0 -0.00000000000E+00 -0.00000000000E+00 -0.45593999997E+02  0.45594000000E+02  0.51100000000E-03 0. -1.
    9900012    2    1    2    0    0  0.64740016628E+01  0.23008810484E+02 -0.21104575192E+02  0.59301934839E+02  0.49999983243E+02 0.  0.
        -12    1    1    2    0    0 -0.64740016628E+01 -0.23008810484E+02  0.21104575192E+02  0.31886065161E+02  0.00000000000E+00 0.  1.
         11    1    3    3    0    0 -0.37189247552E+01  0.20127113599E+02 -0.25344165124E+02  0.32576952117E+02  0.51100000000E-03 0. -1.
        -11    1    3    3    0    0 -0.41388172552E+01  0.36366908152E+01 -0.67036123907E+01  0.86771969958E+01  0.51100000000E-03 0.  1.
        -12    1    3    3    0    0  0.14331743673E+02 -0.75499393049E+00  0.10943202323E+02  0.18047785726E+02  0.00000000000E+00 0.  1.
</event>
<event>
 7    1  0.7313719E-013  0.5930197E+02  0.7816164E-02  0.1266605E+00
        -11   -1    0    0    0    0  0.00000000000E+00  0.00000000000E+00  0.45593999997E+02  0.45594000000E+02  0.51100000000E-03 0.  1.
         11   -1    0    0    0    0 -0.00000000000E+00 -0.00000000000E+00 -0.45593999997E+02  0.45594000000E+02  0.51100000000E-03 0. -1.
    9900012    2    1    2    0    0  0.24721716145E+02 -0.10576408851E+02 -0.17137534544E+02  0.59301972282E+02  0.50000051529E+02 0.  0.
        -12    1    1    2    0    0 -0.24721716145E+02  0.10576408851E+02  0.17137534544E+02  0.31886027718E+02  0.00000000000E+00 0.  1.
         11    1    3    3    0    0  0.12886489393E+02  0.15159578731E+02  0.30476511033E+01  0.20128651562E+02  0.51100000000E-03 0. -1.
        -11    1    3    3    0    0 -0.39304561208E+01 -0.41559610245E+01 -0.79149970973E+01  0.97656375453E+01  0.51100000000E-03 0.  1.
        -12    1    3    3    0    0  0.15765682873E+02 -0.21580026557E+02 -0.12270188551E+02  0.29407683175E+02  0.00000000000E+00 0.  1.
</event>
<event>
 7    1  0.7313719E-013  0.5930194E+02  0.7816164E-02  0.1266605E+00
        -11   -1    0    0    0    0  0.00000000000E+00  0.00000000000E+00  0.45593999997E+02  0.45594000000E+02  0.51100000000E-03 0.  1.
         11   -1    0    0    0    0 -0.00000000000E+00 -0.00000000000E+00 -0.45593999997E+02  0.45594000000E+02  0.51100000000E-03 0. -1.
    9900012    2    1    2    0    0 -0.51213004004E+01  0.30471470230E+02 -0.78729234234E+01  0.59301935034E+02  0.49999983598E+02 0.  0.
        -12    1    1    2    0    0  0.51213004004E+01 -0.30471470230E+02  0.78729234234E+01  0.31886064966E+02  0.00000000000E+00 0.  1.
         11    1    3    3    0    0  0.59819856272E+01 -0.29398426788E+01 -0.98901940955E+01  0.11926557195E+02  0.51100000000E-03 0. -1.
        -11    1    3    3    0    0  0.16481401525E+01  0.22329379543E+02 -0.12018208703E+02  0.25411707881E+02  0.51100000000E-03 0.  1.
         12    1    3    3    0    0 -0.12751426180E+02  0.11081933366E+02  0.14035479375E+02  0.21963669959E+02  0.00000000000E+00 0. -1.
</event>
<event>
 7    1  0.7313719E-013  0.5930195E+02  0.7816164E-02  0.1266605E+00
        -11   -1    0    0    0    0  0.00000000000E+00  0.00000000000E+00  0.45593999997E+02  0.45594000000E+02  0.51100000000E-03 0. -1.
         11   -1    0    0    0    0 -0.00000000000E+00 -0.00000000000E+00 -0.45593999997E+02  0.45594000000E+02  0.51100000000E-03 0.  1.
    9900012    2    1    2    0    0 -0.25344185057E+02  0.15509585530E+02  0.11569154051E+02  0.59301948426E+02  0.50000008021E+02 0.  0.
        -12    1    1    2    0    0  0.25344185057E+02 -0.15509585530E+02 -0.11569154051E+02  0.31886051574E+02  0.00000000000E+00 0.  1.
         11    1    3    3    0    0 -0.41514056115E+01  0.12126087552E+00 -0.11940241325E+02  0.12641923742E+02  0.51100000000E-03 0. -1.
        -11    1    3    3    0    0 -0.11476602921E+02 -0.69779824131E+01  0.99156518296E+00  0.13468030849E+02  0.51100000000E-03 0.  1.
         12    1    3    3    0    0 -0.97161765240E+01  0.22366307068E+02  0.22517830193E+02  0.33191993835E+02  0.00000000000E+00 0. -1.
</event>
<event>
 7    1  0.7313719E-013  0.5930194E+02  0.7816164E-02  0.1266605E+00
        -11   -1    0    0    0    0  0.00000000000E+00  0.00000000000E+00  0.45593999997E+02  0.45594000000E+02  0.51100000000E-03 0.  1.
         11   -1    0    0    0    0 -0.00000000000E+00 -0.00000000000E+00 -0.45593999997E+02  0.45594000000E+02  0.51100000000E-03 0. -1.
    9900012    2    1    2    0    0 -0.20772044123E+02  0.15022499508E+02  0.18962271022E+02  0.59301936731E+02  0.49999986693E+02 0.  0.
        -12    1    1    2    0    0  0.20772044123E+02 -0.15022499508E+02 -0.18962271022E+02  0.31886063269E+02  0.00000000000E+00 0.  1.
         11    1    3    3    0    0  0.89778862729E+00  0.20539382817E+02  0.11438938274E+02  0.23527039338E+02  0.51100000000E-03 0. -1.
        -11    1    3    3    0    0  0.54795778465E+00  0.76215632257E+01  0.63518579447E+01  0.99365277310E+01  0.51100000000E-03 0.  1.
         12    1    3    3    0    0 -0.22217790535E+02 -0.13138446535E+02  0.11714748028E+01  0.25838369662E+02  0.00000000000E+00 0. -1.
</event>
<event>
 7    1  0.7313719E-013  0.5930194E+02  0.7816164E-02  0.1266605E+00
        -11   -1    0    0    0    0  0.00000000000E+00  0.00000000000E+00  0.45593999997E+02  0.45594000000E+02  0.51100000000E-03 0.  1.
         11   -1    0    0    0    0 -0.00000000000E+00 -0.00000000000E+00 -0.45593999997E+02  0.45594000000E+02  0.51100000000E-03 0. -1.
    9900012    2    1    2    0    0 -0.46411108679E+01 -0.21720251800E+02 -0.22878185198E+02  0.59301943388E+02  0.49999998833E+02 0.  0.
        -12    1    1    2    0    0  0.46411108679E+01  0.21720251800E+02  0.22878185198E+02  0.31886056612E+02  0.00000000000E+00 0.  1.
         11    1    3    3    0    0 -0.92036882252E+00 -0.13901763549E+02 -0.40307456433E+01  0.14503551953E+02  0.51100000000E-03 0. -1.
        -11    1    3    3    0    0 -0.92874504629E+00 -0.32053526189E+01  0.12527027501E+02  0.12963921900E+02  0.51100000000E-03 0.  1.
         12    1    3    3    0    0 -0.27919969991E+01 -0.46131356315E+01 -0.31374467055E+02  0.31834469535E+02  0.00000000000E+00 0. -1.
</event>
<event>
 7    1  0.7313719E-013  0.5930192E+02  0.7816164E-02  0.1266605E+00
        -11   -1    0    0    0    0  0.00000000000E+00  0.00000000000E+00  0.45593999997E+02  0.45594000000E+02  0.51100000000E-03 0.  1.
         11   -1    0    0    0    0 -0.00000000000E+00 -0.00000000000E+00 -0.45593999997E+02  0.45594000000E+02  0.51100000000E-03 0. -1.
    9900012    2    1    2    0    0  0.16125630603E+02 -0.20889160735E+02 -0.17897746959E+02  0.59301916127E+02  0.49999949115E+02 0.  0.
        -12    1    1    2    0    0 -0.16125630603E+02  0.20889160735E+02  0.17897746959E+02  0.31886083873E+02  0.00000000000E+00 0.  1.
         11    1    3    3    0    0  0.90804783798E+01 -0.15566432116E+02  0.11245960174E+01  0.18056400885E+02  0.51100000000E-03 0. -1.
        -11    1    3    3    0    0  0.16536511814E+02 -0.13154326723E+02 -0.34692774121E+01  0.21413276735E+02  0.51100000000E-03 0.  1.
        -12    1    3    3    0    0 -0.94913595911E+01  0.78315981038E+01 -0.15553065565E+02  0.19832238507E+02  0.00000000000E+00 0.  1.
</event>
<event>
 7    1  0.7313719E-013  0.5930201E+02  0.7816164E-02  0.1266605E+00
        -11   -1    0    0    0    0  0.00000000000E+00  0.00000000000E+00  0.45593999997E+02  0.45594000000E+02  0.51100000000E-03 0.  1.
         11   -1    0    0    0    0 -0.00000000000E+00 -0.00000000000E+00 -0.45593999997E+02  0.45594000000E+02  0.51100000000E-03 0. -1.
    9900012    2    1    2    0    0  0.95536274266E+01  0.16719106579E+02 -0.25414873421E+02  0.59302013849E+02  0.50000127337E+02 0.  0.
        -12    1    1    2    0    0 -0.95536274266E+01 -0.16719106579E+02  0.25414873421E+02  0.31885986151E+02  0.00000000000E+00 0.  1.
         11    1    3    3    0    0  0.16003683712E+00  0.59806057952E+01  0.11040470847E+02  0.12557278935E+02  0.51100000000E-03 0.  1.
        -11    1    3    3    0    0  0.62724259335E+01 -0.73082874924E+01 -0.64490839668E+01  0.11590732394E+02  0.51100000000E-03 0. -1.
        -12    1    3    3    0    0  0.31211646560E+01  0.18046788276E+02 -0.30006260301E+02  0.35154002520E+02  0.00000000000E+00 0.  1.
</event>
<event>
 7    1  0.7313719E-013  0.5930197E+02  0.7816164E-02  0.1266605E+00
        -11   -1    0    0    0    0  0.00000000000E+00  0.00000000000E+00  0.45593999997E+02  0.45594000000E+02  0.51100000000E-03 0. -1.
         11   -1    0    0    0    0 -0.00000000000E+00 -0.00000000000E+00 -0.45593999997E+02  0.45594000000E+02  0.51100000000E-03 0.  1.
    9900012    2    1    2    0    0  0.31155281050E+02  0.60745756209E+01 -0.30277402467E+01  0.59301965168E+02  0.50000038555E+02 0.  0.
        -12    1    1    2    0    0 -0.31155281050E+02 -0.60745756209E+01  0.30277402467E+01  0.31886034832E+02  0.00000000000E+00 0.  1.
         11    1    3    3    0    0  0.18950012418E+02 -0.70083522275E+01  0.11465531382E+02  0.23230978923E+02  0.51100000000E-03 0. -1.
        -11    1    3    3    0    0 -0.43633864259E+01  0.68014340405E+01  0.51767287327E+01  0.95967268765E+01  0.51100000000E-03 0.  1.
         12    1    3    3    0    0  0.16568655058E+02  0.62814938080E+01 -0.19670000361E+02  0.26474259369E+02  0.00000000000E+00 0. -1.
</event>
<event>
 7    1  0.7313719E-013  0.5930196E+02  0.7816164E-02  0.1266605E+00
        -11   -1    0    0    0    0  0.00000000000E+00  0.00000000000E+00  0.45593999997E+02  0.45594000000E+02  0.51100000000E-03 0. -1.
         11   -1    0    0    0    0 -0.00000000000E+00 -0.00000000000E+00 -0.45593999997E+02  0.45594000000E+02  0.51100000000E-03 0.  1.
    9900012    2    1    2    0    0 -0.52812180810E+01 -0.20482628455E+02  0.23859796752E+02  0.59301964908E+02  0.50000038080E+02 0.  0.
        -12    1    1    2    0    0  0.52812180810E+01  0.20482628455E+02 -0.23859796752E+02  0.31886035092E+02  0.00000000000E+00 0.  1.
         11    1    3    3    0    0 -0.19026308033E+01 -0.14720054528E+02  0.14813191299E+01  0.14916243358E+02  0.51100000000E-03 0. -1.
        -11    1    3    3    0    0 -0.75975430524E+01 -0.17341497384E+02  0.10819711136E+00  0.18933090050E+02  0.51100000000E-03 0.  1.
        -12    1    3    3    0    0  0.42189557746E+01  0.11578923457E+02  0.22270280511E+02  0.25452631500E+02  0.00000000000E+00 0.  1.
</event>
<event>
 7    1  0.7313719E-013  0.5930192E+02  0.7816164E-02  0.1266605E+00
        -11   -1    0    0    0    0  0.00000000000E+00  0.00000000000E+00  0.45593999997E+02  0.45594000000E+02  0.51100000000E-03 0. -1.
         11   -1    0    0    0    0 -0.00000000000E+00 -0.00000000000E+00 -0.45593999997E+02  0.45594000000E+02  0.51100000000E-03 0.  1.
    9900012    2    1    2    0    0  0.29424733305E+02 -0.20306604002E+01  0.12115440168E+02  0.59301915227E+02  0.49999947474E+02 0.  0.
        -12    1    1    2    0    0 -0.29424733305E+02  0.20306604002E+01 -0.12115440168E+02  0.31886084773E+02  0.00000000000E+00 0.  1.
         11    1    3    3    0    0  0.13324474322E+02 -0.53216961162E+01  0.16208553707E+02  0.21646692104E+02  0.51100000000E-03 0. -1.
        -11    1    3    3    0    0  0.18051936548E+01 -0.13349678693E+02  0.43391505122E+01  0.14152769085E+02  0.51100000000E-03 0.  1.
        -12    1    3    3    0    0  0.14295065328E+02  0.16640714409E+02 -0.84322640507E+01  0.23502454038E+02  0.00000000000E+00 0.  1.
</event>
<event>
 7    1  0.7313719E-013  0.5930186E+02  0.7816164E-02  0.1266605E+00
        -11   -1    0    0    0    0  0.00000000000E+00  0.00000000000E+00  0.45593999997E+02  0.45594000000E+02  0.51100000000E-03 0.  1.
         11   -1    0    0    0    0 -0.00000000000E+00 -0.00000000000E+00 -0.45593999997E+02  0.45594000000E+02  0.51100000000E-03 0. -1.
    9900012    2    1    2    0    0 -0.17444590251E+02  0.24978135295E+02 -0.94077200996E+01  0.59301856155E+02  0.49999839741E+02 0.  0.
        -12    1    1    2    0    0  0.17444590251E+02 -0.24978135295E+02  0.94077200996E+01  0.31886143845E+02  0.00000000000E+00 0.  1.
         11    1    3    3    0    0  0.57375807552E+01  0.55225453847E+01  0.83766300186E+00  0.80074977374E+01  0.51100000000E-03 0. -1.
        -11    1    3    3    0    0 -0.14154400378E+02  0.25154515464E+02  0.81793831228E+01  0.29999983447E+02  0.51100000000E-03 0.  1.
         12    1    3    3    0    0 -0.90277706283E+01 -0.56989255536E+01 -0.18424766224E+02  0.21294374971E+02  0.00000000000E+00 0. -1.
</event>
<event>
 7    1  0.7313719E-013  0.5930193E+02  0.7816164E-02  0.1266605E+00
        -11   -1    0    0    0    0  0.00000000000E+00  0.00000000000E+00  0.45593999997E+02  0.45594000000E+02  0.51100000000E-03 0.  1.
         11   -1    0    0    0    0 -0.00000000000E+00 -0.00000000000E+00 -0.45593999997E+02  0.45594000000E+02  0.51100000000E-03 0. -1.
    9900012    2    1    2    0    0  0.77015515819E+01  0.23939066567E+01 -0.30849256792E+02  0.59301932032E+02  0.49999978123E+02 0.  0.
        -12    1    1    2    0    0 -0.77015515819E+01 -0.23939066567E+01  0.30849256792E+02  0.31886067968E+02  0.00000000000E+00 0.  1.
         11    1    3    3    0    0  0.14202350325E+01 -0.59389030354E+01  0.46127751455E+00  0.61237581613E+01  0.51100000000E-03 0.  1.
        -11    1    3    3    0    0  0.73328423780E+01 -0.16463774748E+02 -0.11059334588E+02  0.21145574905E+02  0.51100000000E-03 0. -1.
        -12    1    3    3    0    0 -0.10515258287E+01  0.24796584440E+02 -0.20251199719E+02  0.32032598966E+02  0.00000000000E+00 0.  1.
</event>
<event>
 7    1  0.7313719E-013  0.5930197E+02  0.7816164E-02  0.1266605E+00
        -11   -1    0    0    0    0  0.00000000000E+00  0.00000000000E+00  0.45593999997E+02  0.45594000000E+02  0.51100000000E-03 0.  1.
         11   -1    0    0    0    0 -0.00000000000E+00 -0.00000000000E+00 -0.45593999997E+02  0.45594000000E+02  0.51100000000E-03 0. -1.
    9900012    2    1    2    0    0  0.31197143187E+01  0.31379942895E+02  0.47207677301E+01  0.59301967298E+02  0.50000042439E+02 0.  0.
        -12    1    1    2    0    0 -0.31197143187E+01 -0.31379942895E+02 -0.47207677301E+01  0.31886032702E+02  0.00000000000E+00 0.  1.
         11    1    3    3    0    0  0.68950094299E+01 -0.10736206009E+02  0.55738809726E+01  0.13923915536E+02  0.51100000000E-03 0. -1.
        -11    1    3    3    0    0  0.43790953462E+01  0.82313923496E+01  0.40821562101E+01  0.10178226547E+02  0.51100000000E-03 0.  1.
        -12    1    3    3    0    0 -0.81543904574E+01  0.33884756555E+02 -0.49352694526E+01  0.35199825214E+02  0.00000000000E+00 0.  1.
</event>
<event>
 7    1  0.7313719E-013  0.5930194E+02  0.7816164E-02  0.1266605E+00
        -11   -1    0    0    0    0  0.00000000000E+00  0.00000000000E+00  0.45593999997E+02  0.45594000000E+02  0.51100000000E-03 0.  1.
         11   -1    0    0    0    0 -0.00000000000E+00 -0.00000000000E+00 -0.45593999997E+02  0.45594000000E+02  0.51100000000E-03 0. -1.
    9900012    2    1    2    0    0 -0.20189858468E+02 -0.23928637977E+02 -0.60423997760E+01  0.59301941989E+02  0.49999996282E+02 0.  0.
        -12    1    1    2    0    0  0.20189858468E+02  0.23928637977E+02  0.60423997760E+01  0.31886058011E+02  0.00000000000E+00 0.  1.
         11    1    3    3    0    0  0.15312741687E+01  0.53418691738E+01  0.21577863273E+01  0.59612422317E+01  0.51100000000E-03 0.  1.
        -11    1    3    3    0    0 -0.23956895060E+02 -0.37322330094E+02 -0.69871024033E+01  0.44896645140E+02  0.51100000000E-03 0. -1.
         12    1    3    3    0    0  0.22357624231E+01  0.80518229427E+01 -0.12130837000E+01  0.84440546171E+01  0.00000000000E+00 0. -1.
</event>
<event>
 7    1  0.7313719E-013  0.5930201E+02  0.7816164E-02  0.1266605E+00
        -11   -1    0    0    0    0  0.00000000000E+00  0.00000000000E+00  0.45593999997E+02  0.45594000000E+02  0.51100000000E-03 0.  1.
         11   -1    0    0    0    0 -0.00000000000E+00 -0.00000000000E+00 -0.45593999997E+02  0.45594000000E+02  0.51100000000E-03 0. -1.
    9900012    2    1    2    0    0 -0.15263556392E+02  0.26871619820E+02  0.78521315142E+01  0.59302014445E+02  0.50000128424E+02 0.  0.
        -12    1    1    2    0    0  0.15263556392E+02 -0.26871619820E+02 -0.78521315142E+01  0.31885985555E+02  0.00000000000E+00 0.  1.
         11    1    3    3    0    0  0.73485785295E+01  0.81576686309E+01 -0.17953359703E+01  0.11125304284E+02  0.51100000000E-03 0. -1.
        -11    1    3    3    0    0  0.72174542065E+01  0.13091379601E+02 -0.30774054673E+01  0.15262578083E+02  0.51100000000E-03 0.  1.
        -12    1    3    3    0    0 -0.29829589128E+02  0.56225715888E+01  0.12724872952E+02  0.32914132078E+02  0.00000000000E+00 0.  1.
</event>
<event>
 7    1  0.7313719E-013  0.5930194E+02  0.7816164E-02  0.1266605E+00
        -11   -1    0    0    0    0  0.00000000000E+00  0.00000000000E+00  0.45593999997E+02  0.45594000000E+02  0.51100000000E-03 0.  1.
         11   -1    0    0    0    0 -0.00000000000E+00 -0.00000000000E+00 -0.45593999997E+02  0.45594000000E+02  0.51100000000E-03 0. -1.
    9900012    2    1    2    0    0 -0.22044007888E+02 -0.21960779009E+02 -0.69646574351E+01  0.59301944245E+02  0.50000000396E+02 0.  0.
        -12    1    1    2    0    0  0.22044007888E+02  0.21960779009E+02  0.69646574351E+01  0.31886055755E+02  0.00000000000E+00 0.  1.
         11    1    3    3    0    0  0.27226497016E+01 -0.17448602855E+02 -0.86908134016E+01  0.19682398249E+02  0.51100000000E-03 0. -1.
        -11    1    3    3    0    0 -0.94183386424E+01 -0.16718595603E+02  0.47735052018E+01  0.19773793108E+02  0.51100000000E-03 0.  1.
        -12    1    3    3    0    0 -0.15348318947E+02  0.12206419450E+02 -0.30473492353E+01  0.19845752887E+02  0.00000000000E+00 0.  1.
</event>
<event>
 7    1  0.7313719E-013  0.5930195E+02  0.7816164E-02  0.1266605E+00
        -11   -1    0    0    0    0  0.00000000000E+00  0.00000000000E+00  0.45593999997E+02  0.45594000000E+02  0.51100000000E-03 0. -1.
         11   -1    0    0    0    0 -0.00000000000E+00 -0.00000000000E+00 -0.45593999997E+02  0.45594000000E+02  0.51100000000E-03 0.  1.
    9900012    2    1    2    0    0 -0.25328613488E+02  0.21619063212E+00  0.19368395256E+02  0.59301950787E+02  0.50000012328E+02 0.  0.
        -12    1    1    2    0    0  0.25328613488E+02 -0.21619063212E+00 -0.19368395256E+02  0.31886049213E+02  0.00000000000E+00 0.  1.
         11    1    3    3    0    0 -0.98211753485E+01  0.51005590042E+01  0.11905405672E+02  0.16254533886E+02  0.51100000000E-03 0. -1.
        -11    1    3    3    0    0  0.12111078487E+02  0.17045929437E+01  0.80601685848E+01  0.14647531433E+02  0.51100000000E-03 0.  1.
         12    1    3    3    0    0 -0.27618516626E+02 -0.65889613158E+01 -0.59717900044E+00  0.28399885468E+02  0.00000000000E+00 0. -1.
</event>
<event>
 7    1  0.7313719E-013  0.5930198E+02  0.7816164E-02  0.1266605E+00
        -11   -1    0    0    0    0  0.00000000000E+00  0.00000000000E+00  0.45593999997E+02  0.45594000000E+02  0.51100000000E-03 0.  1.
         11   -1    0    0    0    0 -0.00000000000E+00 -0.00000000000E+00 -0.45593999997E+02  0.45594000000E+02  0.51100000000E-03 0. -1.
    9900012    2    1    2    0    0 -0.23694243970E+01 -0.21332184923E+02 -0.23580549096E+02  0.59301975142E+02  0.50000056745E+02 0.  0.
        -12    1    1    2    0    0  0.23694243970E+01  0.21332184923E+02  0.23580549096E+02  0.31886024858E+02  0.00000000000E+00 0.  1.
         11    1    3    3    0    0  0.13425088886E+02 -0.55811726974E+01 -0.11736638533E+02  0.18685052438E+02  0.51100000000E-03 0. -1.
        -11    1    3    3    0    0  0.28943183246E+01  0.64457678064E+01  0.33982900623E+01  0.78404959528E+01  0.51100000000E-03 0.  1.
        -12    1    3    3    0    0 -0.18688831608E+02 -0.22196780032E+02 -0.15242200626E+02  0.32776426751E+02  0.00000000000E+00 0.  1.
</event>
<event>
 7    1  0.7313719E-013  0.5930195E+02  0.7816164E-02  0.1266605E+00
        -11   -1    0    0    0    0  0.00000000000E+00  0.00000000000E+00  0.45593999997E+02  0.45594000000E+02  0.51100000000E-03 0.  1.
         11   -1    0    0    0    0 -0.00000000000E+00 -0.00000000000E+00 -0.45593999997E+02  0.45594000000E+02  0.51100000000E-03 0. -1.
    9900012    2    1    2    0    0  0.91479158883E+01  0.29486289024E+02 -0.79746348602E+01  0.59301946518E+02  0.50000004542E+02 0.  0.
        -12    1    1    2    0    0 -0.91479158883E+01 -0.29486289024E+02  0.79746348602E+01  0.31886053482E+02  0.00000000000E+00 0.  1.
         11    1    3    3    0    0 -0.25839838716E+01  0.23540880287E+02 -0.15348429566E+02  0.28220990552E+02  0.51100000000E-03 0. -1.
        -11    1    3    3    0    0  0.13069197844E+02  0.14472640031E+02 -0.34243500314E+00  0.19503294690E+02  0.51100000000E-03 0.  1.
        -12    1    3    3    0    0 -0.13372980843E+01 -0.85272312943E+01  0.77162297091E+01  0.11577661277E+02  0.00000000000E+00 0.  1.
</event>
<event>
 7    1  0.7313719E-013  0.5930196E+02  0.7816164E-02  0.1266605E+00
        -11   -1    0    0    0    0  0.00000000000E+00  0.00000000000E+00  0.45593999997E+02  0.45594000000E+02  0.51100000000E-03 0. -1.
         11   -1    0    0    0    0 -0.00000000000E+00 -0.00000000000E+00 -0.45593999997E+02  0.45594000000E+02  0.51100000000E-03 0.  1.
    9900012    2    1    2    0    0 -0.29546540487E+02 -0.30076482686E+01  0.11604983608E+02  0.59301958424E+02  0.50000026255E+02 0.  0.
        -12    1    1    2    0    0  0.29546540487E+02  0.30076482686E+01 -0.11604983608E+02  0.31886041576E+02  0.00000000000E+00 0.  1.
         11    1    3    3    0    0  0.77924416125E-01 -0.57275245041E+00  0.21505217672E+02  0.21512984567E+02  0.51100000000E-03 0. -1.
        -11    1    3    3    0    0  0.25326438739E+01  0.13206937020E+01  0.17860219874E+01  0.33687373966E+01  0.51100000000E-03 0.  1.
         12    1    3    3    0    0 -0.32157108777E+02 -0.37555895202E+01 -0.11686256051E+02  0.34420236461E+02  0.00000000000E+00 0. -1.
</event>
<event>
 7    1  0.7313719E-013  0.5930193E+02  0.7816164E-02  0.1266605E+00
        -11   -1    0    0    0    0  0.00000000000E+00  0.00000000000E+00  0.45593999997E+02  0.45594000000E+02  0.51100000000E-03 0. -1.
         11   -1    0    0    0    0 -0.00000000000E+00 -0.00000000000E+00 -0.45593999997E+02  0.45594000000E+02  0.51100000000E-03 0.  1.
    9900012    2    1    2    0    0  0.43312315926E+01  0.29740097336E+02 -0.10653106179E+02  0.59301927368E+02  0.49999969616E+02 0.  0.
        -12    1    1    2    0    0 -0.43312315926E+01 -0.29740097336E+02  0.10653106179E+02  0.31886072632E+02  0.00000000000E+00 0.  1.
         11    1    3    3    0    0  0.13130576020E+02  0.53798018355E+01 -0.19267051874E+01  0.14320142720E+02  0.51100000000E-03 0. -1.
        -11    1    3    3    0    0 -0.49296942688E+01 -0.71342459065E+01  0.54345394711E+01  0.10233942044E+02  0.51100000000E-03 0.  1.
        -12    1    3    3    0    0 -0.38696501583E+01  0.31494541407E+02 -0.14160940462E+02  0.34747842603E+02  0.00000000000E+00 0.  1.
</event>
<event>
 7    1  0.7313719E-013  0.5930195E+02  0.7816164E-02  0.1266605E+00
        -11   -1    0    0    0    0  0.00000000000E+00  0.00000000000E+00  0.45593999997E+02  0.45594000000E+02  0.51100000000E-03 0. -1.
         11   -1    0    0    0    0 -0.00000000000E+00 -0.00000000000E+00 -0.45593999997E+02  0.45594000000E+02  0.51100000000E-03 0.  1.
    9900012    2    1    2    0    0  0.14778860480E+02  0.10731699734E+02  0.26136873107E+02  0.59301949256E+02  0.50000009535E+02 0.  0.
        -12    1    1    2    0    0 -0.14778860480E+02 -0.10731699734E+02 -0.26136873107E+02  0.31886050744E+02  0.00000000000E+00 0.  1.
         11    1    3    3    0    0  0.65632314052E+01  0.17686398342E+02  0.73608955700E+01  0.20250122880E+02  0.51100000000E-03 0. -1.
        -11    1    3    3    0    0  0.57042119141E+01 -0.37215348061E+01  0.28076145158E+02  0.28890444477E+02  0.51100000000E-03 0.  1.
         12    1    3    3    0    0  0.25114171606E+01 -0.32331638018E+01 -0.93001676212E+01  0.10161381899E+02  0.00000000000E+00 0. -1.
</event>
<event>
 7    1  0.7313719E-013  0.5930196E+02  0.7816164E-02  0.1266605E+00
        -11   -1    0    0    0    0  0.00000000000E+00  0.00000000000E+00  0.45593999997E+02  0.45594000000E+02  0.51100000000E-03 0. -1.
         11   -1    0    0    0    0 -0.00000000000E+00 -0.00000000000E+00 -0.45593999997E+02  0.45594000000E+02  0.51100000000E-03 0.  1.
    9900012    2    1    2    0    0 -0.17140848599E+02  0.25837274929E+02  0.74395016626E+01  0.59301958360E+02  0.50000026139E+02 0.  0.
        -12    1    1    2    0    0  0.17140848599E+02 -0.25837274929E+02 -0.74395016626E+01  0.31886041640E+02  0.00000000000E+00 0.  1.
         11    1    3    3    0    0 -0.96361772887E+01 -0.33582550758E+00 -0.60195877148E+01  0.11366799375E+02  0.51100000000E-03 0.  1.
        -11    1    3    3    0    0 -0.62592410380E+01  0.81781511659E+00 -0.11000528988E+02  0.12683002728E+02  0.51100000000E-03 0. -1.
         12    1    3    3    0    0 -0.12454302724E+01  0.25355285320E+02  0.24459618365E+02  0.35252156257E+02  0.00000000000E+00 0. -1.
</event>
<event>
 7    1  0.7313719E-013  0.5930193E+02  0.7816164E-02  0.1266605E+00
        -11   -1    0    0    0    0  0.00000000000E+00  0.00000000000E+00  0.45593999997E+02  0.45594000000E+02  0.51100000000E-03 0.  1.
         11   -1    0    0    0    0 -0.00000000000E+00 -0.00000000000E+00 -0.45593999997E+02  0.45594000000E+02  0.51100000000E-03 0. -1.
    9900012    2    1    2    0    0 -0.20707914530E+02  0.17317553145E+02 -0.16970738617E+02  0.59301931878E+02  0.49999977841E+02 0.  0.
        -12    1    1    2    0    0  0.20707914530E+02 -0.17317553145E+02  0.16970738617E+02  0.31886068122E+02  0.00000000000E+00 0.  1.
         11    1    3    3    0    0 -0.21580539549E+02  0.25006670297E+01 -0.22793680889E+02  0.31488488556E+02  0.51100000000E-03 0. -1.
        -11    1    3    3    0    0 -0.28752383922E+01 -0.33446531202E+01 -0.47377022398E+01  0.64729840939E+01  0.51100000000E-03 0.  1.
        -12    1    3    3    0    0  0.37478634112E+01  0.18161539235E+02  0.10560644512E+02  0.21340459228E+02  0.00000000000E+00 0.  1.
</event>
<event>
 7    1  0.7313719E-013  0.5930196E+02  0.7816164E-02  0.1266605E+00
        -11   -1    0    0    0    0  0.00000000000E+00  0.00000000000E+00  0.45593999997E+02  0.45594000000E+02  0.51100000000E-03 0.  1.
         11   -1    0    0    0    0 -0.00000000000E+00 -0.00000000000E+00 -0.45593999997E+02  0.45594000000E+02  0.51100000000E-03 0. -1.
    9900012    2    1    2    0    0 -0.14538590278E+01 -0.15237455805E+02 -0.27971877861E+02  0.59301957340E+02  0.50000024278E+02 0.  0.
        -12    1    1    2    0    0  0.14538590278E+01  0.15237455805E+02  0.27971877861E+02  0.31886042660E+02  0.00000000000E+00 0.  1.
         11    1    3    3    0    0  0.42924462596E+01  0.14045675389E+02 -0.15094474223E+01  0.14764298960E+02  0.51100000000E-03 0. -1.
        -11    1    3    3    0    0  0.14302023428E+01 -0.23838746752E+01  0.29398384248E+01  0.40461076893E+01  0.51100000000E-03 0.  1.
        -12    1    3    3    0    0 -0.71765076302E+01 -0.26899256518E+02 -0.29402268863E+02  0.40491550690E+02  0.00000000000E+00 0.  1.
</event>
<event>
 7    1  0.7313719E-013  0.5930197E+02  0.7816164E-02  0.1266605E+00
        -11   -1    0    0    0    0  0.00000000000E+00  0.00000000000E+00  0.45593999997E+02  0.45594000000E+02  0.51100000000E-03 0.  1.
         11   -1    0    0    0    0 -0.00000000000E+00 -0.00000000000E+00 -0.45593999997E+02  0.45594000000E+02  0.51100000000E-03 0. -1.
    9900012    2    1    2    0    0 -0.10240563802E+02  0.42184715528E+01 -0.29900736627E+02  0.59301973279E+02  0.50000053348E+02 0.  0.
        -12    1    1    2    0    0  0.10240563802E+02 -0.42184715528E+01  0.29900736627E+02  0.31886026721E+02  0.00000000000E+00 0.  1.
         11    1    3    3    0    0 -0.15278426326E+02 -0.22280458022E+01 -0.12479027401E+02  0.19852471489E+02  0.51100000000E-03 0. -1.
        -11    1    3    3    0    0  0.17735791958E+02 -0.22125105673E+00 -0.17764227303E+02  0.25103287441E+02  0.51100000000E-03 0.  1.
         12    1    3    3    0    0 -0.12697929434E+02  0.66677684117E+01  0.34251807730E+00  0.14346214349E+02  0.00000000000E+00 0. -1.
</event>
<event>
 7    1  0.7313719E-013  0.5930198E+02  0.7816164E-02  0.1266605E+00
        -11   -1    0    0    0    0  0.00000000000E+00  0.00000000000E+00  0.45593999997E+02  0.45594000000E+02  0.51100000000E-03 0.  1.
         11   -1    0    0    0    0 -0.00000000000E+00 -0.00000000000E+00 -0.45593999997E+02  0.45594000000E+02  0.51100000000E-03 0. -1.
    9900012    2    1    2    0    0  0.15367559618E+02  0.20938274464E+02 -0.18497168826E+02  0.59301976718E+02  0.50000059620E+02 0.  0.
        -12    1    1    2    0    0 -0.15367559618E+02 -0.20938274464E+02  0.18497168826E+02  0.31886023282E+02  0.00000000000E+00 0.  1.
         11    1    3    3    0    0  0.78784166669E+01 -0.29905705525E+00  0.91484730033E+01  0.12076979873E+02  0.51100000000E-03 0. -1.
        -11    1    3    3    0    0 -0.53803396899E+01  0.12863660460E+02  0.17580732326E+01  0.14053918932E+02  0.51100000000E-03 0.  1.
         12    1    3    3    0    0  0.12869482641E+02  0.83736710597E+01 -0.29403715062E+02  0.33171077913E+02  0.00000000000E+00 0. -1.
</event>
<event>
 7    1  0.7313719E-013  0.5930194E+02  0.7816164E-02  0.1266605E+00
        -11   -1    0    0    0    0  0.00000000000E+00  0.00000000000E+00  0.45593999997E+02  0.45594000000E+02  0.51100000000E-03 0.  1.
         11   -1    0    0    0    0 -0.00000000000E+00 -0.00000000000E+00 -0.45593999997E+02  0.45594000000E+02  0.51100000000E-03 0. -1.
    9900012    2    1    2    0    0  0.13700373971E+02  0.24517965544E+02 -0.15096027696E+02  0.59301938255E+02  0.49999989473E+02 0.  0.
        -12    1    1    2    0    0 -0.13700373971E+02 -0.24517965544E+02  0.15096027696E+02  0.31886061745E+02  0.00000000000E+00 0.  1.
         11    1    3    3    0    0 -0.23203935760E+01  0.14101222034E+02  0.10870989731E+02  0.17955698460E+02  0.51100000000E-03 0. -1.
        -11    1    3    3    0    0  0.30689375058E+01 -0.75804555069E+01 -0.14782130048E+01  0.83106436006E+01  0.51100000000E-03 0.  1.
         12    1    3    3    0    0  0.12951830041E+02  0.17997199018E+02 -0.24488804423E+02  0.33035596195E+02  0.00000000000E+00 0. -1.
</event>
<event>
 7    1  0.7313719E-013  0.5930194E+02  0.7816164E-02  0.1266605E+00
        -11   -1    0    0    0    0  0.00000000000E+00  0.00000000000E+00  0.45593999997E+02  0.45594000000E+02  0.51100000000E-03 0. -1.
         11   -1    0    0    0    0 -0.00000000000E+00 -0.00000000000E+00 -0.45593999997E+02  0.45594000000E+02  0.51100000000E-03 0.  1.
    9900012    2    1    2    0    0 -0.13788902436E+02 -0.26277636314E+02  0.11665012030E+02  0.59301944956E+02  0.50000001693E+02 0.  0.
        -12    1    1    2    0    0  0.13788902436E+02  0.26277636314E+02 -0.11665012030E+02  0.31886055044E+02  0.00000000000E+00 0.  1.
         11    1    3    3    0    0 -0.12384695397E+02 -0.16397968194E+01 -0.82394056624E+01  0.14965206969E+02  0.51100000000E-03 0.  1.
        -11    1    3    3    0    0 -0.81463333775E+01 -0.29530195633E+02  0.12146278782E+02  0.32953410903E+02  0.51100000000E-03 0. -1.
        -12    1    3    3    0    0  0.67421263384E+01  0.48923561391E+01  0.77581389105E+01  0.11383327084E+02  0.00000000000E+00 0.  1.
</event>
<event>
 7    1  0.7313719E-013  0.5930198E+02  0.7816164E-02  0.1266605E+00
        -11   -1    0    0    0    0  0.00000000000E+00  0.00000000000E+00  0.45593999997E+02  0.45594000000E+02  0.51100000000E-03 0. -1.
         11   -1    0    0    0    0 -0.00000000000E+00 -0.00000000000E+00 -0.45593999997E+02  0.45594000000E+02  0.51100000000E-03 0.  1.
    9900012    2    1    2    0    0 -0.20172470047E+02  0.10124466312E+02  0.22522992485E+02  0.59301975532E+02  0.50000057456E+02 0.  0.
        -12    1    1    2    0    0  0.20172470047E+02 -0.10124466312E+02 -0.22522992485E+02  0.31886024468E+02  0.00000000000E+00 0.  1.
         11    1    3    3    0    0  0.42803263178E+00 -0.95935974071E+00  0.80534960207E+01  0.81217228137E+01  0.51100000000E-03 0. -1.
        -11    1    3    3    0    0  0.69641462532E+01  0.13247349552E+02 -0.66602881509E+01  0.16381423678E+02  0.51100000000E-03 0.  1.
         12    1    3    3    0    0 -0.27564648932E+02 -0.21635235000E+01  0.21129784615E+02  0.34798829040E+02  0.00000000000E+00 0. -1.
</event>
<event>
 7    1  0.7313719E-013  0.5930196E+02  0.7816164E-02  0.1266605E+00
        -11   -1    0    0    0    0  0.00000000000E+00  0.00000000000E+00  0.45593999997E+02  0.45594000000E+02  0.51100000000E-03 0.  1.
         11   -1    0    0    0    0 -0.00000000000E+00 -0.00000000000E+00 -0.45593999997E+02  0.45594000000E+02  0.51100000000E-03 0. -1.
    9900012    2    1    2    0    0 -0.24778221579E+02 -0.75524701581E+01 -0.18593527702E+02  0.59301963205E+02  0.50000034974E+02 0.  0.
        -12    1    1    2    0    0  0.24778221579E+02  0.75524701581E+01  0.18593527702E+02  0.31886036795E+02  0.00000000000E+00 0.  1.
         11    1    3    3    0    0 -0.62314621459E+01 -0.11156160899E+02  0.44099618292E+00  0.12786145799E+02  0.51100000000E-03 0. -1.
        -11    1    3    3    0    0 -0.18457441709E+02  0.67150361502E+01  0.65792183291E+01  0.20713642341E+02  0.51100000000E-03 0.  1.
         12    1    3    3    0    0 -0.89317724562E-01 -0.31113454089E+01 -0.25613742214E+02  0.25802175065E+02  0.00000000000E+00 0. -1.
</event>
<event>
 7    1  0.7313719E-013  0.5930192E+02  0.7816164E-02  0.1266605E+00
        -11   -1    0    0    0    0  0.00000000000E+00  0.00000000000E+00  0.45593999997E+02  0.45594000000E+02  0.51100000000E-03 0.  1.
         11   -1    0    0    0    0 -0.00000000000E+00 -0.00000000000E+00 -0.45593999997E+02  0.45594000000E+02  0.51100000000E-03 0. -1.
    9900012    2    1    2    0    0 -0.21308695345E+02 -0.23363316326E+02 -0.41008503250E+01  0.59301921213E+02  0.49999958391E+02 0.  0.
        -12    1    1    2    0    0  0.21308695345E+02  0.23363316326E+02  0.41008503250E+01  0.31886078787E+02  0.00000000000E+00 0.  1.
         11    1    3    3    0    0 -0.11952223576E+02 -0.24143529720E+00 -0.79460171491E+01  0.14354550784E+02  0.51100000000E-03 0. -1.
        -11    1    3    3    0    0  0.16497068210E+01 -0.30556602204E+02 -0.14818231799E+01  0.30636959233E+02  0.51100000000E-03 0.  1.
         12    1    3    3    0    0 -0.11006178590E+02  0.74347211754E+01  0.53269900040E+01  0.14310411196E+02  0.00000000000E+00 0. -1.
</event>
<event>
 7    1  0.7313719E-013  0.5930195E+02  0.7816164E-02  0.1266605E+00
        -11   -1    0    0    0    0  0.00000000000E+00  0.00000000000E+00  0.45593999997E+02  0.45594000000E+02  0.51100000000E-03 0.  1.
         11   -1    0    0    0    0 -0.00000000000E+00 -0.00000000000E+00 -0.45593999997E+02  0.45594000000E+02  0.51100000000E-03 0. -1.
    9900012    2    1    2    0    0  0.15013979224E+02  0.18182156549E+02 -0.21464146867E+02  0.59301953057E+02  0.50000016468E+02 0.  0.
        -12    1    1    2    0    0 -0.15013979224E+02 -0.18182156549E+02  0.21464146867E+02  0.31886046943E+02  0.00000000000E+00 0.  1.
         11    1    3    3    0    0  0.36055498733E+01  0.17243589048E+02  0.31934547703E+01  0.17903617142E+02  0.51100000000E-03 0. -1.
        -11    1    3    3    0    0  0.51610289508E+01  0.66032160540E+00 -0.31616856409E+02  0.32042126238E+02  0.51100000000E-03 0.  1.
         12    1    3    3    0    0  0.62474004001E+01  0.27824589523E+00  0.69592547715E+01  0.93562096766E+01  0.00000000000E+00 0. -1.
</event>
<event>
 7    1  0.7313719E-013  0.5930195E+02  0.7816164E-02  0.1266605E+00
        -11   -1    0    0    0    0  0.00000000000E+00  0.00000000000E+00  0.45593999997E+02  0.45594000000E+02  0.51100000000E-03 0.  1.
         11   -1    0    0    0    0 -0.00000000000E+00 -0.00000000000E+00 -0.45593999997E+02  0.45594000000E+02  0.51100000000E-03 0. -1.
    9900012    2    1    2    0    0 -0.18317680666E+02 -0.11817585025E+02 -0.23270746378E+02  0.59301946971E+02  0.50000005367E+02 0.  0.
        -12    1    1    2    0    0  0.18317680666E+02  0.11817585025E+02  0.23270746378E+02  0.31886053029E+02  0.00000000000E+00 0.  1.
         11    1    3    3    0    0  0.31545680804E+01 -0.85672758662E+01  0.52078204681E+01  0.10510514251E+02  0.51100000000E-03 0. -1.
        -11    1    3    3    0    0  0.68008875444E+01 -0.24490099790E+01  0.17047003874E+01  0.74266900394E+01  0.51100000000E-03 0.  1.
         12    1    3    3    0    0 -0.28273136291E+02 -0.80129918003E+00 -0.30183267234E+02  0.41364742680E+02  0.00000000000E+00 0. -1.
</event>
<event>
 7    1  0.7313719E-013  0.5930195E+02  0.7816164E-02  0.1266605E+00
        -11   -1    0    0    0    0  0.00000000000E+00  0.00000000000E+00  0.45593999997E+02  0.45594000000E+02  0.51100000000E-03 0. -1.
         11   -1    0    0    0    0 -0.00000000000E+00 -0.00000000000E+00 -0.45593999997E+02  0.45594000000E+02  0.51100000000E-03 0.  1.
    9900012    2    1    2    0    0 -0.50587530782E+01  0.17958711009E+01  0.31430941773E+02  0.59301949187E+02  0.50000009410E+02 0.  0.
        -12    1    1    2    0    0  0.50587530782E+01 -0.17958711009E+01 -0.31430941773E+02  0.31886050813E+02  0.00000000000E+00 0.  1.
         11    1    3    3    0    0 -0.37028559924E+01  0.10682211801E+02  0.17756731954E+02  0.21050470812E+02  0.51100000000E-03 0. -1.
        -11    1    3    3    0    0 -0.74763898163E+01  0.63032974694E+01 -0.68905750976E+01  0.11962775143E+02  0.51100000000E-03 0.  1.
         12    1    3    3    0    0  0.61204927305E+01 -0.15189638170E+02  0.20564784917E+02  0.26288703233E+02  0.00000000000E+00 0. -1.
</event>
<event>
 7    1  0.7423424E-013  0.5930193E+02  0.7816164E-02  0.1266605E+00
        -11   -1    0    0    0    0  0.00000000000E+00  0.00000000000E+00  0.45593999997E+02  0.45594000000E+02  0.51100000000E-03 0. -1.
         11   -1    0    0    0    0 -0.00000000000E+00 -0.00000000000E+00 -0.45593999997E+02  0.45594000000E+02  0.51100000000E-03 0.  1.
    9900012    2    1    2    0    0  0.10412150979E+02  0.25361058738E+02  0.16282668317E+02  0.59301929752E+02  0.49999973965E+02 0.  0.
        -12    1    1    2    0    0 -0.10412150979E+02 -0.25361058738E+02 -0.16282668317E+02  0.31886070248E+02  0.00000000000E+00 0.  1.
         11    1    3    3    0    0 -0.88209866584E+01  0.48453805385E+01  0.96958668333E+01  0.13974882901E+02  0.51100000000E-03 0. -1.
        -11    1    3    3    0    0  0.10123558924E+02 -0.92487440743E+01  0.23679108836E+01  0.13915197248E+02  0.51100000000E-03 0.  1.
         12    1    3    3    0    0  0.91095787139E+01  0.29764422273E+02  0.42188906005E+01  0.31411849603E+02  0.00000000000E+00 0. -1.
</event>
<event>
 7    1  0.7313719E-013  0.5930195E+02  0.7816164E-02  0.1266605E+00
        -11   -1    0    0    0    0  0.00000000000E+00  0.00000000000E+00  0.45593999997E+02  0.45594000000E+02  0.51100000000E-03 0.  1.
         11   -1    0    0    0    0 -0.00000000000E+00 -0.00000000000E+00 -0.45593999997E+02  0.45594000000E+02  0.51100000000E-03 0. -1.
    9900012    2    1    2    0    0  0.82288836123E+01 -0.24615526676E+02 -0.18522464642E+02  0.59301947007E+02  0.50000005434E+02 0.  0.
        -12    1    1    2    0    0 -0.82288836123E+01  0.24615526676E+02  0.18522464642E+02  0.31886052993E+02  0.00000000000E+00 0.  1.
         11    1    3    3    0    0  0.97196212493E+01 -0.18996055609E+02 -0.26418816279E+02  0.33959903118E+02  0.51100000000E-03 0. -1.
        -11    1    3    3    0    0 -0.84251525995E+01 -0.57327845483E+01 -0.44981134048E+01  0.11139166911E+02  0.51100000000E-03 0.  1.
        -12    1    3    3    0    0  0.69344149625E+01  0.11331348186E+00  0.12394465041E+02  0.14202876979E+02  0.00000000000E+00 0.  1.
</event>
<event>
 7    1  0.7313719E-013  0.5930194E+02  0.7816164E-02  0.1266605E+00
        -11   -1    0    0    0    0  0.00000000000E+00  0.00000000000E+00  0.45593999997E+02  0.45594000000E+02  0.51100000000E-03 0. -1.
         11   -1    0    0    0    0 -0.00000000000E+00 -0.00000000000E+00 -0.45593999997E+02  0.45594000000E+02  0.51100000000E-03 0.  1.
    9900012    2    1    2    0    0 -0.10388847501E+02  0.28666485767E+02  0.93287440102E+01  0.59301936846E+02  0.49999986902E+02 0.  0.
        -12    1    1    2    0    0  0.10388847501E+02 -0.28666485767E+02 -0.93287440102E+01  0.31886063154E+02  0.00000000000E+00 0.  1.
         11    1    3    3    0    0  0.29577968605E+01  0.28296266444E+02  0.17906823527E+01  0.28506732546E+02  0.51100000000E-03 0. -1.
        -11    1    3    3    0    0 -0.13099644014E+02  0.60689757690E+01 -0.63570679611E+01  0.15774836085E+02  0.51100000000E-03 0.  1.
         12    1    3    3    0    0 -0.24700034799E+00 -0.56987564456E+01  0.13895129619E+02  0.15020368215E+02  0.00000000000E+00 0. -1.
</event>
<event>
 7    1  0.7313719E-013  0.5930196E+02  0.7816164E-02  0.1266605E+00
        -11   -1    0    0    0    0  0.00000000000E+00  0.00000000000E+00  0.45593999997E+02  0.45594000000E+02  0.51100000000E-03 0.  1.
         11   -1    0    0    0    0 -0.00000000000E+00 -0.00000000000E+00 -0.45593999997E+02  0.45594000000E+02  0.51100000000E-03 0. -1.
    9900012    2    1    2    0    0  0.12706392017E+01 -0.24461154222E+01 -0.31766671791E+02  0.59301961655E+02  0.50000032149E+02 0.  0.
        -12    1    1    2    0    0 -0.12706392017E+01  0.24461154222E+01  0.31766671791E+02  0.31886038345E+02  0.00000000000E+00 0.  1.
         11    1    3    3    0    0 -0.94201678868E+01 -0.68882029072E+01 -0.22377869077E+02  0.25237985795E+02  0.51100000000E-03 0. -1.
        -11    1    3    3    0    0 -0.93622979012E+01 -0.43178138142E+01 -0.59753436919E+01  0.11916411818E+02  0.51100000000E-03 0.  1.
         12    1    3    3    0    0  0.20053104990E+02  0.87599012991E+01 -0.34134590218E+01  0.22147564042E+02  0.00000000000E+00 0. -1.
</event>
<event>
 7    1  0.7313719E-013  0.5930191E+02  0.7816164E-02  0.1266605E+00
        -11   -1    0    0    0    0  0.00000000000E+00  0.00000000000E+00  0.45593999997E+02  0.45594000000E+02  0.51100000000E-03 0.  1.
         11   -1    0    0    0    0 -0.00000000000E+00 -0.00000000000E+00 -0.45593999997E+02  0.45594000000E+02  0.51100000000E-03 0. -1.
    9900012    2    1    2    0    0 -0.34550324519E+01 -0.69797866895E+01 -0.30920345333E+02  0.59301914837E+02  0.49999946763E+02 0.  0.
        -12    1    1    2    0    0  0.34550324519E+01  0.69797866895E+01  0.30920345333E+02  0.31886085163E+02  0.00000000000E+00 0.  1.
         11    1    3    3    0    0  0.86203934460E+00  0.15630161890E+02 -0.70829793127E+01  0.17181783049E+02  0.51100000000E-03 0. -1.
        -11    1    3    3    0    0  0.63214229730E+00  0.31679512843E+01  0.31223548887E+01  0.44927296308E+01  0.51100000000E-03 0.  1.
        -12    1    3    3    0    0 -0.49492140938E+01 -0.25777899864E+02 -0.26959720909E+02  0.37627402157E+02  0.00000000000E+00 0.  1.
</event>
<event>
 7    1  0.7313719E-013  0.5930194E+02  0.7816164E-02  0.1266605E+00
        -11   -1    0    0    0    0  0.00000000000E+00  0.00000000000E+00  0.45593999997E+02  0.45594000000E+02  0.51100000000E-03 0. -1.
         11   -1    0    0    0    0 -0.00000000000E+00 -0.00000000000E+00 -0.45593999997E+02  0.45594000000E+02  0.51100000000E-03 0.  1.
    9900012    2    1    2    0    0  0.11288321437E+02  0.13809791801E+02  0.26430749475E+02  0.59301936144E+02  0.49999985622E+02 0.  0.
        -12    1    1    2    0    0 -0.11288321437E+02 -0.13809791801E+02 -0.26430749475E+02  0.31886063856E+02  0.00000000000E+00 0.  1.
         11    1    3    3    0    0 -0.10456976383E+02  0.23238126029E+01  0.16623988650E+02  0.19776386398E+02  0.51100000000E-03 0. -1.
        -11    1    3    3    0    0  0.84100746709E+01  0.10310422729E+02  0.19065139176E+02  0.23248950619E+02  0.51100000000E-03 0.  1.
        -12    1    3    3    0    0  0.13335223148E+02  0.11755564698E+01 -0.92583783514E+01  0.16276599127E+02  0.00000000000E+00 0.  1.
</event>
<event>
 7    1  0.7313719E-013  0.5930192E+02  0.7816164E-02  0.1266605E+00
        -11   -1    0    0    0    0  0.00000000000E+00  0.00000000000E+00  0.45593999997E+02  0.45594000000E+02  0.51100000000E-03 0.  1.
         11   -1    0    0    0    0 -0.00000000000E+00 -0.00000000000E+00 -0.45593999997E+02  0.45594000000E+02  0.51100000000E-03 0. -1.
    9900012    2    1    2    0    0  0.11577758432E+02 -0.28299503276E+02  0.90451896190E+01  0.59301924180E+02  0.49999963802E+02 0.  0.
        -12    1    1    2    0    0 -0.11577758432E+02  0.28299503276E+02 -0.90451896190E+01  0.31886075820E+02  0.00000000000E+00 0.  1.
         11    1    3    3    0    0 -0.71006093501E+01 -0.36786780472E+01  0.12656940961E+01  0.80964996834E+01  0.51100000000E-03 0. -1.
        -11    1    3    3    0    0 -0.11742691001E+02 -0.75735994104E+00  0.28331600430E-02  0.11767089459E+02  0.51100000000E-03 0.  1.
         12    1    3    3    0    0  0.30421058783E+02 -0.23863465288E+02  0.77766623629E+01  0.39438335038E+02  0.00000000000E+00 0. -1.
</event>
<event>
 7    1  0.7313719E-013  0.5930197E+02  0.7816164E-02  0.1266605E+00
        -11   -1    0    0    0    0  0.00000000000E+00  0.00000000000E+00  0.45593999997E+02  0.45594000000E+02  0.51100000000E-03 0. -1.
         11   -1    0    0    0    0 -0.00000000000E+00 -0.00000000000E+00 -0.45593999997E+02  0.45594000000E+02  0.51100000000E-03 0.  1.
    9900012    2    1    2    0    0 -0.70422992860E+00 -0.15909498936E+02  0.27624463235E+02  0.59301967553E+02  0.50000042905E+02 0.  0.
        -12    1    1    2    0    0  0.70422992860E+00  0.15909498936E+02 -0.27624463235E+02  0.31886032447E+02  0.00000000000E+00 0.  1.
         11    1    3    3    0    0 -0.29604842850E+01 -0.27566808537E+02  0.70740583647E+01  0.28613558012E+02  0.51100000000E-03 0. -1.
        -11    1    3    3    0    0  0.17660707815E+01 -0.45044150490E+01  0.10730684268E+02  0.11770995967E+02  0.51100000000E-03 0.  1.
        -12    1    3    3    0    0  0.49018357491E+00  0.16161724650E+02  0.98197206026E+01  0.18917413574E+02  0.00000000000E+00 0.  1.
</event>
<event>
 7    1  0.7313719E-013  0.5930198E+02  0.7816164E-02  0.1266605E+00
        -11   -1    0    0    0    0  0.00000000000E+00  0.00000000000E+00  0.45593999997E+02  0.45594000000E+02  0.51100000000E-03 0. -1.
         11   -1    0    0    0    0 -0.00000000000E+00 -0.00000000000E+00 -0.45593999997E+02  0.45594000000E+02  0.51100000000E-03 0.  1.
    9900012    2    1    2    0    0  0.17191105295E+02 -0.11929299697E+02  0.24059845676E+02  0.59301976942E+02  0.50000060028E+02 0.  0.
        -12    1    1    2    0    0 -0.17191105295E+02  0.11929299697E+02 -0.24059845676E+02  0.31886023058E+02  0.00000000000E+00 0.  1.
         11    1    3    3    0    0 -0.10124414876E+02  0.95592455966E+01  0.63404691068E+01  0.15299820316E+02  0.51100000000E-03 0. -1.
        -11    1    3    3    0    0  0.20751878283E+00 -0.10076594118E+02  0.89595655723E+00  0.10118475749E+02  0.51100000000E-03 0.  1.
         12    1    3    3    0    0  0.27108001388E+02 -0.11411951176E+02  0.16823420012E+02  0.33883680877E+02  0.00000000000E+00 0. -1.
</event>
<event>
 7    1  0.7313719E-013  0.5930193E+02  0.7816164E-02  0.1266605E+00
        -11   -1    0    0    0    0  0.00000000000E+00  0.00000000000E+00  0.45593999997E+02  0.45594000000E+02  0.51100000000E-03 0. -1.
         11   -1    0    0    0    0 -0.00000000000E+00 -0.00000000000E+00 -0.45593999997E+02  0.45594000000E+02  0.51100000000E-03 0.  1.
    9900012    2    1    2    0    0 -0.46519116363E+01 -0.23299234213E+02  0.21265620873E+02  0.59301933640E+02  0.49999981056E+02 0.  0.
        -12    1    1    2    0    0  0.46519116363E+01  0.23299234213E+02 -0.21265620873E+02  0.31886066360E+02  0.00000000000E+00 0.  1.
         11    1    3    3    0    0  0.94050933281E+01 -0.22277310224E+02  0.11146526019E+02  0.26626666594E+02  0.51100000000E-03 0. -1.
        -11    1    3    3    0    0  0.57187992309E+01 -0.20493650368E-01 -0.51302251565E+01  0.76827270582E+01  0.51100000000E-03 0.  1.
         12    1    3    3    0    0 -0.19775804195E+02 -0.10014303383E+01  0.15249320011E+02  0.24992539988E+02  0.00000000000E+00 0. -1.
</event>
<event>
 7    1  0.7313719E-013  0.5930195E+02  0.7816164E-02  0.1266605E+00
        -11   -1    0    0    0    0  0.00000000000E+00  0.00000000000E+00  0.45593999997E+02  0.45594000000E+02  0.51100000000E-03 0. -1.
         11   -1    0    0    0    0 -0.00000000000E+00 -0.00000000000E+00 -0.45593999997E+02  0.45594000000E+02  0.51100000000E-03 0.  1.
    9900012    2    1    2    0    0 -0.80879332226E+01  0.13061752067E+02  0.27940942492E+02  0.59301948218E+02  0.50000007642E+02 0.  0.
        -12    1    1    2    0    0  0.80879332226E+01 -0.13061752067E+02 -0.27940942492E+02  0.31886051782E+02  0.00000000000E+00 0.  1.
         11    1    3    3    0    0 -0.20374628158E+01  0.91411148889E+01  0.21068682162E+02  0.23056465567E+02  0.51100000000E-03 0. -1.
        -11    1    3    3    0    0  0.75832582536E+01 -0.12226609085E+02  0.16908308584E+01  0.14486362025E+02  0.51100000000E-03 0.  1.
         12    1    3    3    0    0 -0.13633728660E+02  0.16147246263E+02  0.51814294717E+01  0.21759120626E+02  0.00000000000E+00 0. -1.
</event>
<event>
 7    1  0.9452638E-013  0.5930194E+02  0.7816164E-02  0.1266605E+00
        -11   -1    0    0    0    0  0.00000000000E+00  0.00000000000E+00  0.45593999997E+02  0.45594000000E+02  0.51100000000E-03 0. -1.
         11   -1    0    0    0    0 -0.00000000000E+00 -0.00000000000E+00 -0.45593999997E+02  0.45594000000E+02  0.51100000000E-03 0.  1.
    9900012    2    1    2    0    0  0.14344280659E+02  0.18406977552E+02  0.21728911444E+02  0.59301940306E+02  0.49999993213E+02 0.  0.
        -12    1    1    2    0    0 -0.14344280659E+02 -0.18406977552E+02 -0.21728911444E+02  0.31886059694E+02  0.00000000000E+00 0.  1.
         11    1    3    3    0    0 -0.30369627442E+01  0.15894493133E-01  0.10691877405E+02  0.11114838643E+02  0.51100000000E-03 0. -1.
        -11    1    3    3    0    0 -0.34295633102E+01 -0.14807285559E+01 -0.11209522200E+02  0.11815576573E+02  0.51100000000E-03 0.  1.
         12    1    3    3    0    0  0.20810806713E+02  0.19871811615E+02  0.22246556239E+02  0.36371525090E+02  0.00000000000E+00 0. -1.
</event>
<event>
 7    1  0.7313719E-013  0.5930206E+02  0.7816164E-02  0.1266604E+00
        -11   -1    0    0    0    0  0.00000000000E+00  0.00000000000E+00  0.45593999997E+02  0.45594000000E+02  0.51100000000E-03 0. -1.
         11   -1    0    0    0    0 -0.00000000000E+00 -0.00000000000E+00 -0.45593999997E+02  0.45594000000E+02  0.51100000000E-03 0.  1.
    9900012    2    1    2    0    0 -0.13566269254E+02  0.24541130233E+02  0.15179020236E+02  0.59302056547E+02  0.50000205207E+02 0.  0.
        -12    1    1    2    0    0  0.13566269254E+02 -0.24541130233E+02 -0.15179020236E+02  0.31885943453E+02  0.00000000000E+00 0.  1.
         11    1    3    3    0    0 -0.10169232481E+02  0.15304438965E+02  0.25417129305E+02  0.31363507515E+02  0.51100000000E-03 0. -1.
        -11    1    3    3    0    0 -0.13782275157E+02  0.39349523637E+01 -0.54814018654E+01  0.15345381236E+02  0.51100000000E-03 0.  1.
        -12    1    3    3    0    0  0.10385238384E+02  0.53017389039E+01 -0.47567072032E+01  0.12593167795E+02  0.00000000000E+00 0.  1.
</event>
<event>
 7    1  0.7313719E-013  0.5930191E+02  0.7816164E-02  0.1266605E+00
        -11   -1    0    0    0    0  0.00000000000E+00  0.00000000000E+00  0.45593999997E+02  0.45594000000E+02  0.51100000000E-03 0.  1.
         11   -1    0    0    0    0 -0.00000000000E+00 -0.00000000000E+00 -0.45593999997E+02  0.45594000000E+02  0.51100000000E-03 0. -1.
    9900012    2    1    2    0    0 -0.77187557038E+01  0.83880121695E+00 -0.30926368363E+02  0.59301905269E+02  0.49999929313E+02 0.  0.
        -12    1    1    2    0    0  0.77187557038E+01 -0.83880121695E+00  0.30926368363E+02  0.31886094731E+02  0.00000000000E+00 0.  1.
         11    1    3    3    0    0 -0.63132210748E+01 -0.80375881044E+01 -0.45432476119E+01  0.11184841617E+02  0.51100000000E-03 0. -1.
        -11    1    3    3    0    0  0.67811342896E+00 -0.15502015271E+02 -0.76397586493E+01  0.17295612963E+02  0.51100000000E-03 0.  1.
        -12    1    3    3    0    0 -0.20836480580E+01  0.24378404592E+02 -0.18743362102E+02  0.30821450689E+02  0.00000000000E+00 0.  1.
</event>
<event>
 7    1  0.7313719E-013  0.5930198E+02  0.7816164E-02  0.1266605E+00
        -11   -1    0    0    0    0  0.00000000000E+00  0.00000000000E+00  0.45593999997E+02  0.45594000000E+02  0.51100000000E-03 0.  1.
         11   -1    0    0    0    0 -0.00000000000E+00 -0.00000000000E+00 -0.45593999997E+02  0.45594000000E+02  0.51100000000E-03 0. -1.
    9900012    2    1    2    0    0 -0.64840525238E+01  0.85540485192E+01 -0.30025049083E+02  0.59301980248E+02  0.50000066056E+02 0.  0.
        -12    1    1    2    0    0  0.64840525238E+01 -0.85540485192E+01  0.30025049083E+02  0.31886019752E+02  0.00000000000E+00 0.  1.
         11    1    3    3    0    0  0.36822034599E+01 -0.12918681763E-01 -0.77923591664E+01  0.86185643150E+01  0.51100000000E-03 0. -1.
        -11    1    3    3    0    0  0.14410495710E+02  0.42052665696E+01 -0.20840138735E+02  0.25683808835E+02  0.51100000000E-03 0.  1.
        -12    1    3    3    0    0 -0.24576751694E+02  0.43617006314E+01 -0.13925511818E+01  0.24999607097E+02  0.00000000000E+00 0.  1.
</event>
<event>
 7    1  0.7313719E-013  0.5930197E+02  0.7816164E-02  0.1266605E+00
        -11   -1    0    0    0    0  0.00000000000E+00  0.00000000000E+00  0.45593999997E+02  0.45594000000E+02  0.51100000000E-03 0.  1.
         11   -1    0    0    0    0 -0.00000000000E+00 -0.00000000000E+00 -0.45593999997E+02  0.45594000000E+02  0.51100000000E-03 0. -1.
    9900012    2    1    2    0    0  0.18679630312E+02 -0.25813602645E+02 -0.12034648982E+01  0.59301968609E+02  0.50000044831E+02 0.  0.
        -12    1    1    2    0    0 -0.18679630312E+02  0.25813602645E+02  0.12034648982E+01  0.31886031391E+02  0.00000000000E+00 0.  1.
         11    1    3    3    0    0  0.24004618861E+02 -0.12068366651E+02 -0.88555700245E+01  0.28289367632E+02  0.51100000000E-03 0. -1.
        -11    1    3    3    0    0  0.68274823630E+00 -0.20598332063E+02  0.31546517875E+01  0.20849682422E+02  0.51100000000E-03 0.  1.
        -12    1    3    3    0    0 -0.60077367857E+01  0.68530960692E+01  0.44974533389E+01  0.10162918555E+02  0.00000000000E+00 0.  1.
</event>
<event>
 7    1  0.7313719E-013  0.5930198E+02  0.7816164E-02  0.1266605E+00
        -11   -1    0    0    0    0  0.00000000000E+00  0.00000000000E+00  0.45593999997E+02  0.45594000000E+02  0.51100000000E-03 0. -1.
         11   -1    0    0    0    0 -0.00000000000E+00 -0.00000000000E+00 -0.45593999997E+02  0.45594000000E+02  0.51100000000E-03 0.  1.
    9900012    2    1    2    0    0  0.21731411930E+02 -0.12738791203E+02  0.19549614688E+02  0.59301976412E+02  0.50000059061E+02 0.  0.
        -12    1    1    2    0    0 -0.21731411930E+02  0.12738791203E+02 -0.19549614688E+02  0.31886023588E+02  0.00000000000E+00 0.  1.
         11    1    3    3    0    0  0.27549046215E+02 -0.48678965047E+01  0.19054187953E+02  0.33848315210E+02  0.51100000000E-03 0. -1.
        -11    1    3    3    0    0  0.13772652068E+01 -0.10924791255E+02 -0.82242559972E+01  0.13743591611E+02  0.51100000000E-03 0.  1.
         12    1    3    3    0    0 -0.71948994916E+01  0.30538965561E+01  0.87196827319E+01  0.11710069591E+02  0.00000000000E+00 0. -1.
</event>
<event>
 7    1  0.7313719E-013  0.5930196E+02  0.7816164E-02  0.1266605E+00
        -11   -1    0    0    0    0  0.00000000000E+00  0.00000000000E+00  0.45593999997E+02  0.45594000000E+02  0.51100000000E-03 0.  1.
         11   -1    0    0    0    0 -0.00000000000E+00 -0.00000000000E+00 -0.45593999997E+02  0.45594000000E+02  0.51100000000E-03 0. -1.
    9900012    2    1    2    0    0 -0.18972267171E+02  0.25125212741E+02 -0.50494179132E+01  0.59301955119E+02  0.50000020227E+02 0.  0.
        -12    1    1    2    0    0  0.18972267171E+02 -0.25125212741E+02  0.50494179132E+01  0.31886044881E+02  0.00000000000E+00 0.  1.
         11    1    3    3    0    0 -0.17016149212E+02  0.13818118617E+02  0.51371367066E+01  0.22513993646E+02  0.51100000000E-03 0. -1.
        -11    1    3    3    0    0 -0.99844488564E+01  0.13451233641E+02 -0.18552511050E+02  0.24996411182E+02  0.51100000000E-03 0.  1.
         12    1    3    3    0    0  0.80283308969E+01 -0.21441395169E+01  0.83659564306E+01  0.11791550291E+02  0.00000000000E+00 0. -1.
</event>
<event>
 7    1  0.7313719E-013  0.5930194E+02  0.7816164E-02  0.1266605E+00
        -11   -1    0    0    0    0  0.00000000000E+00  0.00000000000E+00  0.45593999997E+02  0.45594000000E+02  0.51100000000E-03 0.  1.
         11   -1    0    0    0    0 -0.00000000000E+00 -0.00000000000E+00 -0.45593999997E+02  0.45594000000E+02  0.51100000000E-03 0. -1.
    9900012    2    1    2    0    0 -0.17032592920E+02 -0.18379346294E+02 -0.19718293097E+02  0.59301942319E+02  0.49999996884E+02 0.  0.
        -12    1    1    2    0    0  0.17032592920E+02  0.18379346294E+02  0.19718293097E+02  0.31886057681E+02  0.00000000000E+00 0.  1.
         11    1    3    3    0    0 -0.12936016883E+02  0.23361552964E+01 -0.59992613244E+01  0.14449542936E+02  0.51100000000E-03 0. -1.
        -11    1    3    3    0    0 -0.80035281698E+01  0.86485510962E+01 -0.90632176143E+01  0.14865927923E+02  0.51100000000E-03 0.  1.
        -12    1    3    3    0    0  0.39069521333E+01 -0.29364052686E+02 -0.46558141583E+01  0.29986471460E+02  0.00000000000E+00 0.  1.
</event>
<event>
 7    1  0.7400320E-013  0.5930187E+02  0.7816164E-02  0.1266605E+00
        -11   -1    0    0    0    0  0.00000000000E+00  0.00000000000E+00  0.45593999997E+02  0.45594000000E+02  0.51100000000E-03 0. -1.
         11   -1    0    0    0    0 -0.00000000000E+00 -0.00000000000E+00 -0.45593999997E+02  0.45594000000E+02  0.51100000000E-03 0.  1.
    9900012    2    1    2    0    0 -0.25755721224E+02  0.10036856992E+02  0.15894322180E+02  0.59301872113E+02  0.49999868845E+02 0.  0.
        -12    1    1    2    0    0  0.25755721224E+02 -0.10036856992E+02 -0.15894322180E+02  0.31886127887E+02  0.00000000000E+00 0.  1.
         11    1    3    3    0    0  0.83244335902E+01 -0.74939014591E+00  0.26461068154E+01  0.87669642254E+01  0.51100000000E-03 0. -1.
        -11    1    3    3    0    0 -0.94972376988E+01  0.23741258194E+01 -0.11188400245E+02  0.14866549621E+02  0.51100000000E-03 0.  1.
         12    1    3    3    0    0 -0.24582917116E+02  0.84121213185E+01  0.24436615610E+02  0.35668358267E+02  0.00000000000E+00 0. -1.
</event>
<event>
 7    1  0.7313719E-013  0.5930192E+02  0.7816164E-02  0.1266605E+00
        -11   -1    0    0    0    0  0.00000000000E+00  0.00000000000E+00  0.45593999997E+02  0.45594000000E+02  0.51100000000E-03 0.  1.
         11   -1    0    0    0    0 -0.00000000000E+00 -0.00000000000E+00 -0.45593999997E+02  0.45594000000E+02  0.51100000000E-03 0. -1.
    9900012    2    1    2    0    0 -0.15047376571E+02  0.55937735947E+01 -0.27550103098E+02  0.59301921135E+02  0.49999958249E+02 0.  0.
        -12    1    1    2    0    0  0.15047376571E+02 -0.55937735947E+01  0.27550103098E+02  0.31886078865E+02  0.00000000000E+00 0.  1.
         11    1    3    3    0    0 -0.44688696565E+01  0.66825204203E+01 -0.19011675177E+02  0.20641479319E+02  0.51100000000E-03 0. -1.
        -11    1    3    3    0    0  0.79679808854E+01  0.64510914006E+01 -0.14511724071E+02  0.17767820221E+02  0.51100000000E-03 0.  1.
        -12    1    3    3    0    0 -0.18546487800E+02 -0.75398382261E+01  0.59732961508E+01  0.20892621594E+02  0.00000000000E+00 0.  1.
</event>
<event>
 7    1  0.7313719E-013  0.5930206E+02  0.7816164E-02  0.1266604E+00
        -11   -1    0    0    0    0  0.00000000000E+00  0.00000000000E+00  0.45593999997E+02  0.45594000000E+02  0.51100000000E-03 0. -1.
         11   -1    0    0    0    0 -0.00000000000E+00 -0.00000000000E+00 -0.45593999997E+02  0.45594000000E+02  0.51100000000E-03 0.  1.
    9900012    2    1    2    0    0 -0.26726453437E+02  0.52564436768E+01  0.16576480050E+02  0.59302059457E+02  0.50000210516E+02 0.  0.
        -12    1    1    2    0    0  0.26726453437E+02 -0.52564436768E+01 -0.16576480050E+02  0.31885940543E+02  0.00000000000E+00 0.  1.
         11    1    3    3    0    0 -0.23790115114E+01  0.91711975255E+01  0.18245140885E+02  0.20558592510E+02  0.51100000000E-03 0. -1.
        -11    1    3    3    0    0 -0.14994061232E-01 -0.12767326884E+02  0.34984776296E+00  0.12772128025E+02  0.51100000000E-03 0.  1.
         12    1    3    3    0    0 -0.24332447864E+02  0.88525730351E+01 -0.20185085986E+01  0.25971338922E+02  0.00000000000E+00 0. -1.
</event>
<event>
 7    1  0.7313719E-013  0.5930195E+02  0.7816164E-02  0.1266605E+00
        -11   -1    0    0    0    0  0.00000000000E+00  0.00000000000E+00  0.45593999997E+02  0.45594000000E+02  0.51100000000E-03 0. -1.
         11   -1    0    0    0    0 -0.00000000000E+00 -0.00000000000E+00 -0.45593999997E+02  0.45594000000E+02  0.51100000000E-03 0.  1.
    9900012    2    1    2    0    0 -0.28244165728E+01  0.91698721239E+01  0.30408163233E+02  0.59301948583E+02  0.50000008308E+02 0.  0.
        -12    1    1    2    0    0  0.28244165728E+01 -0.91698721239E+01 -0.30408163233E+02  0.31886051417E+02  0.00000000000E+00 0.  1.
         11    1    3    3    0    0 -0.10937334822E+02  0.23561205155E+00  0.44748717845E+01  0.11819698973E+02  0.51100000000E-03 0.  1.
        -11    1    3    3    0    0  0.11318053318E+02 -0.12434843780E+02  0.53639832342E+01  0.17649248912E+02  0.51100000000E-03 0. -1.
         12    1    3    3    0    0 -0.32051350683E+01  0.21369103852E+02  0.20569308215E+02  0.29833000699E+02  0.00000000000E+00 0. -1.
</event>
<event>
 7    1  0.7313719E-013  0.5930195E+02  0.7816164E-02  0.1266605E+00
        -11   -1    0    0    0    0  0.00000000000E+00  0.00000000000E+00  0.45593999997E+02  0.45594000000E+02  0.51100000000E-03 0. -1.
         11   -1    0    0    0    0 -0.00000000000E+00 -0.00000000000E+00 -0.45593999997E+02  0.45594000000E+02  0.51100000000E-03 0.  1.
    9900012    2    1    2    0    0  0.23378601473E+02 -0.59044108377E+00  0.21675165030E+02  0.59301946519E+02  0.50000004544E+02 0.  0.
        -12    1    1    2    0    0 -0.23378601473E+02  0.59044108377E+00 -0.21675165030E+02  0.31886053481E+02  0.00000000000E+00 0.  1.
         11    1    3    3    0    0  0.25124409778E+02 -0.12895445539E+01  0.23625091655E+02  0.34511503123E+02  0.51100000000E-03 0. -1.
        -11    1    3    3    0    0  0.32218705048E+01 -0.11287165334E+02 -0.83139327771E+00  0.11767402681E+02  0.51100000000E-03 0.  1.
         12    1    3    3    0    0 -0.49676788098E+01  0.11986268804E+02 -0.11185333474E+01  0.13023040714E+02  0.00000000000E+00 0. -1.
</event>
<event>
 7    1  0.7313719E-013  0.5930184E+02  0.7816164E-02  0.1266605E+00
        -11   -1    0    0    0    0  0.00000000000E+00  0.00000000000E+00  0.45593999997E+02  0.45594000000E+02  0.51100000000E-03 0.  1.
         11   -1    0    0    0    0 -0.00000000000E+00 -0.00000000000E+00 -0.45593999997E+02  0.45594000000E+02  0.51100000000E-03 0. -1.
    9900012    2    1    2    0    0 -0.15034540307E+02 -0.75400544918E+01 -0.27089433173E+02  0.59301839780E+02  0.49999809876E+02 0.  0.
        -12    1    1    2    0    0  0.15034540307E+02  0.75400544918E+01  0.27089433173E+02  0.31886160220E+02  0.00000000000E+00 0.  1.
         11    1    3    3    0    0 -0.18647003929E+02  0.67481978390E+01  0.10088614580E+01  0.19856150969E+02  0.51100000000E-03 0. -1.
        -11    1    3    3    0    0 -0.31326236539E+01 -0.58062289314E+01  0.24457383542E+01  0.70361396887E+01  0.51100000000E-03 0.  1.
         12    1    3    3    0    0  0.67450872755E+01 -0.84820233994E+01 -0.30544032985E+02  0.32409549122E+02  0.00000000000E+00 0. -1.
</event>
<event>
 7    1  0.7313719E-013  0.5930195E+02  0.7816164E-02  0.1266605E+00
        -11   -1    0    0    0    0  0.00000000000E+00  0.00000000000E+00  0.45593999997E+02  0.45594000000E+02  0.51100000000E-03 0.  1.
         11   -1    0    0    0    0 -0.00000000000E+00 -0.00000000000E+00 -0.45593999997E+02  0.45594000000E+02  0.51100000000E-03 0. -1.
    9900012    2    1    2    0    0 -0.33604923915E+01 -0.27013741830E+02 -0.16603767428E+02  0.59301948981E+02  0.50000009034E+02 0.  0.
        -12    1    1    2    0    0  0.33604923915E+01  0.27013741830E+02  0.16603767428E+02  0.31886051019E+02  0.00000000000E+00 0.  1.
         11    1    3    3    0    0 -0.14617415825E+02 -0.12396132048E+02 -0.88413479725E+01  0.21106927047E+02  0.51100000000E-03 0. -1.
        -11    1    3    3    0    0 -0.19237363587E+01  0.73933988553E+01  0.54043845375E+01  0.93579100606E+01  0.51100000000E-03 0.  1.
         12    1    3    3    0    0  0.13180659792E+02 -0.22011008637E+02 -0.13166803993E+02  0.28837111873E+02  0.00000000000E+00 0. -1.
</event>
<event>
 7    1  0.7313719E-013  0.5930194E+02  0.7816164E-02  0.1266605E+00
        -11   -1    0    0    0    0  0.00000000000E+00  0.00000000000E+00  0.45593999997E+02  0.45594000000E+02  0.51100000000E-03 0. -1.
         11   -1    0    0    0    0 -0.00000000000E+00 -0.00000000000E+00 -0.45593999997E+02  0.45594000000E+02  0.51100000000E-03 0.  1.
    9900012    2    1    2    0    0 -0.99718942367E+01 -0.30176061734E+02  0.25860144223E+01  0.59301939613E+02  0.49999991948E+02 0.  0.
        -12    1    1    2    0    0  0.99718942367E+01  0.30176061734E+02 -0.25860144223E+01  0.31886060387E+02  0.00000000000E+00 0.  1.
         11    1    3    3    0    0  0.66307774517E+01  0.52606066866E+01  0.35191459987E+01  0.91665468496E+01  0.51100000000E-03 0. -1.
        -11    1    3    3    0    0 -0.37621952171E+01  0.46034570288E+01 -0.51634691926E+01  0.78744741940E+01  0.51100000000E-03 0.  1.
         12    1    3    3    0    0 -0.12840476471E+02 -0.40040125449E+02  0.42303376162E+01  0.42260918569E+02  0.00000000000E+00 0. -1.
</event>
<event>
 7    1  0.8773939E-013  0.5930195E+02  0.7816164E-02  0.1266605E+00
        -11   -1    0    0    0    0  0.00000000000E+00  0.00000000000E+00  0.45593999997E+02  0.45594000000E+02  0.51100000000E-03 0. -1.
         11   -1    0    0    0    0 -0.00000000000E+00 -0.00000000000E+00 -0.45593999997E+02  0.45594000000E+02  0.51100000000E-03 0.  1.
    9900012    2    1    2    0    0 -0.27698737557E+02 -0.56554878997E+00  0.15785435520E+02  0.59301954742E+02  0.50000019540E+02 0.  0.
        -12    1    1    2    0    0  0.27698737557E+02  0.56554878997E+00 -0.15785435520E+02  0.31886045258E+02  0.00000000000E+00 0.  1.
         11    1    3    3    0    0 -0.85435311986E+01  0.78639406526E+01  0.13841832142E+02  0.18067368520E+02  0.51100000000E-03 0. -1.
        -11    1    3    3    0    0 -0.33869632481E+01 -0.27187053394E+00 -0.15784065696E+02  0.16145654641E+02  0.51100000000E-03 0.  1.
         12    1    3    3    0    0 -0.15768243110E+02 -0.81576189086E+01  0.17727669074E+02  0.25088931580E+02  0.00000000000E+00 0. -1.
</event>
<event>
 7    1  0.7313719E-013  0.5930194E+02  0.7816164E-02  0.1266605E+00
        -11   -1    0    0    0    0  0.00000000000E+00  0.00000000000E+00  0.45593999997E+02  0.45594000000E+02  0.51100000000E-03 0.  1.
         11   -1    0    0    0    0 -0.00000000000E+00 -0.00000000000E+00 -0.45593999997E+02  0.45594000000E+02  0.51100000000E-03 0. -1.
    9900012    2    1    2    0    0 -0.21014325264E+02  0.45325966072E+01  0.23549407366E+02  0.59301939008E+02  0.49999990845E+02 0.  0.
        -12    1    1    2    0    0  0.21014325264E+02 -0.45325966072E+01 -0.23549407366E+02  0.31886060992E+02  0.00000000000E+00 0.  1.
         11    1    3    3    0    0 -0.27716690900E+01  0.18672882479E+00  0.20912561384E+02  0.21096261306E+02  0.51100000000E-03 0. -1.
        -11    1    3    3    0    0 -0.12465454901E+02  0.11596053612E+00  0.17629103502E+02  0.21591347881E+02  0.51100000000E-03 0.  1.
         12    1    3    3    0    0 -0.57772012725E+01  0.42299072463E+01 -0.14992257520E+02  0.16614329821E+02  0.00000000000E+00 0. -1.
</event>
<event>
 7    1  0.7313719E-013  0.5930192E+02  0.7816164E-02  0.1266605E+00
        -11   -1    0    0    0    0  0.00000000000E+00  0.00000000000E+00  0.45593999997E+02  0.45594000000E+02  0.51100000000E-03 0.  1.
         11   -1    0    0    0    0 -0.00000000000E+00 -0.00000000000E+00 -0.45593999997E+02  0.45594000000E+02  0.51100000000E-03 0. -1.
    9900012    2    1    2    0    0  0.57986368937E+01 -0.20472966039E+01 -0.31287484512E+02  0.59301916824E+02  0.49999950388E+02 0.  0.
        -12    1    1    2    0    0 -0.57986368937E+01  0.20472966039E+01  0.31287484512E+02  0.31886083176E+02  0.00000000000E+00 0.  1.
         11    1    3    3    0    0 -0.53703818288E+01 -0.47515934655E+00 -0.55091254490E+01  0.77082579657E+01  0.51100000000E-03 0. -1.
        -11    1    3    3    0    0 -0.13821521315E+02 -0.38355127276E+01  0.16270274809E+01  0.14435817540E+02  0.51100000000E-03 0.  1.
         12    1    3    3    0    0  0.24990540038E+02  0.22633754702E+01 -0.27405386544E+02  0.37157841319E+02  0.00000000000E+00 0. -1.
</event>
<event>
 7    1  0.7313719E-013  0.5930196E+02  0.7816164E-02  0.1266605E+00
        -11   -1    0    0    0    0  0.00000000000E+00  0.00000000000E+00  0.45593999997E+02  0.45594000000E+02  0.51100000000E-03 0.  1.
         11   -1    0    0    0    0 -0.00000000000E+00 -0.00000000000E+00 -0.45593999997E+02  0.45594000000E+02  0.51100000000E-03 0. -1.
    9900012    2    1    2    0    0  0.11826784407E+02  0.11403786080E+02 -0.27327651220E+02  0.59301957794E+02  0.50000025107E+02 0.  0.
        -12    1    1    2    0    0 -0.11826784407E+02 -0.11403786080E+02  0.27327651220E+02  0.31886042206E+02  0.00000000000E+00 0.  1.
         11    1    3    3    0    0  0.88382385634E+01  0.37253543377E+01 -0.71588766877E+01  0.11968385085E+02  0.51100000000E-03 0. -1.
        -11    1    3    3    0    0  0.58253268983E+01  0.16908232922E+02 -0.29115993806E+02  0.34169633735E+02  0.51100000000E-03 0.  1.
        -12    1    3    3    0    0 -0.28367810543E+01 -0.92298011803E+01  0.89472192740E+01  0.13163938974E+02  0.00000000000E+00 0.  1.
</event>
<event>
 7    1  0.7313719E-013  0.5930196E+02  0.7816164E-02  0.1266605E+00
        -11   -1    0    0    0    0  0.00000000000E+00  0.00000000000E+00  0.45593999997E+02  0.45594000000E+02  0.51100000000E-03 0.  1.
         11   -1    0    0    0    0 -0.00000000000E+00 -0.00000000000E+00 -0.45593999997E+02  0.45594000000E+02  0.51100000000E-03 0. -1.
    9900012    2    1    2    0    0  0.10813377633E+02 -0.18384849867E+02 -0.23702063674E+02  0.59301958181E+02  0.50000025811E+02 0.  0.
        -12    1    1    2    0    0 -0.10813377633E+02  0.18384849867E+02  0.23702063674E+02  0.31886041819E+02  0.00000000000E+00 0.  1.
         11    1    3    3    0    0 -0.48693958527E+01  0.11791739844E+01 -0.16655868340E+02  0.17393085341E+02  0.51100000000E-03 0. -1.
        -11    1    3    3    0    0 -0.56663931071E+01  0.94824213976E+00 -0.10633122778E+02  0.12085961868E+02  0.51100000000E-03 0.  1.
        -12    1    3    3    0    0  0.21349166593E+02 -0.20512265991E+02  0.35869274439E+01  0.29822910972E+02  0.00000000000E+00 0.  1.
</event>
<event>
 7    1  0.7313719E-013  0.5930192E+02  0.7816164E-02  0.1266605E+00
        -11   -1    0    0    0    0  0.00000000000E+00  0.00000000000E+00  0.45593999997E+02  0.45594000000E+02  0.51100000000E-03 0.  1.
         11   -1    0    0    0    0 -0.00000000000E+00 -0.00000000000E+00 -0.45593999997E+02  0.45594000000E+02  0.51100000000E-03 0. -1.
    9900012    2    1    2    0    0 -0.63864831889E+00  0.25359603195E+02  0.19318505581E+02  0.59301921474E+02  0.49999958867E+02 0.  0.
        -12    1    1    2    0    0  0.63864831889E+00 -0.25359603195E+02 -0.19318505581E+02  0.31886078526E+02  0.00000000000E+00 0.  1.
         11    1    3    3    0    0  0.14973385307E+02  0.57891850552E+01  0.25435919643E+00  0.16055579405E+02  0.51100000000E-03 0. -1.
        -11    1    3    3    0    0 -0.52263406683E+01 -0.60270139953E+01 -0.23251164850E+01  0.83093743092E+01  0.51100000000E-03 0.  1.
         12    1    3    3    0    0 -0.10385692958E+02  0.25597432135E+02  0.21389262870E+02  0.34936967760E+02  0.00000000000E+00 0. -1.
</event>
<event>
 7    1  0.7313719E-013  0.5930193E+02  0.7816164E-02  0.1266605E+00
        -11   -1    0    0    0    0  0.00000000000E+00  0.00000000000E+00  0.45593999997E+02  0.45594000000E+02  0.51100000000E-03 0. -1.
         11   -1    0    0    0    0 -0.00000000000E+00 -0.00000000000E+00 -0.45593999997E+02  0.45594000000E+02  0.51100000000E-03 0.  1.
    9900012    2    1    2    0    0  0.20520957028E+02 -0.12048246372E+02  0.21223845205E+02  0.59301929009E+02  0.49999972609E+02 0.  0.
        -12    1    1    2    0    0 -0.20520957028E+02  0.12048246372E+02 -0.21223845205E+02  0.31886070991E+02  0.00000000000E+00 0.  1.
         11    1    3    3    0    0  0.27315688681E+01  0.62083079349E+00  0.97235997473E+01  0.10119055868E+02  0.51100000000E-03 0. -1.
        -11    1    3    3    0    0  0.65900517462E+01 -0.27576820939E+02  0.11338427990E+02  0.30536368229E+02  0.51100000000E-03 0.  1.
         12    1    3    3    0    0  0.11199336413E+02  0.14907743773E+02  0.16181746831E+00  0.18646504911E+02  0.00000000000E+00 0. -1.
</event>
<event>
 7    1  0.7313719E-013  0.5930193E+02  0.7816164E-02  0.1266605E+00
        -11   -1    0    0    0    0  0.00000000000E+00  0.00000000000E+00  0.45593999997E+02  0.45594000000E+02  0.51100000000E-03 0.  1.
         11   -1    0    0    0    0 -0.00000000000E+00 -0.00000000000E+00 -0.45593999997E+02  0.45594000000E+02  0.51100000000E-03 0. -1.
    9900012    2    1    2    0    0 -0.79768898197E+01 -0.26813882870E+02 -0.15300534796E+02  0.59301930145E+02  0.49999974681E+02 0.  0.
        -12    1    1    2    0    0  0.79768898197E+01  0.26813882870E+02  0.15300534796E+02  0.31886069855E+02  0.00000000000E+00 0.  1.
         11    1    3    3    0    0  0.41174459705E+00  0.67880899232E+01 -0.62893481682E+01  0.92630232138E+01  0.51100000000E-03 0. -1.
        -11    1    3    3    0    0  0.97927498001E+00  0.64150510388E+01 -0.59863670521E+01  0.88288419434E+01  0.51100000000E-03 0.  1.
        -12    1    3    3    0    0 -0.93679093968E+01 -0.40017023832E+02 -0.30248195759E+01  0.41210064988E+02  0.00000000000E+00 0.  1.
</event>
<event>
 7    1  0.7313719E-013  0.5930194E+02  0.7816164E-02  0.1266605E+00
        -11   -1    0    0    0    0  0.00000000000E+00  0.00000000000E+00  0.45593999997E+02  0.45594000000E+02  0.51100000000E-03 0. -1.
         11   -1    0    0    0    0 -0.00000000000E+00 -0.00000000000E+00 -0.45593999997E+02  0.45594000000E+02  0.51100000000E-03 0.  1.
    9900012    2    1    2    0    0 -0.13160529775E+02  0.57256479260E+01  0.28473466198E+02  0.59301939324E+02  0.49999991422E+02 0.  0.
        -12    1    1    2    0    0  0.13160529775E+02 -0.57256479260E+01 -0.28473466198E+02  0.31886060676E+02  0.00000000000E+00 0.  1.
         11    1    3    3    0    0 -0.36298193670E+01  0.35780026163E+01 -0.64465078101E+01  0.82179775228E+01  0.51100000000E-03 0. -1.
        -11    1    3    3    0    0 -0.12010286903E+02  0.12171400232E+01 -0.35030299109E+01  0.12569790775E+02  0.51100000000E-03 0.  1.
         12    1    3    3    0    0  0.24795764950E+01  0.93050528650E+00  0.38423003919E+02  0.38514171026E+02  0.00000000000E+00 0. -1.
</event>
<event>
 7    1  0.7313719E-013  0.5930194E+02  0.7816164E-02  0.1266605E+00
        -11   -1    0    0    0    0  0.00000000000E+00  0.00000000000E+00  0.45593999997E+02  0.45594000000E+02  0.51100000000E-03 0. -1.
         11   -1    0    0    0    0 -0.00000000000E+00 -0.00000000000E+00 -0.45593999997E+02  0.45594000000E+02  0.51100000000E-03 0.  1.
    9900012    2    1    2    0    0 -0.90098765256E+01  0.24902082742E+02  0.17760334099E+02  0.59301936160E+02  0.49999985651E+02 0.  0.
        -12    1    1    2    0    0  0.90098765256E+01 -0.24902082742E+02 -0.17760334099E+02  0.31886063840E+02  0.00000000000E+00 0.  1.
         11    1    3    3    0    0  0.12640978168E+02 -0.55521481965E+01  0.57051349808E+01  0.14938850158E+02  0.51100000000E-03 0. -1.
        -11    1    3    3    0    0  0.19549200643E+01  0.18295185667E+01  0.62626368896E+01  0.68109816998E+01  0.51100000000E-03 0.  1.
         12    1    3    3    0    0 -0.23605774758E+02  0.28624712372E+02  0.57925622290E+01  0.37552104302E+02  0.00000000000E+00 0. -1.
</event>
<event>
 7    1  0.7313719E-013  0.5930190E+02  0.7816164E-02  0.1266605E+00
        -11   -1    0    0    0    0  0.00000000000E+00  0.00000000000E+00  0.45593999997E+02  0.45594000000E+02  0.51100000000E-03 0.  1.
         11   -1    0    0    0    0 -0.00000000000E+00 -0.00000000000E+00 -0.45593999997E+02  0.45594000000E+02  0.51100000000E-03 0. -1.
    9900012    2    1    2    0    0 -0.24516664696E+01 -0.27468161350E+02 -0.16006648364E+02  0.59301900391E+02  0.49999920418E+02 0.  0.
        -12    1    1    2    0    0  0.24516664696E+01  0.27468161350E+02  0.16006648364E+02  0.31886099609E+02  0.00000000000E+00 0.  1.
         11    1    3    3    0    0  0.88970850745E+01 -0.34621691110E+01  0.11391929006E+02  0.14863404204E+02  0.51100000000E-03 0.  1.
        -11    1    3    3    0    0  0.81923894455E+00 -0.22636263690E+02 -0.16232678652E+02  0.27867031466E+02  0.51100000000E-03 0. -1.
        -12    1    3    3    0    0 -0.12167990489E+02 -0.13697285491E+01 -0.11165898718E+02  0.16571464721E+02  0.00000000000E+00 0.  1.
</event>
<event>
 7    1  0.7313719E-013  0.5930203E+02  0.7816164E-02  0.1266604E+00
        -11   -1    0    0    0    0  0.00000000000E+00  0.00000000000E+00  0.45593999997E+02  0.45594000000E+02  0.51100000000E-03 0.  1.
         11   -1    0    0    0    0 -0.00000000000E+00 -0.00000000000E+00 -0.45593999997E+02  0.45594000000E+02  0.51100000000E-03 0. -1.
    9900012    2    1    2    0    0  0.19226481549E+02  0.25413010407E+02 -0.11119303401E+01  0.59302030048E+02  0.50000156880E+02 0.  0.
        -12    1    1    2    0    0 -0.19226481549E+02 -0.25413010407E+02  0.11119303401E+01  0.31885969952E+02  0.00000000000E+00 0.  1.
         11    1    3    3    0    0  0.14416380778E+02  0.18467679949E+02  0.90512415593E+01  0.25115975224E+02  0.51100000000E-03 0. -1.
        -11    1    3    3    0    0 -0.63272405375E+01  0.14292539878E+02  0.24548725252E+01  0.15822043748E+02  0.51100000000E-03 0.  1.
        -12    1    3    3    0    0  0.11137341309E+02 -0.73472094199E+01 -0.12618044425E+02  0.18364011076E+02  0.00000000000E+00 0.  1.
</event>
<event>
 7    1  0.7313719E-013  0.5930199E+02  0.7816164E-02  0.1266605E+00
        -11   -1    0    0    0    0  0.00000000000E+00  0.00000000000E+00  0.45593999997E+02  0.45594000000E+02  0.51100000000E-03 0.  1.
         11   -1    0    0    0    0 -0.00000000000E+00 -0.00000000000E+00 -0.45593999997E+02  0.45594000000E+02  0.51100000000E-03 0. -1.
    9900012    2    1    2    0    0  0.14095814690E+02  0.23870574330E+02 -0.15755042741E+02  0.59301989237E+02  0.50000082452E+02 0.  0.
        -12    1    1    2    0    0 -0.14095814690E+02 -0.23870574330E+02  0.15755042741E+02  0.31886010763E+02  0.00000000000E+00 0.  1.
         11    1    3    3    0    0  0.27657063730E+01 -0.62668917303E+01 -0.15885716835E+01  0.70318293463E+01  0.51100000000E-03 0.  1.
        -11    1    3    3    0    0  0.16644705500E+02  0.51203624797E+01 -0.19500477259E+02  0.26144463022E+02  0.51100000000E-03 0. -1.
         12    1    3    3    0    0 -0.53145971832E+01  0.25017103580E+02  0.53340062015E+01  0.26125696870E+02  0.00000000000E+00 0. -1.
</event>
<event>
 7    1  0.7313719E-013  0.5930194E+02  0.7816164E-02  0.1266605E+00
        -11   -1    0    0    0    0  0.00000000000E+00  0.00000000000E+00  0.45593999997E+02  0.45594000000E+02  0.51100000000E-03 0.  1.
         11   -1    0    0    0    0 -0.00000000000E+00 -0.00000000000E+00 -0.45593999997E+02  0.45594000000E+02  0.51100000000E-03 0. -1.
    9900012    2    1    2    0    0 -0.62805825840E+01  0.28927890778E+01 -0.31127265743E+02  0.59301943190E+02  0.49999998472E+02 0.  0.
        -12    1    1    2    0    0  0.62805825840E+01 -0.28927890778E+01  0.31127265743E+02  0.31886056810E+02  0.00000000000E+00 0.  1.
         11    1    3    3    0    0  0.31164118213E+01 -0.73171805416E+01  0.51291500905E+01  0.94636850450E+01  0.51100000000E-03 0. -1.
        -11    1    3    3    0    0  0.92939926027E+01 -0.26628534029E+00 -0.22578506079E+02  0.24417988111E+02  0.51100000000E-03 0.  1.
         12    1    3    3    0    0 -0.18690987008E+02  0.10476254960E+02 -0.13677909755E+02  0.25420270034E+02  0.00000000000E+00 0. -1.
</event>
<event>
 7    1  0.7313719E-013  0.5930192E+02  0.7816164E-02  0.1266605E+00
        -11   -1    0    0    0    0  0.00000000000E+00  0.00000000000E+00  0.45593999997E+02  0.45594000000E+02  0.51100000000E-03 0. -1.
         11   -1    0    0    0    0 -0.00000000000E+00 -0.00000000000E+00 -0.45593999997E+02  0.45594000000E+02  0.51100000000E-03 0.  1.
    9900012    2    1    2    0    0  0.72859093720E+01 -0.27210728055E+02  0.14940350372E+02  0.59301917363E+02  0.49999951371E+02 0.  0.
        -12    1    1    2    0    0 -0.72859093720E+01  0.27210728055E+02 -0.14940350372E+02  0.31886082637E+02  0.00000000000E+00 0.  1.
         11    1    3    3    0    0 -0.12819388758E+01 -0.90117007346E+01  0.18068398813E+02  0.20231686863E+02  0.51100000000E-03 0. -1.
        -11    1    3    3    0    0  0.14549511781E+02 -0.17617093215E+02 -0.13893404207E+02  0.26740922705E+02  0.51100000000E-03 0.  1.
         12    1    3    3    0    0 -0.59816635332E+01 -0.58193410543E+00  0.10765355766E+02  0.12329307795E+02  0.00000000000E+00 0. -1.
</event>
<event>
 7    1  0.7313719E-013  0.5930194E+02  0.7816164E-02  0.1266605E+00
        -11   -1    0    0    0    0  0.00000000000E+00  0.00000000000E+00  0.45593999997E+02  0.45594000000E+02  0.51100000000E-03 0.  1.
         11   -1    0    0    0    0 -0.00000000000E+00 -0.00000000000E+00 -0.45593999997E+02  0.45594000000E+02  0.51100000000E-03 0. -1.
    9900012    2    1    2    0    0 -0.17258558493E+01  0.58165451715E+01 -0.31303514711E+02  0.59301940202E+02  0.49999993023E+02 0.  0.
        -12    1    1    2    0    0  0.17258558493E+01 -0.58165451715E+01  0.31303514711E+02  0.31886059798E+02  0.00000000000E+00 0.  1.
         11    1    3    3    0    0  0.31129917108E+01 -0.33010771466E+01 -0.30407179018E+02  0.30743850829E+02  0.51100000000E-03 0. -1.
        -11    1    3    3    0    0 -0.51536884783E+01  0.13826408133E+02 -0.10328391413E+02  0.18011266925E+02  0.51100000000E-03 0.  1.
        -12    1    3    3    0    0  0.31484091814E+00 -0.47087858153E+01  0.94320557193E+01  0.10546822448E+02  0.00000000000E+00 0.  1.
</event>
<event>
 7    1  0.7313719E-013  0.5930191E+02  0.7816164E-02  0.1266605E+00
        -11   -1    0    0    0    0  0.00000000000E+00  0.00000000000E+00  0.45593999997E+02  0.45594000000E+02  0.51100000000E-03 0. -1.
         11   -1    0    0    0    0 -0.00000000000E+00 -0.00000000000E+00 -0.45593999997E+02  0.45594000000E+02  0.51100000000E-03 0.  1.
    9900012    2    1    2    0    0  0.16504427502E+01  0.38354226741E+01  0.31611520499E+02  0.59301911237E+02  0.49999940197E+02 0.  0.
        -12    1    1    2    0    0 -0.16504427502E+01 -0.38354226741E+01 -0.31611520499E+02  0.31886088763E+02  0.00000000000E+00 0.  1.
         11    1    3    3    0    0  0.28809253191E+00  0.93397100558E+01  0.22914106373E+01  0.96210053634E+01  0.51100000000E-03 0. -1.
        -11    1    3    3    0    0 -0.17034289285E+02 -0.37769141607E+01  0.32838474547E+01  0.17754316275E+02  0.51100000000E-03 0.  1.
         12    1    3    3    0    0  0.18396639503E+02 -0.17273732210E+01  0.26036262407E+02  0.31926589598E+02  0.00000000000E+00 0. -1.
</event>
<event>
 7    1  0.7313719E-013  0.5930194E+02  0.7816164E-02  0.1266605E+00
        -11   -1    0    0    0    0  0.00000000000E+00  0.00000000000E+00  0.45593999997E+02  0.45594000000E+02  0.51100000000E-03 0. -1.
         11   -1    0    0    0    0 -0.00000000000E+00 -0.00000000000E+00 -0.45593999997E+02  0.45594000000E+02  0.51100000000E-03 0.  1.
    9900012    2    1    2    0    0  0.14787367007E+02  0.27662460184E+02 -0.57308890231E+01  0.59301936972E+02  0.49999987132E+02 0.  0.
        -12    1    1    2    0    0 -0.14787367007E+02 -0.27662460184E+02  0.57308890231E+01  0.31886063028E+02  0.00000000000E+00 0.  1.
         11    1    3    3    0    0 -0.56672199406E+00  0.22897275089E+02  0.13162632620E+02  0.26417064146E+02  0.51100000000E-03 0. -1.
        -11    1    3    3    0    0  0.15751662390E+02 -0.37997769942E+01 -0.57530987709E+01  0.17194514212E+02  0.51100000000E-03 0.  1.
        -12    1    3    3    0    0 -0.39757338931E+00  0.85649620892E+01 -0.13140422872E+02  0.15690358615E+02  0.00000000000E+00 0.  1.
</event>
<event>
 7    1  0.7313719E-013  0.5930197E+02  0.7816164E-02  0.1266605E+00
        -11   -1    0    0    0    0  0.00000000000E+00  0.00000000000E+00  0.45593999997E+02  0.45594000000E+02  0.51100000000E-03 0.  1.
         11   -1    0    0    0    0 -0.00000000000E+00 -0.00000000000E+00 -0.45593999997E+02  0.45594000000E+02  0.51100000000E-03 0. -1.
    9900012    2    1    2    0    0  0.20321075453E+02 -0.18084886805E+02 -0.16634585606E+02  0.59301973647E+02  0.50000054018E+02 0.  0.
        -12    1    1    2    0    0 -0.20321075453E+02  0.18084886805E+02  0.16634585606E+02  0.31886026353E+02  0.00000000000E+00 0.  1.
         11    1    3    3    0    0 -0.30988076332E+01  0.48602512834E+01 -0.59063546504E+01  0.82528587049E+01  0.51100000000E-03 0. -1.
        -11    1    3    3    0    0  0.13523280027E+02  0.59320969277E+01  0.63454074584E+01  0.16072743161E+02  0.51100000000E-03 0.  1.
         12    1    3    3    0    0  0.98966030592E+01 -0.28877235016E+02 -0.17073638414E+02  0.34976371781E+02  0.00000000000E+00 0. -1.
</event>
<event>
 7    1  0.7313719E-013  0.5930193E+02  0.7816164E-02  0.1266605E+00
        -11   -1    0    0    0    0  0.00000000000E+00  0.00000000000E+00  0.45593999997E+02  0.45594000000E+02  0.51100000000E-03 0.  1.
         11   -1    0    0    0    0 -0.00000000000E+00 -0.00000000000E+00 -0.45593999997E+02  0.45594000000E+02  0.51100000000E-03 0. -1.
    9900012    2    1    2    0    0 -0.29392453267E+02 -0.88208051086E+01  0.86601707194E+01  0.59301929864E+02  0.49999974169E+02 0.  0.
        -12    1    1    2    0    0  0.29392453267E+02  0.88208051086E+01 -0.86601707194E+01  0.31886070136E+02  0.00000000000E+00 0.  1.
         11    1    3    3    0    0 -0.59661576461E+01  0.12091337627E+01 -0.12226420555E+02  0.13658052619E+02  0.51100000000E-03 0. -1.
        -11    1    3    3    0    0 -0.13579313271E+02  0.94998923949E+01  0.19006267316E+01  0.16681069710E+02  0.51100000000E-03 0.  1.
         12    1    3    3    0    0 -0.98469823501E+01 -0.19529831266E+02  0.18985964542E+02  0.28962807535E+02  0.00000000000E+00 0. -1.
</event>
<event>
 7    1  0.7313719E-013  0.5930194E+02  0.7816164E-02  0.1266605E+00
        -11   -1    0    0    0    0  0.00000000000E+00  0.00000000000E+00  0.45593999997E+02  0.45594000000E+02  0.51100000000E-03 0. -1.
         11   -1    0    0    0    0 -0.00000000000E+00 -0.00000000000E+00 -0.45593999997E+02  0.45594000000E+02  0.51100000000E-03 0.  1.
    9900012    2    1    2    0    0 -0.10065533948E+02 -0.30240791494E+02  0.94891010829E+00  0.59301939185E+02  0.49999991169E+02 0.  0.
        -12    1    1    2    0    0  0.10065533948E+02  0.30240791494E+02 -0.94891010829E+00  0.31886060815E+02  0.00000000000E+00 0.  1.
         11    1    3    3    0    0 -0.19717831608E+01  0.82161987636E+01 -0.42147513724E+01  0.94423503615E+01  0.51100000000E-03 0.  1.
        -11    1    3    3    0    0  0.53239437102E+01 -0.31458512341E+02 -0.40195696309E+01  0.32158036563E+02  0.51100000000E-03 0. -1.
         12    1    3    3    0    0 -0.13417694498E+02 -0.69984779175E+01  0.91832311116E+01  0.17701552261E+02  0.00000000000E+00 0. -1.
</event>
<event>
 7    1  0.7313719E-013  0.5930192E+02  0.7816164E-02  0.1266605E+00
        -11   -1    0    0    0    0  0.00000000000E+00  0.00000000000E+00  0.45593999997E+02  0.45594000000E+02  0.51100000000E-03 0.  1.
         11   -1    0    0    0    0 -0.00000000000E+00 -0.00000000000E+00 -0.45593999997E+02  0.45594000000E+02  0.51100000000E-03 0. -1.
    9900012    2    1    2    0    0 -0.29885599986E+02  0.10834949443E+02  0.24853850910E+01  0.59301915967E+02  0.49999948823E+02 0.  0.
        -12    1    1    2    0    0  0.29885599986E+02 -0.10834949443E+02 -0.24853850910E+01  0.31886084033E+02  0.00000000000E+00 0.  1.
         11    1    3    3    0    0 -0.29586768055E+02  0.58278921263E+01  0.16972472382E+02  0.34603554580E+02  0.51100000000E-03 0. -1.
        -11    1    3    3    0    0 -0.51590836676E+01 -0.23539981959E+01  0.19891436485E+01  0.60095045146E+01  0.51100000000E-03 0.  1.
        -12    1    3    3    0    0  0.48602517372E+01  0.73610555122E+01 -0.16476230939E+02  0.18688856872E+02  0.00000000000E+00 0.  1.
</event>
<event>
 7    1  0.7313719E-013  0.5930196E+02  0.7816164E-02  0.1266605E+00
        -11   -1    0    0    0    0  0.00000000000E+00  0.00000000000E+00  0.45593999997E+02  0.45594000000E+02  0.51100000000E-03 0. -1.
         11   -1    0    0    0    0 -0.00000000000E+00 -0.00000000000E+00 -0.45593999997E+02  0.45594000000E+02  0.51100000000E-03 0.  1.
    9900012    2    1    2    0    0  0.17775353416E+02  0.19299714538E+02  0.18118421271E+02  0.59301962936E+02  0.50000034484E+02 0.  0.
        -12    1    1    2    0    0 -0.17775353416E+02 -0.19299714538E+02 -0.18118421271E+02  0.31886037064E+02  0.00000000000E+00 0.  1.
         11    1    3    3    0    0  0.59925382768E+01 -0.10554702564E+01  0.44816217692E+01  0.75570805477E+01  0.51100000000E-03 0. -1.
        -11    1    3    3    0    0  0.20484300969E+02 -0.34085350884E+01 -0.36678718908E+01  0.21087389172E+02  0.51100000000E-03 0.  1.
         12    1    3    3    0    0 -0.87014858299E+01  0.23763719882E+02  0.17304671393E+02  0.30657493216E+02  0.00000000000E+00 0. -1.
</event>
<event>
 7    1  0.7313719E-013  0.5930193E+02  0.7816164E-02  0.1266605E+00
        -11   -1    0    0    0    0  0.00000000000E+00  0.00000000000E+00  0.45593999997E+02  0.45594000000E+02  0.51100000000E-03 0. -1.
         11   -1    0    0    0    0 -0.00000000000E+00 -0.00000000000E+00 -0.45593999997E+02  0.45594000000E+02  0.51100000000E-03 0.  1.
    9900012    2    1    2    0    0 -0.38887369743E+01 -0.30204136361E+02  0.94503572457E+01  0.59301931245E+02  0.49999976687E+02 0.  0.
        -12    1    1    2    0    0  0.38887369743E+01  0.30204136361E+02 -0.94503572457E+01  0.31886068755E+02  0.00000000000E+00 0.  1.
         11    1    3    3    0    0 -0.39003574600E+01 -0.15966587255E+02  0.64162637984E+01  0.17644068076E+02  0.51100000000E-03 0. -1.
        -11    1    3    3    0    0  0.30495272371E+01 -0.24908351590E+02  0.11595520841E+02  0.27643836549E+02  0.51100000000E-03 0.  1.
        -12    1    3    3    0    0 -0.30379067514E+01  0.10670802484E+02 -0.85614273939E+01  0.14014026620E+02  0.00000000000E+00 0.  1.
</event>
<event>
 7    1  0.7313719E-013  0.5930194E+02  0.7816164E-02  0.1266605E+00
        -11   -1    0    0    0    0  0.00000000000E+00  0.00000000000E+00  0.45593999997E+02  0.45594000000E+02  0.51100000000E-03 0. -1.
         11   -1    0    0    0    0 -0.00000000000E+00 -0.00000000000E+00 -0.45593999997E+02  0.45594000000E+02  0.51100000000E-03 0.  1.
    9900012    2    1    2    0    0 -0.30150587831E+02 -0.88205219650E+00  0.10338524250E+02  0.59301936488E+02  0.49999986249E+02 0.  0.
        -12    1    1    2    0    0  0.30150587831E+02  0.88205219650E+00 -0.10338524250E+02  0.31886063512E+02  0.00000000000E+00 0.  1.
         11    1    3    3    0    0 -0.10213069291E+02  0.71381283851E+01  0.15346703478E+02  0.19768180723E+02  0.51100000000E-03 0. -1.
        -11    1    3    3    0    0 -0.77164062971E+01  0.12712135954E+02 -0.42058099591E+01  0.15454130979E+02  0.51100000000E-03 0.  1.
        -12    1    3    3    0    0 -0.12221112243E+02 -0.20732316535E+02 -0.80236926910E+00  0.24079624786E+02  0.00000000000E+00 0.  1.
</event>
<event>
 7    1  0.7313719E-013  0.5930195E+02  0.7816164E-02  0.1266605E+00
        -11   -1    0    0    0    0  0.00000000000E+00  0.00000000000E+00  0.45593999997E+02  0.45594000000E+02  0.51100000000E-03 0.  1.
         11   -1    0    0    0    0 -0.00000000000E+00 -0.00000000000E+00 -0.45593999997E+02  0.45594000000E+02  0.51100000000E-03 0. -1.
    9900012    2    1    2    0    0  0.23281997580E+02 -0.14540115298E+02 -0.16225088858E+02  0.59301954891E+02  0.50000019813E+02 0.  0.
        -12    1    1    2    0    0 -0.23281997580E+02  0.14540115298E+02  0.16225088858E+02  0.31886045109E+02  0.00000000000E+00 0.  1.
         11    1    3    3    0    0  0.10295392389E+02 -0.19695822666E+02 -0.19704588718E+02  0.29701706209E+02  0.51100000000E-03 0. -1.
        -11    1    3    3    0    0  0.30004230454E+01 -0.46307485929E+01 -0.91982651972E+01  0.10726343920E+02  0.51100000000E-03 0.  1.
        -12    1    3    3    0    0  0.99861821462E+01  0.97864559607E+01  0.12677765058E+02  0.18873904763E+02  0.00000000000E+00 0.  1.
</event>
<event>
 7    1  0.7313719E-013  0.5930195E+02  0.7816164E-02  0.1266605E+00
        -11   -1    0    0    0    0  0.00000000000E+00  0.00000000000E+00  0.45593999997E+02  0.45594000000E+02  0.51100000000E-03 0.  1.
         11   -1    0    0    0    0 -0.00000000000E+00 -0.00000000000E+00 -0.45593999997E+02  0.45594000000E+02  0.51100000000E-03 0. -1.
    9900012    2    1    2    0    0 -0.16481741409E+02  0.19350210101E+02 -0.19252054106E+02  0.59301952610E+02  0.50000015652E+02 0.  0.
        -12    1    1    2    0    0  0.16481741409E+02 -0.19350210101E+02  0.19252054106E+02  0.31886047390E+02  0.00000000000E+00 0.  1.
         11    1    3    3    0    0 -0.74273620681E+01  0.17171859489E+02 -0.23524321731E+02  0.30057148547E+02  0.51100000000E-03 0. -1.
        -11    1    3    3    0    0 -0.80718646033E+01  0.86748254647E+01 -0.87021908143E+01  0.14701555028E+02  0.51100000000E-03 0.  1.
        -12    1    3    3    0    0 -0.98251473809E+00 -0.64964748531E+01  0.12974458439E+02  0.14543249035E+02  0.00000000000E+00 0.  1.
</event>
<event>
 7    1  0.7313719E-013  0.5930208E+02  0.7816164E-02  0.1266604E+00
        -11   -1    0    0    0    0  0.00000000000E+00  0.00000000000E+00  0.45593999997E+02  0.45594000000E+02  0.51100000000E-03 0.  1.
         11   -1    0    0    0    0 -0.00000000000E+00 -0.00000000000E+00 -0.45593999997E+02  0.45594000000E+02  0.51100000000E-03 0. -1.
    9900012    2    1    2    0    0  0.25998812476E+02  0.10033498617E+02 -0.15495239990E+02  0.59302081368E+02  0.50000250475E+02 0.  0.
        -12    1    1    2    0    0 -0.25998812476E+02 -0.10033498617E+02  0.15495239990E+02  0.31885918632E+02  0.00000000000E+00 0.  1.
         11    1    3    3    0    0  0.29701334251E+02  0.15144695672E+02  0.77381775532E+01  0.34225874064E+02  0.51100000000E-03 0.  1.
        -11    1    3    3    0    0  0.15628428363E+01 -0.21899722496E+01 -0.12334756809E+02  0.12624764631E+02  0.51100000000E-03 0. -1.
        -12    1    3    3    0    0 -0.52653646111E+01 -0.29212248056E+01 -0.10898660734E+02  0.12451442673E+02  0.00000000000E+00 0.  1.
</event>
<event>
 7    1  0.7313719E-013  0.5930194E+02  0.7816164E-02  0.1266605E+00
        -11   -1    0    0    0    0  0.00000000000E+00  0.00000000000E+00  0.45593999997E+02  0.45594000000E+02  0.51100000000E-03 0. -1.
         11   -1    0    0    0    0 -0.00000000000E+00 -0.00000000000E+00 -0.45593999997E+02  0.45594000000E+02  0.51100000000E-03 0.  1.
    9900012    2    1    2    0    0 -0.21258606541E+02  0.12479464182E+02  0.20225124731E+02  0.59301936450E+02  0.49999986181E+02 0.  0.
        -12    1    1    2    0    0  0.21258606541E+02 -0.12479464182E+02 -0.20225124731E+02  0.31886063550E+02  0.00000000000E+00 0.  1.
         11    1    3    3    0    0 -0.18042793836E+01  0.11743565637E+02  0.81604469836E+01  0.14413870167E+02  0.51100000000E-03 0.  1.
        -11    1    3    3    0    0 -0.58018834001E+01  0.13314714241E+02  0.19985069881E+02  0.24705191453E+02  0.51100000000E-03 0. -1.
         12    1    3    3    0    0 -0.13652443757E+02 -0.12578815696E+02 -0.79203921339E+01  0.20182874830E+02  0.00000000000E+00 0. -1.
</event>
<event>
 7    1  0.7313719E-013  0.5930192E+02  0.7816164E-02  0.1266605E+00
        -11   -1    0    0    0    0  0.00000000000E+00  0.00000000000E+00  0.45593999997E+02  0.45594000000E+02  0.51100000000E-03 0. -1.
         11   -1    0    0    0    0 -0.00000000000E+00 -0.00000000000E+00 -0.45593999997E+02  0.45594000000E+02  0.51100000000E-03 0.  1.
    9900012    2    1    2    0    0  0.31419294829E+02 -0.34310971857E+01  0.42163196850E+01  0.59301923616E+02  0.49999962774E+02 0.  0.
        -12    1    1    2    0    0 -0.31419294829E+02  0.34310971857E+01 -0.42163196850E+01  0.31886076384E+02  0.00000000000E+00 0.  1.
         11    1    3    3    0    0  0.30032820106E+02  0.40144604997E+01  0.95040794299E+01  0.31755530270E+02  0.51100000000E-03 0. -1.
        -11    1    3    3    0    0  0.71715143788E+01  0.26864663629E+01  0.71611508036E+01  0.10484741346E+02  0.51100000000E-03 0.  1.
        -12    1    3    3    0    0 -0.57850396555E+01 -0.10132024048E+02 -0.12448910549E+02  0.17061652000E+02  0.00000000000E+00 0.  1.
</event>
<event>
 7    1  0.7313719E-013  0.5930190E+02  0.7816164E-02  0.1266605E+00
        -11   -1    0    0    0    0  0.00000000000E+00  0.00000000000E+00  0.45593999997E+02  0.45594000000E+02  0.51100000000E-03 0.  1.
         11   -1    0    0    0    0 -0.00000000000E+00 -0.00000000000E+00 -0.45593999997E+02  0.45594000000E+02  0.51100000000E-03 0. -1.
    9900012    2    1    2    0    0  0.10596559984E+02 -0.49319103259E+01 -0.29666692681E+02  0.59301898363E+02  0.49999916718E+02 0.  0.
        -12    1    1    2    0    0 -0.10596559984E+02  0.49319103259E+01  0.29666692681E+02  0.31886101637E+02  0.00000000000E+00 0.  1.
         11    1    3    3    0    0  0.46047686581E+01  0.84811090584E+01  0.18715999611E+01  0.98303607223E+01  0.51100000000E-03 0. -1.
        -11    1    3    3    0    0  0.10275761901E+02  0.16326264807E+00  0.41233219227E+01  0.11073378946E+02  0.51100000000E-03 0.  1.
        -12    1    3    3    0    0 -0.42839705759E+01 -0.13576282032E+02 -0.35661614565E+02  0.38398158694E+02  0.00000000000E+00 0.  1.
</event>
<event>
 7    1  0.7313719E-013  0.5930185E+02  0.7816164E-02  0.1266605E+00
        -11   -1    0    0    0    0  0.00000000000E+00  0.00000000000E+00  0.45593999997E+02  0.45594000000E+02  0.51100000000E-03 0. -1.
         11   -1    0    0    0    0 -0.00000000000E+00 -0.00000000000E+00 -0.45593999997E+02  0.45594000000E+02  0.51100000000E-03 0.  1.
    9900012    2    1    2    0    0 -0.24977348888E+02  0.13754586301E+02  0.14271305706E+02  0.59301846761E+02  0.49999822609E+02 0.  0.
        -12    1    1    2    0    0  0.24977348888E+02 -0.13754586301E+02 -0.14271305706E+02  0.31886153239E+02  0.00000000000E+00 0.  1.
         11    1    3    3    0    0 -0.18150489088E+01  0.10334208358E+02 -0.13877608183E+02  0.17397651395E+02  0.51100000000E-03 0. -1.
        -11    1    3    3    0    0 -0.91194224593E+00 -0.42371228745E+01 -0.99454566525E+00  0.44467932553E+01  0.51100000000E-03 0.  1.
         12    1    3    3    0    0 -0.22250357734E+02  0.76575008180E+01  0.29143459555E+02  0.37457402111E+02  0.00000000000E+00 0. -1.
</event>
<event>
 7    1  0.7313719E-013  0.5930195E+02  0.7816164E-02  0.1266605E+00
        -11   -1    0    0    0    0  0.00000000000E+00  0.00000000000E+00  0.45593999997E+02  0.45594000000E+02  0.51100000000E-03 0. -1.
         11   -1    0    0    0    0 -0.00000000000E+00 -0.00000000000E+00 -0.45593999997E+02  0.45594000000E+02  0.51100000000E-03 0.  1.
    9900012    2    1    2    0    0  0.63902337939E-01  0.31884906866E+02  0.26275639585E+00  0.59301946461E+02  0.50000004438E+02 0.  0.
        -12    1    1    2    0    0 -0.63902337939E-01 -0.31884906866E+02 -0.26275639585E+00  0.31886053539E+02  0.00000000000E+00 0.  1.
         11    1    3    3    0    0 -0.41497413675E+00  0.21137534384E+02 -0.22428843865E+01  0.21260246801E+02  0.51100000000E-03 0. -1.
        -11    1    3    3    0    0 -0.81566307817E+01  0.22075000509E+02  0.33593935499E+01  0.23772290560E+02  0.51100000000E-03 0.  1.
        -12    1    3    3    0    0  0.86355072564E+01 -0.11327628027E+02 -0.85375276760E+00  0.14269409101E+02  0.00000000000E+00 0.  1.
</event>
<event>
 7    1  0.7313719E-013  0.5930194E+02  0.7816164E-02  0.1266605E+00
        -11   -1    0    0    0    0  0.00000000000E+00  0.00000000000E+00  0.45593999997E+02  0.45594000000E+02  0.51100000000E-03 0. -1.
         11   -1    0    0    0    0 -0.00000000000E+00 -0.00000000000E+00 -0.45593999997E+02  0.45594000000E+02  0.51100000000E-03 0.  1.
    9900012    2    1    2    0    0  0.58581640432E+01  0.15362354891E+02  0.27320334915E+02  0.59301941391E+02  0.49999995192E+02 0.  0.
        -12    1    1    2    0    0 -0.58581640432E+01 -0.15362354891E+02 -0.27320334915E+02  0.31886058609E+02  0.00000000000E+00 0.  1.
         11    1    3    3    0    0  0.10805396276E+02  0.36076864511E+01  0.26988565364E+02  0.29294276759E+02  0.51100000000E-03 0. -1.
        -11    1    3    3    0    0 -0.11967627377E+02  0.11487281788E+02  0.89817440350E+01  0.18864078936E+02  0.51100000000E-03 0.  1.
         12    1    3    3    0    0  0.70203951440E+01  0.26738665110E+00 -0.86499744839E+01  0.11143585696E+02  0.00000000000E+00 0. -1.
</event>
<event>
 7    1  0.7313719E-013  0.5930195E+02  0.7816164E-02  0.1266605E+00
        -11   -1    0    0    0    0  0.00000000000E+00  0.00000000000E+00  0.45593999997E+02  0.45594000000E+02  0.51100000000E-03 0.  1.
         11   -1    0    0    0    0 -0.00000000000E+00 -0.00000000000E+00 -0.45593999997E+02  0.45594000000E+02  0.51100000000E-03 0. -1.
    9900012    2    1    2    0    0 -0.24803257913E+02  0.89725303532E+01 -0.17916821303E+02  0.59301946785E+02  0.50000005028E+02 0.  0.
        -12    1    1    2    0    0  0.24803257913E+02 -0.89725303532E+01  0.17916821303E+02  0.31886053215E+02  0.00000000000E+00 0.  1.
         11    1    3    3    0    0 -0.26419655976E+02 -0.74077951314E+01 -0.13624678562E+02  0.30635037404E+02  0.51100000000E-03 0. -1.
        -11    1    3    3    0    0  0.52912002733E+01  0.88606547981E+00 -0.10327207365E+02  0.11637573827E+02  0.51100000000E-03 0.  1.
        -12    1    3    3    0    0 -0.36748022105E+01  0.15494260005E+02  0.60350646235E+01  0.17029335553E+02  0.00000000000E+00 0.  1.
</event>
<event>
 7    1  0.7313719E-013  0.5930194E+02  0.7816164E-02  0.1266605E+00
        -11   -1    0    0    0    0  0.00000000000E+00  0.00000000000E+00  0.45593999997E+02  0.45594000000E+02  0.51100000000E-03 0. -1.
         11   -1    0    0    0    0 -0.00000000000E+00 -0.00000000000E+00 -0.45593999997E+02  0.45594000000E+02  0.51100000000E-03 0.  1.
    9900012    2    1    2    0    0  0.22934812026E+02  0.11084943016E+02  0.19179137078E+02  0.59301939356E+02  0.49999991481E+02 0.  0.
        -12    1    1    2    0    0 -0.22934812026E+02 -0.11084943016E+02 -0.19179137078E+02  0.31886060644E+02  0.00000000000E+00 0.  1.
         11    1    3    3    0    0 -0.18898663798E+01  0.14071954080E+02  0.20634807477E+02  0.25047689842E+02  0.51100000000E-03 0. -1.
        -11    1    3    3    0    0 -0.21444638757E+01  0.48607157858E+01  0.25312740267E+01  0.58849495940E+01  0.51100000000E-03 0.  1.
        -12    1    3    3    0    0  0.26969142282E+02 -0.78477268499E+01 -0.39869444261E+01  0.28369299920E+02  0.00000000000E+00 0.  1.
</event>
<event>
 7    1  0.7313719E-013  0.5930193E+02  0.7816164E-02  0.1266605E+00
        -11   -1    0    0    0    0  0.00000000000E+00  0.00000000000E+00  0.45593999997E+02  0.45594000000E+02  0.51100000000E-03 0. -1.
         11   -1    0    0    0    0 -0.00000000000E+00 -0.00000000000E+00 -0.45593999997E+02  0.45594000000E+02  0.51100000000E-03 0.  1.
    9900012    2    1    2    0    0  0.19766520183E+02  0.16302346250E+02  0.18979986294E+02  0.59301926345E+02  0.49999967752E+02 0.  0.
        -12    1    1    2    0    0 -0.19766520183E+02 -0.16302346250E+02 -0.18979986294E+02  0.31886073655E+02  0.00000000000E+00 0.  1.
         11    1    3    3    0    0 -0.15777105926E+01  0.64171465368E+01 -0.43364053504E+01  0.79040086041E+01  0.51100000000E-03 0. -1.
        -11    1    3    3    0    0 -0.10965147090E+02  0.54222720290E+00  0.11107393406E+02  0.15617382930E+02  0.51100000000E-03 0.  1.
        -12    1    3    3    0    0  0.32309377866E+02  0.93429725099E+01  0.12208998239E+02  0.35780534811E+02  0.00000000000E+00 0.  1.
</event>
<event>
 7    1  0.7313719E-013  0.5930195E+02  0.7816164E-02  0.1266605E+00
        -11   -1    0    0    0    0  0.00000000000E+00  0.00000000000E+00  0.45593999997E+02  0.45594000000E+02  0.51100000000E-03 0.  1.
         11   -1    0    0    0    0 -0.00000000000E+00 -0.00000000000E+00 -0.45593999997E+02  0.45594000000E+02  0.51100000000E-03 0. -1.
    9900012    2    1    2    0    0  0.68579264385E+01  0.21698629900E+02 -0.22335143449E+02  0.59301947760E+02  0.50000006807E+02 0.  0.
        -12    1    1    2    0    0 -0.68579264385E+01 -0.21698629900E+02  0.22335143449E+02  0.31886052240E+02  0.00000000000E+00 0.  1.
         11    1    3    3    0    0  0.62655676909E+01 -0.79866012076E+01 -0.11489789222E+02  0.15331614200E+02  0.51100000000E-03 0. -1.
        -11    1    3    3    0    0  0.60604774292E+01 -0.41426168663E+01 -0.57537494942E+01  0.93271804247E+01  0.51100000000E-03 0.  1.
        -12    1    3    3    0    0 -0.54681186816E+01  0.33827847974E+02 -0.50916047325E+01  0.34643153136E+02  0.00000000000E+00 0.  1.
</event>
<event>
 7    1  0.7313719E-013  0.5930165E+02  0.7816164E-02  0.1266606E+00
        -11   -1    0    0    0    0  0.00000000000E+00  0.00000000000E+00  0.45593999997E+02  0.45594000000E+02  0.51100000000E-03 0.  1.
         11   -1    0    0    0    0 -0.00000000000E+00 -0.00000000000E+00 -0.45593999997E+02  0.45594000000E+02  0.51100000000E-03 0. -1.
    9900012    2    1    2    0    0 -0.28382495222E+02 -0.68460523320E+01 -0.12818146983E+02  0.59301649321E+02  0.49999462523E+02 0.  0.
        -12    1    1    2    0    0  0.28382495222E+02  0.68460523320E+01  0.12818146983E+02  0.31886350679E+02  0.00000000000E+00 0.  1.
         11    1    3    3    0    0 -0.38711185724E+01 -0.74425604233E+01  0.81745160742E+00  0.84288487973E+01  0.51100000000E-03 0. -1.
        -11    1    3    3    0    0 -0.11253479086E+02 -0.20841399863E+02 -0.48321110376E+01  0.24173415918E+02  0.51100000000E-03 0.  1.
        -12    1    3    3    0    0 -0.13257897564E+02  0.21437907954E+02 -0.88034875526E+01  0.26699384606E+02  0.00000000000E+00 0.  1.
</event>
<event>
 7    1  0.7313719E-013  0.5930201E+02  0.7816164E-02  0.1266605E+00
        -11   -1    0    0    0    0  0.00000000000E+00  0.00000000000E+00  0.45593999997E+02  0.45594000000E+02  0.51100000000E-03 0. -1.
         11   -1    0    0    0    0 -0.00000000000E+00 -0.00000000000E+00 -0.45593999997E+02  0.45594000000E+02  0.51100000000E-03 0.  1.
    9900012    2    1    2    0    0  0.16604371645E+02 -0.19810792107E+02  0.18669317525E+02  0.59302014701E+02  0.50000128891E+02 0.  0.
        -12    1    1    2    0    0 -0.16604371645E+02  0.19810792107E+02 -0.18669317525E+02  0.31885985299E+02  0.00000000000E+00 0.  1.
         11    1    3    3    0    0  0.15594155602E+02 -0.27542583392E+02 -0.58365209049E+00  0.31656156413E+02  0.51100000000E-03 0. -1.
        -11    1    3    3    0    0 -0.16107852006E+00 -0.22538736157E+01 -0.26876475598E+01  0.35113163104E+01  0.51100000000E-03 0.  1.
        -12    1    3    3    0    0  0.11712945630E+01  0.99856649001E+01  0.21940617175E+02  0.24134541977E+02  0.00000000000E+00 0.  1.
</event>
<event>
 7    1  0.7313719E-013  0.5930202E+02  0.7816164E-02  0.1266604E+00
        -11   -1    0    0    0    0  0.00000000000E+00  0.00000000000E+00  0.45593999997E+02  0.45594000000E+02  0.51100000000E-03 0.  1.
         11   -1    0    0    0    0 -0.00000000000E+00 -0.00000000000E+00 -0.45593999997E+02  0.45594000000E+02  0.51100000000E-03 0. -1.
    9900012    2    1    2    0    0  0.19143013838E+02  0.17636402114E+02  0.18417869088E+02  0.59302022516E+02  0.50000143144E+02 0.  0.
        -12    1    1    2    0    0 -0.19143013838E+02 -0.17636402114E+02 -0.18417869088E+02  0.31885977484E+02  0.00000000000E+00 0.  1.
         11    1    3    3    0    0  0.14905990181E+02  0.18905670222E+02  0.48061107072E+01  0.24550185543E+02  0.51100000000E-03 0. -1.
        -11    1    3    3    0    0  0.13994644400E+02 -0.66654323759E+01  0.17089010906E+02  0.23071895342E+02  0.51100000000E-03 0.  1.
        -12    1    3    3    0    0 -0.97576207433E+01  0.53961642682E+01 -0.34772525248E+01  0.11679941631E+02  0.00000000000E+00 0.  1.
</event>
<event>
 7    1  0.7313719E-013  0.5930196E+02  0.7816164E-02  0.1266605E+00
        -11   -1    0    0    0    0  0.00000000000E+00  0.00000000000E+00  0.45593999997E+02  0.45594000000E+02  0.51100000000E-03 0. -1.
         11   -1    0    0    0    0 -0.00000000000E+00 -0.00000000000E+00 -0.45593999997E+02  0.45594000000E+02  0.51100000000E-03 0.  1.
    9900012    2    1    2    0    0  0.11909041767E+02  0.24418544546E+02 -0.16692187985E+02  0.59301957078E+02  0.50000023800E+02 0.  0.
        -12    1    1    2    0    0 -0.11909041767E+02 -0.24418544546E+02  0.16692187985E+02  0.31886042922E+02  0.00000000000E+00 0.  1.
         11    1    3    3    0    0 -0.13873989032E+01  0.71670516444E+00  0.75985614823E+01  0.77573628812E+01  0.51100000000E-03 0. -1.
        -11    1    3    3    0    0 -0.26819584751E+01 -0.81365997855E+01 -0.99844776394E+01  0.13156251416E+02  0.51100000000E-03 0.  1.
        -12    1    3    3    0    0  0.15978399145E+02  0.31838439167E+02 -0.14306271828E+02  0.38388342780E+02  0.00000000000E+00 0.  1.
</event>
<event>
 7    1  0.7313719E-013  0.5930194E+02  0.7816164E-02  0.1266605E+00
        -11   -1    0    0    0    0  0.00000000000E+00  0.00000000000E+00  0.45593999997E+02  0.45594000000E+02  0.51100000000E-03 0. -1.
         11   -1    0    0    0    0 -0.00000000000E+00 -0.00000000000E+00 -0.45593999997E+02  0.45594000000E+02  0.51100000000E-03 0.  1.
    9900012    2    1    2    0    0 -0.19783490293E+02  0.20321476314E+02  0.14572981735E+02  0.59301942163E+02  0.49999996599E+02 0.  0.
        -12    1    1    2    0    0  0.19783490293E+02 -0.20321476314E+02 -0.14572981735E+02  0.31886057837E+02  0.00000000000E+00 0.  1.
         11    1    3    3    0    0 -0.28311909431E+02  0.29171129318E+01  0.98066109252E+01  0.30103876521E+02  0.51100000000E-03 0. -1.
        -11    1    3    3    0    0  0.18478674605E+01 -0.34745028847E+01 -0.39790441456E+01  0.55963896416E+01  0.51100000000E-03 0.  1.
         12    1    3    3    0    0  0.66805516775E+01  0.20878866267E+02  0.87454149551E+01  0.23601676001E+02  0.00000000000E+00 0. -1.
</event>
<event>
 7    1  0.7313719E-013  0.5930194E+02  0.7816164E-02  0.1266605E+00
        -11   -1    0    0    0    0  0.00000000000E+00  0.00000000000E+00  0.45593999997E+02  0.45594000000E+02  0.51100000000E-03 0.  1.
         11   -1    0    0    0    0 -0.00000000000E+00 -0.00000000000E+00 -0.45593999997E+02  0.45594000000E+02  0.51100000000E-03 0. -1.
    9900012    2    1    2    0    0  0.29590354528E+01 -0.23833624682E+01 -0.31658874383E+02  0.59301942943E+02  0.49999998022E+02 0.  0.
        -12    1    1    2    0    0 -0.29590354528E+01  0.23833624682E+01  0.31658874383E+02  0.31886057057E+02  0.00000000000E+00 0.  1.
         11    1    3    3    0    0  0.33802944404E-01  0.18301847958E+02 -0.58165351615E+01  0.19203928318E+02  0.51100000000E-03 0. -1.
        -11    1    3    3    0    0  0.77452418736E+01  0.22343490074E+00 -0.19602172724E+01  0.79925682262E+01  0.51100000000E-03 0.  1.
        -12    1    3    3    0    0 -0.48200093652E+01 -0.20908645327E+02 -0.23882121949E+02  0.32105446399E+02  0.00000000000E+00 0.  1.
</event>
<event>
 7    1  0.7313719E-013  0.5930196E+02  0.7816164E-02  0.1266605E+00
        -11   -1    0    0    0    0  0.00000000000E+00  0.00000000000E+00  0.45593999997E+02  0.45594000000E+02  0.51100000000E-03 0.  1.
         11   -1    0    0    0    0 -0.00000000000E+00 -0.00000000000E+00 -0.45593999997E+02  0.45594000000E+02  0.51100000000E-03 0. -1.
    9900012    2    1    2    0    0  0.79830422345E+01  0.27754013855E+02 -0.13516863625E+02  0.59301955237E+02  0.50000020442E+02 0.  0.
        -12    1    1    2    0    0 -0.79830422345E+01 -0.27754013855E+02  0.13516863625E+02  0.31886044763E+02  0.00000000000E+00 0.  1.
         11    1    3    3    0    0 -0.11645674775E+02  0.19000028085E+02 -0.82342863803E+01  0.23757657306E+02  0.51100000000E-03 0. -1.
        -11    1    3    3    0    0  0.71311210347E+01  0.47444790819E+01 -0.16296530325E+02  0.18410319656E+02  0.51100000000E-03 0.  1.
        -12    1    3    3    0    0  0.12497595975E+02  0.40095066882E+01  0.11013953080E+02  0.17133978274E+02  0.00000000000E+00 0.  1.
</event>
<event>
 7    1  0.7313719E-013  0.5930194E+02  0.7816164E-02  0.1266605E+00
        -11   -1    0    0    0    0  0.00000000000E+00  0.00000000000E+00  0.45593999997E+02  0.45594000000E+02  0.51100000000E-03 0.  1.
         11   -1    0    0    0    0 -0.00000000000E+00 -0.00000000000E+00 -0.45593999997E+02  0.45594000000E+02  0.51100000000E-03 0. -1.
    9900012    2    1    2    0    0 -0.81053318377E+01 -0.29141507549E+01 -0.30700689818E+02  0.59301936678E+02  0.49999986597E+02 0.  0.
        -12    1    1    2    0    0  0.81053318377E+01  0.29141507549E+01  0.30700689818E+02  0.31886063322E+02  0.00000000000E+00 0.  1.
         11    1    3    3    0    0 -0.34814335457E+01 -0.19884932798E+02 -0.92107784461E+01  0.22189397733E+02  0.51100000000E-03 0.  1.
        -11    1    3    3    0    0  0.41036563672E+01  0.24421154193E+01 -0.19466495418E+02  0.20043661527E+02  0.51100000000E-03 0. -1.
        -12    1    3    3    0    0 -0.87275546591E+01  0.14528666624E+02 -0.20234159547E+01  0.17068877418E+02  0.00000000000E+00 0.  1.
</event>
<event>
 7    1  0.7313719E-013  0.5930196E+02  0.7816164E-02  0.1266605E+00
        -11   -1    0    0    0    0  0.00000000000E+00  0.00000000000E+00  0.45593999997E+02  0.45594000000E+02  0.51100000000E-03 0.  1.
         11   -1    0    0    0    0 -0.00000000000E+00 -0.00000000000E+00 -0.45593999997E+02  0.45594000000E+02  0.51100000000E-03 0. -1.
    9900012    2    1    2    0    0 -0.18373899699E+02 -0.23726904766E+02 -0.10777456559E+02  0.59301956505E+02  0.50000022755E+02 0.  0.
        -12    1    1    2    0    0  0.18373899699E+02  0.23726904766E+02  0.10777456559E+02  0.31886043495E+02  0.00000000000E+00 0.  1.
         11    1    3    3    0    0  0.36050002486E+01  0.23876822502E+01 -0.23489224291E+00  0.43303842725E+01  0.51100000000E-03 0. -1.
        -11    1    3    3    0    0 -0.21191655747E+02  0.21620306321E+01 -0.15379600161E+02  0.26273422905E+02  0.51100000000E-03 0.  1.
        -12    1    3    3    0    0 -0.78724420032E+00 -0.28276617648E+02  0.48370358449E+01  0.28698149327E+02  0.00000000000E+00 0.  1.
</event>
<event>
 7    1  0.7313719E-013  0.5930194E+02  0.7816164E-02  0.1266605E+00
        -11   -1    0    0    0    0  0.00000000000E+00  0.00000000000E+00  0.45593999997E+02  0.45594000000E+02  0.51100000000E-03 0.  1.
         11   -1    0    0    0    0 -0.00000000000E+00 -0.00000000000E+00 -0.45593999997E+02  0.45594000000E+02  0.51100000000E-03 0. -1.
    9900012    2    1    2    0    0  0.82297817392E+01 -0.30481708279E+02 -0.44561138863E+01  0.59301940380E+02  0.49999993348E+02 0.  0.
        -12    1    1    2    0    0 -0.82297817392E+01  0.30481708279E+02  0.44561138863E+01  0.31886059620E+02  0.00000000000E+00 0.  1.
         11    1    3    3    0    0  0.10161499394E+02  0.19859526546E+01 -0.20350521167E+01  0.10551848902E+02  0.51100000000E-03 0. -1.
        -11    1    3    3    0    0  0.80223101760E+01  0.53038639419E+01 -0.90476536109E+00  0.96595566096E+01  0.51100000000E-03 0.  1.
        -12    1    3    3    0    0 -0.99540278305E+01 -0.37771524876E+02 -0.15162964085E+01  0.39090534868E+02  0.00000000000E+00 0.  1.
</event>
<event>
 7    1  0.7313719E-013  0.5930193E+02  0.7816164E-02  0.1266605E+00
        -11   -1    0    0    0    0  0.00000000000E+00  0.00000000000E+00  0.45593999997E+02  0.45594000000E+02  0.51100000000E-03 0.  1.
         11   -1    0    0    0    0 -0.00000000000E+00 -0.00000000000E+00 -0.45593999997E+02  0.45594000000E+02  0.51100000000E-03 0. -1.
    9900012    2    1    2    0    0 -0.13139200320E+02 -0.21404845930E+02 -0.19644736068E+02  0.59301926716E+02  0.49999968427E+02 0.  0.
        -12    1    1    2    0    0  0.13139200320E+02  0.21404845930E+02  0.19644736068E+02  0.31886073284E+02  0.00000000000E+00 0.  1.
         11    1    3    3    0    0 -0.47321888152E+01 -0.15768895892E+01  0.10531638594E+02  0.11653137066E+02  0.51100000000E-03 0. -1.
        -11    1    3    3    0    0 -0.12008513136E+02 -0.12024502077E+02 -0.76904913339E+00  0.17011304323E+02  0.51100000000E-03 0.  1.
         12    1    3    3    0    0  0.36015016310E+01 -0.78034542632E+01 -0.29407325528E+02  0.30637485326E+02  0.00000000000E+00 0. -1.
</event>
<event>
 7    1  0.7313719E-013  0.5930195E+02  0.7816164E-02  0.1266605E+00
        -11   -1    0    0    0    0  0.00000000000E+00  0.00000000000E+00  0.45593999997E+02  0.45594000000E+02  0.51100000000E-03 0.  1.
         11   -1    0    0    0    0 -0.00000000000E+00 -0.00000000000E+00 -0.45593999997E+02  0.45594000000E+02  0.51100000000E-03 0. -1.
    9900012    2    1    2    0    0  0.29565004708E+02  0.73762579302E+01 -0.93926453598E+01  0.59301945504E+02  0.50000002693E+02 0.  0.
        -12    1    1    2    0    0 -0.29565004708E+02 -0.73762579302E+01  0.93926453598E+01  0.31886054496E+02  0.00000000000E+00 0.  1.
         11    1    3    3    0    0  0.24348475979E+02  0.84352000878E+01  0.57377444708E+01  0.26399291561E+02  0.51100000000E-03 0. -1.
        -11    1    3    3    0    0 -0.10916944782E+02  0.47677234764E+01 -0.45699797391E+01  0.12759137338E+02  0.51100000000E-03 0.  1.
        -12    1    3    3    0    0  0.16133473511E+02 -0.58266656340E+01 -0.10560410092E+02  0.20143516606E+02  0.00000000000E+00 0.  1.
</event>
<event>
 7    1  0.7313719E-013  0.5930192E+02  0.7816164E-02  0.1266605E+00
        -11   -1    0    0    0    0  0.00000000000E+00  0.00000000000E+00  0.45593999997E+02  0.45594000000E+02  0.51100000000E-03 0.  1.
         11   -1    0    0    0    0 -0.00000000000E+00 -0.00000000000E+00 -0.45593999997E+02  0.45594000000E+02  0.51100000000E-03 0. -1.
    9900012    2    1    2    0    0 -0.14027976578E+02 -0.21685060270E+02 -0.18700170035E+02  0.59301916435E+02  0.49999949677E+02 0.  0.
        -12    1    1    2    0    0  0.14027976578E+02  0.21685060270E+02  0.18700170035E+02  0.31886083565E+02  0.00000000000E+00 0.  1.
         11    1    3    3    0    0  0.38310756374E+01 -0.22402687809E+02 -0.63069650987E+01  0.23586762614E+02  0.51100000000E-03 0. -1.
        -11    1    3    3    0    0 -0.75098870873E+00 -0.96613389660E+01  0.33511260305E+01  0.10253560386E+02  0.51100000000E-03 0.  1.
        -12    1    3    3    0    0 -0.17108063506E+02  0.10378966505E+02 -0.15744330967E+02  0.25461593434E+02  0.00000000000E+00 0.  1.
</event>
<event>
 7    1  0.7313719E-013  0.5930199E+02  0.7816164E-02  0.1266605E+00
        -11   -1    0    0    0    0  0.00000000000E+00  0.00000000000E+00  0.45593999997E+02  0.45594000000E+02  0.51100000000E-03 0. -1.
         11   -1    0    0    0    0 -0.00000000000E+00 -0.00000000000E+00 -0.45593999997E+02  0.45594000000E+02  0.51100000000E-03 0.  1.
    9900012    2    1    2    0    0  0.41782903838E+01  0.18428967888E+02 -0.25683319897E+02  0.59301985999E+02  0.50000076545E+02 0.  0.
        -12    1    1    2    0    0 -0.41782903838E+01 -0.18428967888E+02  0.25683319897E+02  0.31886014001E+02  0.00000000000E+00 0.  1.
         11    1    3    3    0    0 -0.56381668463E+01 -0.11370513092E+01 -0.51890471882E+01  0.77464844961E+01  0.51100000000E-03 0. -1.
        -11    1    3    3    0    0 -0.13408183512E+02  0.19075327567E+01 -0.17642086585E+02  0.22240982119E+02  0.51100000000E-03 0.  1.
         12    1    3    3    0    0  0.23224640742E+02  0.17658486441E+02 -0.28521861239E+01  0.29314519383E+02  0.00000000000E+00 0. -1.
</event>
<event>
 7    1  0.7313719E-013  0.5930197E+02  0.7816164E-02  0.1266605E+00
        -11   -1    0    0    0    0  0.00000000000E+00  0.00000000000E+00  0.45593999997E+02  0.45594000000E+02  0.51100000000E-03 0. -1.
         11   -1    0    0    0    0 -0.00000000000E+00 -0.00000000000E+00 -0.45593999997E+02  0.45594000000E+02  0.51100000000E-03 0.  1.
    9900012    2    1    2    0    0 -0.21657871900E+02 -0.15621158110E+02  0.17425124980E+02  0.59301968944E+02  0.50000045441E+02 0.  0.
        -12    1    1    2    0    0  0.21657871900E+02  0.15621158110E+02 -0.17425124980E+02  0.31886031056E+02  0.00000000000E+00 0.  1.
         11    1    3    3    0    0  0.65757206776E+01 -0.46234641093E+01  0.12961054909E+02  0.15251408702E+02  0.51100000000E-03 0. -1.
        -11    1    3    3    0    0  0.52004924952E+01 -0.30337111096E+01 -0.56160286303E+01  0.82333652370E+01  0.51100000000E-03 0.  1.
         12    1    3    3    0    0 -0.33434085073E+02 -0.79639828915E+01  0.10080098701E+02  0.35817195004E+02  0.00000000000E+00 0. -1.
</event>
<event>
 7    1  0.7313719E-013  0.5930195E+02  0.7816164E-02  0.1266605E+00
        -11   -1    0    0    0    0  0.00000000000E+00  0.00000000000E+00  0.45593999997E+02  0.45594000000E+02  0.51100000000E-03 0.  1.
         11   -1    0    0    0    0 -0.00000000000E+00 -0.00000000000E+00 -0.45593999997E+02  0.45594000000E+02  0.51100000000E-03 0. -1.
    9900012    2    1    2    0    0 -0.21539220503E+02  0.10999222618E+02 -0.20779775417E+02  0.59301953139E+02  0.50000016616E+02 0.  0.
        -12    1    1    2    0    0  0.21539220503E+02 -0.10999222618E+02  0.20779775417E+02  0.31886046861E+02  0.00000000000E+00 0.  1.
         11    1    3    3    0    0  0.20476992952E+01 -0.43192730348E+01 -0.58763641863E+01  0.75750147369E+01  0.51100000000E-03 0. -1.
        -11    1    3    3    0    0  0.38409606524E+01  0.37006809132E+01 -0.20704407552E+02  0.21380376757E+02  0.51100000000E-03 0.  1.
        -12    1    3    3    0    0 -0.27427880450E+02  0.11617814740E+02  0.58009963209E+01  0.30346561644E+02  0.00000000000E+00 0.  1.
</event>
<event>
 7    1  0.7313719E-013  0.5930195E+02  0.7816164E-02  0.1266605E+00
        -11   -1    0    0    0    0  0.00000000000E+00  0.00000000000E+00  0.45593999997E+02  0.45594000000E+02  0.51100000000E-03 0. -1.
         11   -1    0    0    0    0 -0.00000000000E+00 -0.00000000000E+00 -0.45593999997E+02  0.45594000000E+02  0.51100000000E-03 0.  1.
    9900012    2    1    2    0    0  0.11627462322E+02  0.29468523557E+02 -0.36233470688E+01  0.59301946549E+02  0.50000004598E+02 0.  0.
        -12    1    1    2    0    0 -0.11627462322E+02 -0.29468523557E+02  0.36233470688E+01  0.31886053451E+02  0.00000000000E+00 0.  1.
         11    1    3    3    0    0 -0.65654400551E+01 -0.34222652461E+01 -0.28730275015E+01  0.79417372040E+01  0.51100000000E-03 0. -1.
        -11    1    3    3    0    0 -0.64034128375E+01 -0.16541347181E+00 -0.72204492252E+01  0.96522507665E+01  0.51100000000E-03 0.  1.
         12    1    3    3    0    0  0.24596315214E+02  0.33056202275E+02  0.64701296579E+01  0.41707958579E+02  0.00000000000E+00 0. -1.
</event>
<event>
 7    1  0.7313719E-013  0.5930195E+02  0.7816164E-02  0.1266605E+00
        -11   -1    0    0    0    0  0.00000000000E+00  0.00000000000E+00  0.45593999997E+02  0.45594000000E+02  0.51100000000E-03 0.  1.
         11   -1    0    0    0    0 -0.00000000000E+00 -0.00000000000E+00 -0.45593999997E+02  0.45594000000E+02  0.51100000000E-03 0. -1.
    9900012    2    1    2    0    0 -0.12032113841E+02 -0.13989728253E+02 -0.26004541100E+02  0.59301946342E+02  0.50000004221E+02 0.  0.
        -12    1    1    2    0    0  0.12032113841E+02  0.13989728253E+02  0.26004541100E+02  0.31886053658E+02  0.00000000000E+00 0.  1.
         11    1    3    3    0    0 -0.79536967433E+00  0.10827569977E+02 -0.18161600579E+02  0.21159220694E+02  0.51100000000E-03 0. -1.
        -11    1    3    3    0    0 -0.10019747479E+02  0.19562033716E+01  0.30647842181E-01  0.10208967172E+02  0.51100000000E-03 0.  1.
        -12    1    3    3    0    0 -0.12169966878E+01 -0.26773501601E+02 -0.78735883632E+01  0.27933758476E+02  0.00000000000E+00 0.  1.
</event>
<event>
 7    1  0.7313719E-013  0.5930194E+02  0.7816164E-02  0.1266605E+00
        -11   -1    0    0    0    0  0.00000000000E+00  0.00000000000E+00  0.45593999997E+02  0.45594000000E+02  0.51100000000E-03 0.  1.
         11   -1    0    0    0    0 -0.00000000000E+00 -0.00000000000E+00 -0.45593999997E+02  0.45594000000E+02  0.51100000000E-03 0. -1.
    9900012    2    1    2    0    0 -0.10542402842E+02 -0.13297091303E+01 -0.30063438669E+02  0.59301941469E+02  0.49999995334E+02 0.  0.
        -12    1    1    2    0    0  0.10542402842E+02  0.13297091303E+01  0.30063438669E+02  0.31886058531E+02  0.00000000000E+00 0.  1.
         11    1    3    3    0    0 -0.36596900671E+01 -0.14240328975E+01  0.30081844280E+01  0.49467539756E+01  0.51100000000E-03 0. -1.
        -11    1    3    3    0    0 -0.16990897099E+02 -0.12526781301E+02 -0.45888052435E+01  0.21602499110E+02  0.51100000000E-03 0.  1.
         12    1    3    3    0    0  0.10108184324E+02  0.12621105068E+02 -0.28482817853E+02  0.32752688383E+02  0.00000000000E+00 0. -1.
</event>
<event>
 7    1  0.7313719E-013  0.5930192E+02  0.7816164E-02  0.1266605E+00
        -11   -1    0    0    0    0  0.00000000000E+00  0.00000000000E+00  0.45593999997E+02  0.45594000000E+02  0.51100000000E-03 0. -1.
         11   -1    0    0    0    0 -0.00000000000E+00 -0.00000000000E+00 -0.45593999997E+02  0.45594000000E+02  0.51100000000E-03 0.  1.
    9900012    2    1    2    0    0 -0.17949562115E+02  0.26226663703E+02  0.25879222350E+01  0.59301921367E+02  0.49999958672E+02 0.  0.
        -12    1    1    2    0    0  0.17949562115E+02 -0.26226663703E+02 -0.25879222350E+01  0.31886078633E+02  0.00000000000E+00 0.  1.
         11    1    3    3    0    0 -0.11716304998E+02  0.12808001588E+01  0.16327481613E+02  0.20137003450E+02  0.51100000000E-03 0. -1.
        -11    1    3    3    0    0 -0.28642937002E+01 -0.91517837706E+00  0.58298390817E+01  0.65596306178E+01  0.51100000000E-03 0.  1.
        -12    1    3    3    0    0 -0.33689634169E+01  0.25861041921E+02 -0.19569398460E+02  0.32605287299E+02  0.00000000000E+00 0.  1.
</event>
<event>
 7    1  0.7313719E-013  0.5930216E+02  0.7816164E-02  0.1266604E+00
        -11   -1    0    0    0    0  0.00000000000E+00  0.00000000000E+00  0.45593999997E+02  0.45594000000E+02  0.51100000000E-03 0. -1.
         11   -1    0    0    0    0 -0.00000000000E+00 -0.00000000000E+00 -0.45593999997E+02  0.45594000000E+02  0.51100000000E-03 0.  1.
    9900012    2    1    2    0    0  0.84864164794E+01 -0.21838376630E+02  0.21628060191E+02  0.59302157591E+02  0.50000389487E+02 0.  0.
        -12    1    1    2    0    0 -0.84864164794E+01  0.21838376630E+02 -0.21628060191E+02  0.31885842409E+02  0.00000000000E+00 0.  1.
         11    1    3    3    0    0 -0.94988389984E+01 -0.13321516853E+02  0.15040664448E+02  0.22224138699E+02  0.51100000000E-03 0. -1.
        -11    1    3    3    0    0 -0.81377811863E+01 -0.98690632968E+00  0.54963161766E+01  0.98694963657E+01  0.51100000000E-03 0.  1.
        -12    1    3    3    0    0  0.26123036664E+02 -0.75299534471E+01  0.10910795658E+01  0.27208522527E+02  0.00000000000E+00 0.  1.
</event>
<event>
 7    1  0.7313719E-013  0.5930212E+02  0.7816164E-02  0.1266604E+00
        -11   -1    0    0    0    0  0.00000000000E+00  0.00000000000E+00  0.45593999997E+02  0.45594000000E+02  0.51100000000E-03 0. -1.
         11   -1    0    0    0    0 -0.00000000000E+00 -0.00000000000E+00 -0.45593999997E+02  0.45594000000E+02  0.51100000000E-03 0.  1.
    9900012    2    1    2    0    0 -0.25245026506E+02 -0.19189438275E+01 -0.19383386987E+02  0.59302119115E+02  0.50000319316E+02 0.  0.
        -12    1    1    2    0    0  0.25245026506E+02  0.19189438275E+01  0.19383386987E+02  0.31885880885E+02  0.00000000000E+00 0.  1.
         11    1    3    3    0    0 -0.26279608715E+01  0.13966404120E+02 -0.78926160541E+01  0.16256076120E+02  0.51100000000E-03 0. -1.
        -11    1    3    3    0    0  0.62589033992E+00  0.78146219699E+01 -0.47716476623E+01  0.91776182599E+01  0.51100000000E-03 0.  1.
         12    1    3    3    0    0 -0.23242955975E+02 -0.23699969917E+02 -0.67191232709E+01  0.33868424735E+02  0.00000000000E+00 0. -1.
</event>
<event>
 7    1  0.7313719E-013  0.5930197E+02  0.7816164E-02  0.1266605E+00
        -11   -1    0    0    0    0  0.00000000000E+00  0.00000000000E+00  0.45593999997E+02  0.45594000000E+02  0.51100000000E-03 0.  1.
         11   -1    0    0    0    0 -0.00000000000E+00 -0.00000000000E+00 -0.45593999997E+02  0.45594000000E+02  0.51100000000E-03 0. -1.
    9900012    2    1    2    0    0 -0.16590458571E+02  0.23322733631E+02 -0.14054382469E+02  0.59301970360E+02  0.50000048024E+02 0.  0.
        -12    1    1    2    0    0  0.16590458571E+02 -0.23322733631E+02  0.14054382469E+02  0.31886029640E+02  0.00000000000E+00 0.  1.
         11    1    3    3    0    0 -0.18924542551E+02  0.17761285368E+01  0.83446783721E+00  0.19026015878E+02  0.51100000000E-03 0.  1.
        -11    1    3    3    0    0 -0.10028308920E+02 -0.60360063755E+00 -0.10500870939E+02  0.14532708085E+02  0.51100000000E-03 0. -1.
        -12    1    3    3    0    0  0.12362392900E+02  0.22150205732E+02 -0.43879793664E+01  0.25743246398E+02  0.00000000000E+00 0.  1.
</event>
<event>
 7    1  0.7313719E-013  0.5930196E+02  0.7816164E-02  0.1266605E+00
        -11   -1    0    0    0    0  0.00000000000E+00  0.00000000000E+00  0.45593999997E+02  0.45594000000E+02  0.51100000000E-03 0.  1.
         11   -1    0    0    0    0 -0.00000000000E+00 -0.00000000000E+00 -0.45593999997E+02  0.45594000000E+02  0.51100000000E-03 0. -1.
    9900012    2    1    2    0    0  0.14032644138E+02 -0.63679687780E+01 -0.27915107721E+02  0.59301962822E+02  0.50000034276E+02 0.  0.
        -12    1    1    2    0    0 -0.14032644138E+02  0.63679687780E+01  0.27915107721E+02  0.31886037178E+02  0.00000000000E+00 0.  1.
         11    1    3    3    0    0  0.20578347238E+02 -0.19863306385E+01 -0.82771027973E+01  0.22269358218E+02  0.51100000000E-03 0. -1.
        -11    1    3    3    0    0 -0.13257572744E+02  0.85747626807E+01 -0.14850766401E+02  0.21675678837E+02  0.51100000000E-03 0.  1.
         12    1    3    3    0    0  0.67118696438E+01 -0.12956400820E+02 -0.47872385229E+01  0.15356925767E+02  0.00000000000E+00 0. -1.
</event>
<event>
 7    1  0.7313719E-013  0.5930193E+02  0.7816164E-02  0.1266605E+00
        -11   -1    0    0    0    0  0.00000000000E+00  0.00000000000E+00  0.45593999997E+02  0.45594000000E+02  0.51100000000E-03 0.  1.
         11   -1    0    0    0    0 -0.00000000000E+00 -0.00000000000E+00 -0.45593999997E+02  0.45594000000E+02  0.51100000000E-03 0. -1.
    9900012    2    1    2    0    0 -0.27269058725E+02 -0.15731458698E+02 -0.50637057875E+01  0.59301929800E+02  0.49999974051E+02 0.  0.
        -12    1    1    2    0    0  0.27269058725E+02  0.15731458698E+02  0.50637057875E+01  0.31886070200E+02  0.00000000000E+00 0.  1.
         11    1    3    3    0    0 -0.24414744097E+02 -0.11742877996E+02 -0.15080656950E+02  0.31006469120E+02  0.51100000000E-03 0. -1.
        -11    1    3    3    0    0 -0.14427794729E+02 -0.35456426664E+01  0.50296135953E+01  0.15685338882E+02  0.51100000000E-03 0.  1.
        -12    1    3    3    0    0  0.11573480101E+02 -0.44293803566E+00  0.49873375676E+01  0.12610121798E+02  0.00000000000E+00 0.  1.
</event>
<event>
 7    1  0.1188315E-012  0.5930195E+02  0.7816164E-02  0.1266605E+00
        -11   -1    0    0    0    0  0.00000000000E+00  0.00000000000E+00  0.45593999997E+02  0.45594000000E+02  0.51100000000E-03 0. -1.
         11   -1    0    0    0    0 -0.00000000000E+00 -0.00000000000E+00 -0.45593999997E+02  0.45594000000E+02  0.51100000000E-03 0.  1.
    9900012    2    1    2    0    0 -0.18850190901E+02 -0.16896994446E+02  0.19387673580E+02  0.59301952814E+02  0.50000016024E+02 0.  0.
        -12    1    1    2    0    0  0.18850190901E+02  0.16896994446E+02 -0.19387673580E+02  0.31886047186E+02  0.00000000000E+00 0.  1.
         11    1    3    3    0    0 -0.21304400504E+02 -0.15436235185E+02  0.32452133634E+01  0.26508229808E+02  0.51100000000E-03 0. -1.
        -11    1    3    3    0    0 -0.38078031998E+01  0.59510394765E+01 -0.55799255644E+01  0.90027665539E+01  0.51100000000E-03 0.  1.
         12    1    3    3    0    0  0.62620128032E+01 -0.74117987376E+01  0.21722385781E+02  0.23790956452E+02  0.00000000000E+00 0. -1.
</event>
<event>
 7    1  0.7313719E-013  0.5930196E+02  0.7816164E-02  0.1266605E+00
        -11   -1    0    0    0    0  0.00000000000E+00  0.00000000000E+00  0.45593999997E+02  0.45594000000E+02  0.51100000000E-03 0. -1.
         11   -1    0    0    0    0 -0.00000000000E+00 -0.00000000000E+00 -0.45593999997E+02  0.45594000000E+02  0.51100000000E-03 0.  1.
    9900012    2    1    2    0    0 -0.82330320224E+01 -0.27207425842E+02  0.14446206373E+02  0.59301957351E+02  0.50000024298E+02 0.  0.
        -12    1    1    2    0    0  0.82330320224E+01  0.27207425842E+02 -0.14446206373E+02  0.31886042649E+02  0.00000000000E+00 0.  1.
         11    1    3    3    0    0  0.10861179327E+01  0.57754907496E+01 -0.14739797796E+01  0.60587591315E+01  0.51100000000E-03 0.  1.
        -11    1    3    3    0    0  0.57822889757E+01 -0.11234877245E+02  0.22639502276E+02  0.25926904869E+02  0.51100000000E-03 0. -1.
         12    1    3    3    0    0 -0.15101438931E+02 -0.21748039347E+02 -0.67193161235E+01  0.27316293350E+02  0.00000000000E+00 0. -1.
</event>
<event>
 7    1  0.7313719E-013  0.5930198E+02  0.7816164E-02  0.1266605E+00
        -11   -1    0    0    0    0  0.00000000000E+00  0.00000000000E+00  0.45593999997E+02  0.45594000000E+02  0.51100000000E-03 0. -1.
         11   -1    0    0    0    0 -0.00000000000E+00 -0.00000000000E+00 -0.45593999997E+02  0.45594000000E+02  0.51100000000E-03 0.  1.
    9900012    2    1    2    0    0 -0.89189621823E+00 -0.92428658076E+01  0.30503973929E+02  0.59301976844E+02  0.50000059850E+02 0.  0.
        -12    1    1    2    0    0  0.89189621823E+00  0.92428658076E+01 -0.30503973929E+02  0.31886023156E+02  0.00000000000E+00 0.  1.
         11    1    3    3    0    0 -0.52778771126E+01  0.17348872435E+01  0.23529750297E+02  0.24176744402E+02  0.51100000000E-03 0. -1.
        -11    1    3    3    0    0 -0.11460312785E+02 -0.88149660545E+01  0.11533361501E+02  0.18494886413E+02  0.51100000000E-03 0.  1.
        -12    1    3    3    0    0  0.15846293679E+02 -0.21627869966E+01 -0.45591378687E+01  0.16630346030E+02  0.00000000000E+00 0.  1.
</event>
<event>
 7    1  0.7313719E-013  0.5930185E+02  0.7816164E-02  0.1266605E+00
        -11   -1    0    0    0    0  0.00000000000E+00  0.00000000000E+00  0.45593999997E+02  0.45594000000E+02  0.51100000000E-03 0. -1.
         11   -1    0    0    0    0 -0.00000000000E+00 -0.00000000000E+00 -0.45593999997E+02  0.45594000000E+02  0.51100000000E-03 0.  1.
    9900012    2    1    2    0    0  0.26317836032E+02  0.10502276575E+02  0.14621914286E+02  0.59301848083E+02  0.49999825020E+02 0.  0.
        -12    1    1    2    0    0 -0.26317836032E+02 -0.10502276575E+02 -0.14621914286E+02  0.31886151917E+02  0.00000000000E+00 0.  1.
         11    1    3    3    0    0  0.11199755178E+02 -0.45755079594E+01  0.63733015908E+00  0.12115113665E+02  0.51100000000E-03 0. -1.
        -11    1    3    3    0    0  0.79393167703E+00 -0.12231918334E+02 -0.20515545013E+01  0.12428154721E+02  0.51100000000E-03 0.  1.
         12    1    3    3    0    0  0.14324149177E+02  0.27309702869E+02  0.16036138628E+02  0.34758579697E+02  0.00000000000E+00 0. -1.
</event>
<event>
 7    1  0.7313719E-013  0.5930181E+02  0.7816164E-02  0.1266605E+00
        -11   -1    0    0    0    0  0.00000000000E+00  0.00000000000E+00  0.45593999997E+02  0.45594000000E+02  0.51100000000E-03 0.  1.
         11   -1    0    0    0    0 -0.00000000000E+00 -0.00000000000E+00 -0.45593999997E+02  0.45594000000E+02  0.51100000000E-03 0. -1.
    9900012    2    1    2    0    0 -0.25155842577E+02  0.73794329347E+01 -0.18150942011E+02  0.59301809539E+02  0.49999754724E+02 0.  0.
        -12    1    1    2    0    0  0.25155842577E+02 -0.73794329347E+01  0.18150942011E+02  0.31886190461E+02  0.00000000000E+00 0.  1.
         11    1    3    3    0    0 -0.14119532550E+02 -0.76194270663E+01  0.94040861572E+01  0.18597142387E+02  0.51100000000E-03 0. -1.
        -11    1    3    3    0    0  0.44792252837E+01  0.39282878511E+01  0.13237318537E+01  0.61030460317E+01  0.51100000000E-03 0.  1.
         12    1    3    3    0    0 -0.15515535311E+02  0.11070572150E+02 -0.28878760022E+02  0.34601621120E+02  0.00000000000E+00 0. -1.
</event>
<event>
 7    1  0.7313719E-013  0.5930192E+02  0.7816164E-02  0.1266605E+00
        -11   -1    0    0    0    0  0.00000000000E+00  0.00000000000E+00  0.45593999997E+02  0.45594000000E+02  0.51100000000E-03 0.  1.
         11   -1    0    0    0    0 -0.00000000000E+00 -0.00000000000E+00 -0.45593999997E+02  0.45594000000E+02  0.51100000000E-03 0. -1.
    9900012    2    1    2    0    0  0.28330587510E+02  0.40583340775E+01  0.14058080818E+02  0.59301923094E+02  0.49999961823E+02 0.  0.
        -12    1    1    2    0    0 -0.28330587510E+02 -0.40583340775E+01 -0.14058080818E+02  0.31886076906E+02  0.00000000000E+00 0.  1.
         11    1    3    3    0    0 -0.28533378806E+00  0.33708001404E+01  0.10766293843E+02  0.11285246667E+02  0.51100000000E-03 0. -1.
        -11    1    3    3    0    0  0.98184673376E+01 -0.17511287308E+02  0.76658445509E+01  0.21489826826E+02  0.51100000000E-03 0.  1.
         12    1    3    3    0    0  0.18797453961E+02  0.18198821245E+02 -0.43740575765E+01  0.26526849602E+02  0.00000000000E+00 0. -1.
</event>
<event>
 7    1  0.7313719E-013  0.5930178E+02  0.7816164E-02  0.1266605E+00
        -11   -1    0    0    0    0  0.00000000000E+00  0.00000000000E+00  0.45593999997E+02  0.45594000000E+02  0.51100000000E-03 0.  1.
         11   -1    0    0    0    0 -0.00000000000E+00 -0.00000000000E+00 -0.45593999997E+02  0.45594000000E+02  0.51100000000E-03 0. -1.
    9900012    2    1    2    0    0 -0.23823677997E+02 -0.62882620670E+01 -0.20239092985E+02  0.59301784201E+02  0.49999708513E+02 0.  0.
        -12    1    1    2    0    0  0.23823677997E+02  0.62882620670E+01  0.20239092985E+02  0.31886215799E+02  0.00000000000E+00 0.  1.
         11    1    3    3    0    0 -0.18240300066E+02 -0.40665525039E+01 -0.10785204771E+02  0.21576979352E+02  0.51100000000E-03 0.  1.
        -11    1    3    3    0    0 -0.59043307104E+01 -0.18441064239E+02 -0.93487542196E+01  0.21501934265E+02  0.51100000000E-03 0. -1.
        -12    1    3    3    0    0  0.32095277952E+00  0.16219354676E+02 -0.10513399497E+00  0.16222870583E+02  0.00000000000E+00 0.  1.
</event>
<event>
 7    1  0.7313719E-013  0.5930192E+02  0.7816164E-02  0.1266605E+00
        -11   -1    0    0    0    0  0.00000000000E+00  0.00000000000E+00  0.45593999997E+02  0.45594000000E+02  0.51100000000E-03 0.  1.
         11   -1    0    0    0    0 -0.00000000000E+00 -0.00000000000E+00 -0.45593999997E+02  0.45594000000E+02  0.51100000000E-03 0. -1.
    9900012    2    1    2    0    0  0.25597004372E+02  0.17250614102E+02 -0.79957305710E+01  0.59301921108E+02  0.49999958201E+02 0.  0.
        -12    1    1    2    0    0 -0.25597004372E+02 -0.17250614102E+02  0.79957305710E+01  0.31886078892E+02  0.00000000000E+00 0.  1.
         11    1    3    3    0    0  0.25356903420E+02 -0.10160055295E+01  0.40005019810E+01  0.25690637101E+02  0.51100000000E-03 0. -1.
        -11    1    3    3    0    0 -0.11940305872E+01 -0.17337564073E+01  0.61916254779E+01  0.65397130398E+01  0.51100000000E-03 0.  1.
         12    1    3    3    0    0  0.14341315395E+01  0.20000376038E+02 -0.18187858030E+02  0.27071570968E+02  0.00000000000E+00 0. -1.
</event>
<event>
 7    1  0.7313719E-013  0.5930194E+02  0.7816164E-02  0.1266605E+00
        -11   -1    0    0    0    0  0.00000000000E+00  0.00000000000E+00  0.45593999997E+02  0.45594000000E+02  0.51100000000E-03 0.  1.
         11   -1    0    0    0    0 -0.00000000000E+00 -0.00000000000E+00 -0.45593999997E+02  0.45594000000E+02  0.51100000000E-03 0. -1.
    9900012    2    1    2    0    0 -0.31129867236E+02  0.35256756232E+01  0.59348187397E+01  0.59301935705E+02  0.49999984821E+02 0.  0.
        -12    1    1    2    0    0  0.31129867236E+02 -0.35256756232E+01 -0.59348187397E+01  0.31886064295E+02  0.00000000000E+00 0.  1.
         11    1    3    3    0    0 -0.14526598570E+02  0.21597618668E+01 -0.15490012699E+02  0.21345424124E+02  0.51100000000E-03 0. -1.
        -11    1    3    3    0    0  0.62927028157E+01 -0.44347466113E+01  0.47837623475E+01  0.90636344085E+01  0.51100000000E-03 0.  1.
         12    1    3    3    0    0 -0.22895971482E+02  0.58006603678E+01  0.16641069092E+02  0.28892877173E+02  0.00000000000E+00 0. -1.
</event>
<event>
 7    1  0.7313719E-013  0.5930193E+02  0.7816164E-02  0.1266605E+00
        -11   -1    0    0    0    0  0.00000000000E+00  0.00000000000E+00  0.45593999997E+02  0.45594000000E+02  0.51100000000E-03 0. -1.
         11   -1    0    0    0    0 -0.00000000000E+00 -0.00000000000E+00 -0.45593999997E+02  0.45594000000E+02  0.51100000000E-03 0.  1.
    9900012    2    1    2    0    0 -0.11001011169E+02  0.44216567062E+00  0.29924966934E+02  0.59301930892E+02  0.49999976043E+02 0.  0.
        -12    1    1    2    0    0  0.11001011169E+02 -0.44216567062E+00 -0.29924966934E+02  0.31886069108E+02  0.00000000000E+00 0.  1.
         11    1    3    3    0    0 -0.10646394319E+02  0.91814062610E+01  0.19593725794E+02  0.24115514170E+02  0.51100000000E-03 0. -1.
        -11    1    3    3    0    0 -0.95521579952E+01  0.91714902983E+01  0.62477983861E+01  0.14642231442E+02  0.51100000000E-03 0.  1.
         12    1    3    3    0    0  0.91975411458E+01 -0.17910730889E+02  0.40834427537E+01  0.20544185280E+02  0.00000000000E+00 0. -1.
</event>
<event>
 7    1  0.7313719E-013  0.5930188E+02  0.7816164E-02  0.1266605E+00
        -11   -1    0    0    0    0  0.00000000000E+00  0.00000000000E+00  0.45593999997E+02  0.45594000000E+02  0.51100000000E-03 0.  1.
         11   -1    0    0    0    0 -0.00000000000E+00 -0.00000000000E+00 -0.45593999997E+02  0.45594000000E+02  0.51100000000E-03 0. -1.
    9900012    2    1    2    0    0  0.28865842265E+02 -0.10962229294E+02 -0.79572350174E+01  0.59301875904E+02  0.49999875758E+02 0.  0.
        -12    1    1    2    0    0 -0.28865842265E+02  0.10962229294E+02  0.79572350174E+01  0.31886124096E+02  0.00000000000E+00 0.  1.
         11    1    3    3    0    0  0.13006703275E+02  0.36761913448E+01 -0.70382783438E+01  0.15238965686E+02  0.51100000000E-03 0. -1.
        -11    1    3    3    0    0  0.78388205827E+01  0.12274041134E+02  0.49351368994E+01  0.15377085886E+02  0.51100000000E-03 0.  1.
         12    1    3    3    0    0  0.80203184080E+01 -0.26912461772E+02 -0.58540935730E+01  0.28685824331E+02  0.00000000000E+00 0. -1.
</event>
<event>
 7    1  0.7313719E-013  0.5930205E+02  0.7816164E-02  0.1266604E+00
        -11   -1    0    0    0    0  0.00000000000E+00  0.00000000000E+00  0.45593999997E+02  0.45594000000E+02  0.51100000000E-03 0.  1.
         11   -1    0    0    0    0 -0.00000000000E+00 -0.00000000000E+00 -0.45593999997E+02  0.45594000000E+02  0.51100000000E-03 0. -1.
    9900012    2    1    2    0    0 -0.39478067034E+01  0.14027518791E+02 -0.28361194693E+02  0.59302049714E+02  0.50000192746E+02 0.  0.
        -12    1    1    2    0    0  0.39478067034E+01 -0.14027518791E+02  0.28361194693E+02  0.31885950286E+02  0.00000000000E+00 0.  1.
         11    1    3    3    0    0  0.38439738506E+01  0.27759742805E+01 -0.68354845402E+01  0.83190154063E+01  0.51100000000E-03 0. -1.
        -11    1    3    3    0    0  0.12482764907E+02 -0.66500479028E+01 -0.19185336799E+02  0.23835261802E+02  0.51100000000E-03 0.  1.
         12    1    3    3    0    0 -0.20274545461E+02  0.17901592413E+02 -0.23403733545E+01  0.27147772506E+02  0.00000000000E+00 0. -1.
</event>
<event>
 7    1  0.7313719E-013  0.5930194E+02  0.7816164E-02  0.1266605E+00
        -11   -1    0    0    0    0  0.00000000000E+00  0.00000000000E+00  0.45593999997E+02  0.45594000000E+02  0.51100000000E-03 0.  1.
         11   -1    0    0    0    0 -0.00000000000E+00 -0.00000000000E+00 -0.45593999997E+02  0.45594000000E+02  0.51100000000E-03 0. -1.
    9900012    2    1    2    0    0 -0.27958075156E+02 -0.11141424904E+02 -0.10532579804E+02  0.59301944229E+02  0.50000000367E+02 0.  0.
        -12    1    1    2    0    0  0.27958075156E+02  0.11141424904E+02  0.10532579804E+02  0.31886055771E+02  0.00000000000E+00 0.  1.
         11    1    3    3    0    0 -0.76497620467E+01 -0.94321489532E+01 -0.14613894428E+02  0.19001321108E+02  0.51100000000E-03 0. -1.
        -11    1    3    3    0    0 -0.60089770710E+01  0.37576641206E+01 -0.14551420530E+02  0.16185539373E+02  0.51100000000E-03 0.  1.
        -12    1    3    3    0    0 -0.14299336038E+02 -0.54669400716E+01  0.18632735154E+02  0.24115083748E+02  0.00000000000E+00 0.  1.
</event>
<event>
 7    1  0.7313719E-013  0.5930193E+02  0.7816164E-02  0.1266605E+00
        -11   -1    0    0    0    0  0.00000000000E+00  0.00000000000E+00  0.45593999997E+02  0.45594000000E+02  0.51100000000E-03 0.  1.
         11   -1    0    0    0    0 -0.00000000000E+00 -0.00000000000E+00 -0.45593999997E+02  0.45594000000E+02  0.51100000000E-03 0. -1.
    9900012    2    1    2    0    0  0.91854351849E+01  0.11183417566E+02 -0.28412680273E+02  0.59301930185E+02  0.49999974753E+02 0.  0.
        -12    1    1    2    0    0 -0.91854351849E+01 -0.11183417566E+02  0.28412680273E+02  0.31886069815E+02  0.00000000000E+00 0.  1.
         11    1    3    3    0    0  0.29953967949E+01  0.10641250624E+02 -0.38347939111E+00  0.11061449883E+02  0.51100000000E-03 0. -1.
        -11    1    3    3    0    0  0.26529981979E+01  0.17658564849E+02 -0.36216388070E+01  0.18220306800E+02  0.51100000000E-03 0.  1.
         12    1    3    3    0    0  0.35370401921E+01 -0.17116397907E+02 -0.24407562075E+02  0.30020173502E+02  0.00000000000E+00 0. -1.
</event>
<event>
 7    1  0.7313719E-013  0.5930193E+02  0.7816164E-02  0.1266605E+00
        -11   -1    0    0    0    0  0.00000000000E+00  0.00000000000E+00  0.45593999997E+02  0.45594000000E+02  0.51100000000E-03 0.  1.
         11   -1    0    0    0    0 -0.00000000000E+00 -0.00000000000E+00 -0.45593999997E+02  0.45594000000E+02  0.51100000000E-03 0. -1.
    9900012    2    1    2    0    0 -0.52869013368E+01 -0.17012337197E+02 -0.26445232203E+02  0.59301933311E+02  0.49999980454E+02 0.  0.
        -12    1    1    2    0    0  0.52869013368E+01  0.17012337197E+02  0.26445232203E+02  0.31886066689E+02  0.00000000000E+00 0.  1.
         11    1    3    3    0    0  0.45996334345E+00 -0.14386398984E+02 -0.19494196999E+02  0.24232287529E+02  0.51100000000E-03 0. -1.
        -11    1    3    3    0    0 -0.62148392105E+01 -0.13977747427E-01 -0.20418436523E+02  0.21343312116E+02  0.51100000000E-03 0.  1.
        -12    1    3    3    0    0  0.46797453028E+00 -0.26119604647E+01  0.13467401318E+02  0.13726333665E+02  0.00000000000E+00 0.  1.
</event>
<event>
 7    1  0.7313719E-013  0.5930196E+02  0.7816164E-02  0.1266605E+00
        -11   -1    0    0    0    0  0.00000000000E+00  0.00000000000E+00  0.45593999997E+02  0.45594000000E+02  0.51100000000E-03 0. -1.
         11   -1    0    0    0    0 -0.00000000000E+00 -0.00000000000E+00 -0.45593999997E+02  0.45594000000E+02  0.51100000000E-03 0.  1.
    9900012    2    1    2    0    0  0.25974233227E+02  0.13139633429E+02  0.13015704324E+02  0.59301963598E+02  0.50000035691E+02 0.  0.
        -12    1    1    2    0    0 -0.25974233227E+02 -0.13139633429E+02 -0.13015704324E+02  0.31886036402E+02  0.00000000000E+00 0.  1.
         11    1    3    3    0    0  0.15775341738E+02  0.26325095247E+02  0.14717871680E+00  0.30690286876E+02  0.51100000000E-03 0. -1.
        -11    1    3    3    0    0  0.42487990494E+01 -0.35885126330E+01 -0.49971395064E+01  0.74767051424E+01  0.51100000000E-03 0.  1.
         12    1    3    3    0    0  0.59500924403E+01 -0.95969491847E+01  0.17865665114E+02  0.21134971579E+02  0.00000000000E+00 0. -1.
</event>
<event>
 7    1  0.7313719E-013  0.5930199E+02  0.7816164E-02  0.1266605E+00
        -11   -1    0    0    0    0  0.00000000000E+00  0.00000000000E+00  0.45593999997E+02  0.45594000000E+02  0.51100000000E-03 0.  1.
         11   -1    0    0    0    0 -0.00000000000E+00 -0.00000000000E+00 -0.45593999997E+02  0.45594000000E+02  0.51100000000E-03 0. -1.
    9900012    2    1    2    0    0  0.24495915944E+02  0.38854047241E+01 -0.20039253496E+02  0.59301985064E+02  0.50000074841E+02 0.  0.
        -12    1    1    2    0    0 -0.24495915944E+02 -0.38854047241E+01  0.20039253496E+02  0.31886014936E+02  0.00000000000E+00 0.  1.
         11    1    3    3    0    0  0.38798396304E+01 -0.90973004935E+01 -0.59088899757E+01  0.11520807820E+02  0.51100000000E-03 0. -1.
        -11    1    3    3    0    0  0.69012712365E+01 -0.11650248916E+02 -0.14153356758E+02  0.19587581583E+02  0.51100000000E-03 0.  1.
        -12    1    3    3    0    0  0.13714805077E+02  0.24632954133E+02  0.22993237969E-01  0.28193595661E+02  0.00000000000E+00 0.  1.
</event>
<event>
 7    1  0.7313719E-013  0.5930187E+02  0.7816164E-02  0.1266605E+00
        -11   -1    0    0    0    0  0.00000000000E+00  0.00000000000E+00  0.45593999997E+02  0.45594000000E+02  0.51100000000E-03 0.  1.
         11   -1    0    0    0    0 -0.00000000000E+00 -0.00000000000E+00 -0.45593999997E+02  0.45594000000E+02  0.51100000000E-03 0. -1.
    9900012    2    1    2    0    0 -0.33918272888E+01  0.99377849314E+01 -0.30107489202E+02  0.59301874996E+02  0.49999874103E+02 0.  0.
        -12    1    1    2    0    0  0.33918272888E+01 -0.99377849314E+01  0.30107489202E+02  0.31886125004E+02  0.00000000000E+00 0.  1.
         11    1    3    3    0    0 -0.10354770257E+02 -0.56108311248E+01  0.80836134832E+00  0.11804920216E+02  0.51100000000E-03 0. -1.
        -11    1    3    3    0    0 -0.12509594035E+02  0.34470872605E+01 -0.13328054579E+02  0.18601327711E+02  0.51100000000E-03 0.  1.
        -12    1    3    3    0    0  0.19472537003E+02  0.12101528796E+02 -0.17587795972E+02  0.28895627069E+02  0.00000000000E+00 0.  1.
</event>
<event>
 7    1  0.7313719E-013  0.5930193E+02  0.7816164E-02  0.1266605E+00
        -11   -1    0    0    0    0  0.00000000000E+00  0.00000000000E+00  0.45593999997E+02  0.45594000000E+02  0.51100000000E-03 0.  1.
         11   -1    0    0    0    0 -0.00000000000E+00 -0.00000000000E+00 -0.45593999997E+02  0.45594000000E+02  0.51100000000E-03 0. -1.
    9900012    2    1    2    0    0 -0.23477272818E+02  0.19080336094E+02 -0.10073711986E+02  0.59301933488E+02  0.49999980779E+02 0.  0.
        -12    1    1    2    0    0  0.23477272818E+02 -0.19080336094E+02  0.10073711986E+02  0.31886066512E+02  0.00000000000E+00 0.  1.
         11    1    3    3    0    0  0.40156692149E+01  0.86827827328E+01 -0.62201261548E+01  0.11410796855E+02  0.51100000000E-03 0. -1.
        -11    1    3    3    0    0  0.95006094269E+01  0.27445294130E+01 -0.18540634940E+01  0.10061390206E+02  0.51100000000E-03 0.  1.
        -12    1    3    3    0    0 -0.36993551460E+02  0.76530239481E+01 -0.19995223373E+01  0.37829746427E+02  0.00000000000E+00 0.  1.
</event>
<event>
 7    1  0.7313719E-013  0.5930196E+02  0.7816164E-02  0.1266605E+00
        -11   -1    0    0    0    0  0.00000000000E+00  0.00000000000E+00  0.45593999997E+02  0.45594000000E+02  0.51100000000E-03 0. -1.
         11   -1    0    0    0    0 -0.00000000000E+00 -0.00000000000E+00 -0.45593999997E+02  0.45594000000E+02  0.51100000000E-03 0.  1.
    9900012    2    1    2    0    0  0.28520284602E+01 -0.19883469059E+02  0.24763549916E+02  0.59301955833E+02  0.50000021530E+02 0.  0.
        -12    1    1    2    0    0 -0.28520284602E+01  0.19883469059E+02 -0.24763549916E+02  0.31886044167E+02  0.00000000000E+00 0.  1.
         11    1    3    3    0    0  0.48118970004E+00 -0.11322658932E+02  0.33413528478E+02  0.35283112596E+02  0.51100000000E-03 0. -1.
        -11    1    3    3    0    0  0.89056506643E+01 -0.37908260856E+01  0.27295270948E+01  0.10056405650E+02  0.51100000000E-03 0.  1.
        -12    1    3    3    0    0 -0.65348119041E+01 -0.47699840414E+01 -0.11379505657E+02  0.13962437587E+02  0.00000000000E+00 0.  1.
</event>
<event>
 7    1  0.7313719E-013  0.5930160E+02  0.7816164E-02  0.1266606E+00
        -11   -1    0    0    0    0  0.00000000000E+00  0.00000000000E+00  0.45593999997E+02  0.45594000000E+02  0.51100000000E-03 0.  1.
         11   -1    0    0    0    0 -0.00000000000E+00 -0.00000000000E+00 -0.45593999997E+02  0.45594000000E+02  0.51100000000E-03 0. -1.
    9900012    2    1    2    0    0 -0.80505267947E+01  0.12465999435E+02 -0.28222869119E+02  0.59301600628E+02  0.49999373717E+02 0.  0.
        -12    1    1    2    0    0  0.80505267947E+01 -0.12465999435E+02  0.28222869119E+02  0.31886399372E+02  0.00000000000E+00 0.  1.
         11    1    3    3    0    0 -0.20549684683E+01 -0.31888071778E+01  0.36273442451E+01  0.52487153816E+01  0.51100000000E-03 0. -1.
        -11    1    3    3    0    0 -0.90516496679E+01 -0.91313223264E+01  0.87478900659E+00  0.12887151167E+02  0.51100000000E-03 0.  1.
         12    1    3    3    0    0  0.30560913415E+01  0.24786128939E+02 -0.32725002371E+02  0.41165734079E+02  0.00000000000E+00 0. -1.
</event>
<event>
 7    1  0.7313719E-013  0.5930195E+02  0.7816164E-02  0.1266605E+00
        -11   -1    0    0    0    0  0.00000000000E+00  0.00000000000E+00  0.45593999997E+02  0.45594000000E+02  0.51100000000E-03 0. -1.
         11   -1    0    0    0    0 -0.00000000000E+00 -0.00000000000E+00 -0.45593999997E+02  0.45594000000E+02  0.51100000000E-03 0.  1.
    9900012    2    1    2    0    0 -0.25445893524E+02  0.14174618302E+02  0.12973324026E+02  0.59301946034E+02  0.50000003659E+02 0.  0.
        -12    1    1    2    0    0  0.25445893524E+02 -0.14174618302E+02 -0.12973324026E+02  0.31886053966E+02  0.00000000000E+00 0.  1.
         11    1    3    3    0    0  0.43453245614E+01  0.14127651821E+02 -0.13776283193E+01  0.14844872905E+02  0.51100000000E-03 0.  1.
        -11    1    3    3    0    0  0.13638511369E+01  0.77774950786E+01  0.88997049147E+01  0.11897658066E+02  0.51100000000E-03 0. -1.
         12    1    3    3    0    0 -0.31155069223E+02 -0.77305285981E+01  0.54512474309E+01  0.32559415063E+02  0.00000000000E+00 0. -1.
</event>
<event>
 7    1  0.7313719E-013  0.5930197E+02  0.7816164E-02  0.1266605E+00
        -11   -1    0    0    0    0  0.00000000000E+00  0.00000000000E+00  0.45593999997E+02  0.45594000000E+02  0.51100000000E-03 0.  1.
         11   -1    0    0    0    0 -0.00000000000E+00 -0.00000000000E+00 -0.45593999997E+02  0.45594000000E+02  0.51100000000E-03 0. -1.
    9900012    2    1    2    0    0 -0.10549083156E+02  0.12683103084E+02 -0.27286899513E+02  0.59301966312E+02  0.50000040642E+02 0.  0.
        -12    1    1    2    0    0  0.10549083156E+02 -0.12683103084E+02  0.27286899513E+02  0.31886033688E+02  0.00000000000E+00 0.  1.
         11    1    3    3    0    0 -0.19249900150E+01  0.98368524492E+01 -0.15317872315E+02  0.18305913394E+02  0.51100000000E-03 0. -1.
        -11    1    3    3    0    0 -0.18486129402E+02 -0.97938222468E+01 -0.13489033612E+02  0.24891965823E+02  0.51100000000E-03 0.  1.
         12    1    3    3    0    0  0.98620362609E+01  0.12640072882E+02  0.15200064146E+01  0.16104087095E+02  0.00000000000E+00 0. -1.
</event>
<event>
 7    1  0.7313719E-013  0.5930193E+02  0.7816164E-02  0.1266605E+00
        -11   -1    0    0    0    0  0.00000000000E+00  0.00000000000E+00  0.45593999997E+02  0.45594000000E+02  0.51100000000E-03 0.  1.
         11   -1    0    0    0    0 -0.00000000000E+00 -0.00000000000E+00 -0.45593999997E+02  0.45594000000E+02  0.51100000000E-03 0. -1.
    9900012    2    1    2    0    0  0.22901600802E+02  0.15086088569E+02 -0.16268011897E+02  0.59301927826E+02  0.49999970452E+02 0.  0.
        -12    1    1    2    0    0 -0.22901600802E+02 -0.15086088569E+02  0.16268011897E+02  0.31886072174E+02  0.00000000000E+00 0.  1.
         11    1    3    3    0    0  0.32011062536E+01  0.27067943387E+02 -0.42451151992E+01  0.27585170722E+02  0.51100000000E-03 0. -1.
        -11    1    3    3    0    0 -0.34573096960E+00 -0.83986845188E+01 -0.74583950757E+00  0.84388215044E+01  0.51100000000E-03 0.  1.
         12    1    3    3    0    0  0.20046225518E+02 -0.35831702995E+01 -0.11277057190E+02  0.23277935600E+02  0.00000000000E+00 0. -1.
</event>
<event>
 7    1  0.7313719E-013  0.5930192E+02  0.7816164E-02  0.1266605E+00
        -11   -1    0    0    0    0  0.00000000000E+00  0.00000000000E+00  0.45593999997E+02  0.45594000000E+02  0.51100000000E-03 0. -1.
         11   -1    0    0    0    0 -0.00000000000E+00 -0.00000000000E+00 -0.45593999997E+02  0.45594000000E+02  0.51100000000E-03 0.  1.
    9900012    2    1    2    0    0  0.88430849056E+01  0.29657395987E+02 -0.76785943113E+01  0.59301919997E+02  0.49999956174E+02 0.  0.
        -12    1    1    2    0    0 -0.88430849056E+01 -0.29657395987E+02  0.76785943113E+01  0.31886080003E+02  0.00000000000E+00 0.  1.
         11    1    3    3    0    0 -0.12858781056E+02  0.58258492800E+01 -0.26612034144E+00  0.14119475570E+02  0.51100000000E-03 0. -1.
        -11    1    3    3    0    0 -0.66753091059E+01  0.10989728374E+02 -0.54727922898E+01  0.13974453017E+02  0.51100000000E-03 0.  1.
        -12    1    3    3    0    0  0.28377175067E+02  0.12841818332E+02 -0.19396816800E+01  0.31207991411E+02  0.00000000000E+00 0.  1.
</event>
<event>
 7    1  0.7313719E-013  0.5930194E+02  0.7816164E-02  0.1266605E+00
        -11   -1    0    0    0    0  0.00000000000E+00  0.00000000000E+00  0.45593999997E+02  0.45594000000E+02  0.51100000000E-03 0. -1.
         11   -1    0    0    0    0 -0.00000000000E+00 -0.00000000000E+00 -0.45593999997E+02  0.45594000000E+02  0.51100000000E-03 0.  1.
    9900012    2    1    2    0    0  0.28767212055E+02  0.13228083856E+00  0.13753208305E+02  0.59301941505E+02  0.49999995400E+02 0.  0.
        -12    1    1    2    0    0 -0.28767212055E+02 -0.13228083856E+00 -0.13753208305E+02  0.31886058495E+02  0.00000000000E+00 0.  1.
         11    1    3    3    0    0 -0.17897844930E+01 -0.44871625417E+01  0.37229588905E+01  0.60990474149E+01  0.51100000000E-03 0. -1.
        -11    1    3    3    0    0 -0.53957559118E+01 -0.36264809957E+00 -0.10276220113E+02  0.11612338076E+02  0.51100000000E-03 0.  1.
         12    1    3    3    0    0  0.35952752460E+02  0.49820914799E+01  0.20306469528E+02  0.41590556015E+02  0.00000000000E+00 0. -1.
</event>
<event>
 7    1  0.7313719E-013  0.5930195E+02  0.7816164E-02  0.1266605E+00
        -11   -1    0    0    0    0  0.00000000000E+00  0.00000000000E+00  0.45593999997E+02  0.45594000000E+02  0.51100000000E-03 0.  1.
         11   -1    0    0    0    0 -0.00000000000E+00 -0.00000000000E+00 -0.45593999997E+02  0.45594000000E+02  0.51100000000E-03 0. -1.
    9900012    2    1    2    0    0  0.15089283177E+02 -0.93248922369E+01 -0.26496792670E+02  0.59301951266E+02  0.50000013202E+02 0.  0.
        -12    1    1    2    0    0 -0.15089283177E+02  0.93248922369E+01  0.26496792670E+02  0.31886048734E+02  0.00000000000E+00 0.  1.
         11    1    3    3    0    0 -0.11323931565E+02 -0.10737523397E+02 -0.13867886583E+02  0.20876879875E+02  0.51100000000E-03 0. -1.
        -11    1    3    3    0    0 -0.13946449956E+00  0.85401017585E+01 -0.10954119850E+01  0.86111971334E+01  0.51100000000E-03 0.  1.
        -12    1    3    3    0    0  0.26552679242E+02 -0.71274705986E+01 -0.11533494103E+02  0.29813874258E+02  0.00000000000E+00 0.  1.
</event>
<event>
 7    1  0.7313719E-013  0.5930195E+02  0.7816164E-02  0.1266605E+00
        -11   -1    0    0    0    0  0.00000000000E+00  0.00000000000E+00  0.45593999997E+02  0.45594000000E+02  0.51100000000E-03 0. -1.
         11   -1    0    0    0    0 -0.00000000000E+00 -0.00000000000E+00 -0.45593999997E+02  0.45594000000E+02  0.51100000000E-03 0.  1.
    9900012    2    1    2    0    0 -0.11121517097E+02 -0.97976874717E+01  0.28231848902E+02  0.59301951095E+02  0.50000012889E+02 0.  0.
        -12    1    1    2    0    0  0.11121517097E+02  0.97976874717E+01 -0.28231848902E+02  0.31886048905E+02  0.00000000000E+00 0.  1.
         11    1    3    3    0    0  0.63983852634E+01 -0.18113538022E+02  0.15889682446E+02  0.24930334979E+02  0.51100000000E-03 0.  1.
        -11    1    3    3    0    0  0.12396928613E+01 -0.72531675531E+00  0.13441473610E+02  0.13517993041E+02  0.51100000000E-03 0. -1.
        -12    1    3    3    0    0 -0.18759595222E+02  0.90411673055E+01 -0.10993071538E+01  0.20853623075E+02  0.00000000000E+00 0.  1.
</event>
<event>
 7    1  0.7313719E-013  0.5930190E+02  0.7816164E-02  0.1266605E+00
        -11   -1    0    0    0    0  0.00000000000E+00  0.00000000000E+00  0.45593999997E+02  0.45594000000E+02  0.51100000000E-03 0. -1.
         11   -1    0    0    0    0 -0.00000000000E+00 -0.00000000000E+00 -0.45593999997E+02  0.45594000000E+02  0.51100000000E-03 0.  1.
    9900012    2    1    2    0    0 -0.17025250043E+02  0.27654769547E+01  0.26818204285E+02  0.59301904553E+02  0.49999928007E+02 0.  0.
        -12    1    1    2    0    0  0.17025250043E+02 -0.27654769547E+01 -0.26818204285E+02  0.31886095447E+02  0.00000000000E+00 0.  1.
         11    1    3    3    0    0  0.65869938904E+01 -0.64212029669E+00  0.14913754783E+02  0.16316276811E+02  0.51100000000E-03 0. -1.
        -11    1    3    3    0    0  0.84248398627E+01 -0.22074411327E+01  0.35455011860E+01  0.94032601786E+01  0.51100000000E-03 0.  1.
        -12    1    3    3    0    0 -0.32037083796E+02  0.56150383841E+01  0.83589483161E+01  0.33582367563E+02  0.00000000000E+00 0.  1.
</event>
<event>
 7    1  0.7313719E-013  0.5930192E+02  0.7816164E-02  0.1266605E+00
        -11   -1    0    0    0    0  0.00000000000E+00  0.00000000000E+00  0.45593999997E+02  0.45594000000E+02  0.51100000000E-03 0.  1.
         11   -1    0    0    0    0 -0.00000000000E+00 -0.00000000000E+00 -0.45593999997E+02  0.45594000000E+02  0.51100000000E-03 0. -1.
    9900012    2    1    2    0    0  0.16202967714E+02  0.27348227025E+02 -0.25020195715E+01  0.59301924887E+02  0.49999965093E+02 0.  0.
        -12    1    1    2    0    0 -0.16202967714E+02 -0.27348227025E+02  0.25020195715E+01  0.31886075113E+02  0.00000000000E+00 0.  1.
         11    1    3    3    0    0  0.40975621292E+01  0.29855775428E+00 -0.10843464934E+02  0.11595683860E+02  0.51100000000E-03 0. -1.
        -11    1    3    3    0    0  0.15771231150E+02  0.22763419151E+01 -0.79727979758E+01  0.17817939620E+02  0.51100000000E-03 0.  1.
        -12    1    3    3    0    0 -0.36658255644E+01  0.24773327355E+02  0.16314243338E+02  0.29888301407E+02  0.00000000000E+00 0.  1.
</event>
<event>
 7    1  0.7313719E-013  0.5930193E+02  0.7816164E-02  0.1266605E+00
        -11   -1    0    0    0    0  0.00000000000E+00  0.00000000000E+00  0.45593999997E+02  0.45594000000E+02  0.51100000000E-03 0.  1.
         11   -1    0    0    0    0 -0.00000000000E+00 -0.00000000000E+00 -0.45593999997E+02  0.45594000000E+02  0.51100000000E-03 0. -1.
    9900012    2    1    2    0    0 -0.15810414554E+02  0.23330670255E+02  0.14914155495E+02  0.59301930675E+02  0.49999975647E+02 0.  0.
        -12    1    1    2    0    0  0.15810414554E+02 -0.23330670255E+02 -0.14914155495E+02  0.31886069325E+02  0.00000000000E+00 0.  1.
         11    1    3    3    0    0  0.76454429407E+01 -0.22829089080E+01  0.49583307950E+01  0.93941213201E+01  0.51100000000E-03 0. -1.
        -11    1    3    3    0    0 -0.22952710516E+02 -0.77811636504E-01  0.21564139203E+01  0.23053917149E+02  0.51100000000E-03 0.  1.
        -12    1    3    3    0    0 -0.50314697891E+00  0.25691390799E+02  0.77994107792E+01  0.26853892206E+02  0.00000000000E+00 0.  1.
</event>
<event>
 7    1  0.7313719E-013  0.5930195E+02  0.7816164E-02  0.1266605E+00
        -11   -1    0    0    0    0  0.00000000000E+00  0.00000000000E+00  0.45593999997E+02  0.45594000000E+02  0.51100000000E-03 0.  1.
         11   -1    0    0    0    0 -0.00000000000E+00 -0.00000000000E+00 -0.45593999997E+02  0.45594000000E+02  0.51100000000E-03 0. -1.
    9900012    2    1    2    0    0  0.25343417531E+01 -0.18124148035E+01 -0.31733458052E+02  0.59301951398E+02  0.50000013441E+02 0.  0.
        -12    1    1    2    0    0 -0.25343417531E+01  0.18124148035E+01  0.31733458052E+02  0.31886048602E+02  0.00000000000E+00 0.  1.
         11    1    3    3    0    0  0.31383468239E+01  0.77560288012E+01 -0.24408877809E+02  0.25803071904E+02  0.51100000000E-03 0. -1.
        -11    1    3    3    0    0  0.13943993581E+01  0.64590434030E+01 -0.14416626907E+02  0.15858837375E+02  0.51100000000E-03 0.  1.
        -12    1    3    3    0    0 -0.19984044289E+01 -0.16027487008E+02  0.70920466640E+01  0.17640042118E+02  0.00000000000E+00 0.  1.
</event>
<event>
 7    1  0.7313719E-013  0.5930191E+02  0.7816164E-02  0.1266605E+00
        -11   -1    0    0    0    0  0.00000000000E+00  0.00000000000E+00  0.45593999997E+02  0.45594000000E+02  0.51100000000E-03 0.  1.
         11   -1    0    0    0    0 -0.00000000000E+00 -0.00000000000E+00 -0.45593999997E+02  0.45594000000E+02  0.51100000000E-03 0. -1.
    9900012    2    1    2    0    0  0.75669757502E-01 -0.27742743003E+02 -0.15718058382E+02  0.59301907820E+02  0.49999933965E+02 0.  0.
        -12    1    1    2    0    0 -0.75669757502E-01  0.27742743003E+02  0.15718058382E+02  0.31886092180E+02  0.00000000000E+00 0.  1.
         11    1    3    3    0    0 -0.84579327284E+01 -0.16012364751E+01  0.38857050003E+01  0.94445374634E+01  0.51100000000E-03 0. -1.
        -11    1    3    3    0    0  0.64126893444E+01 -0.25258549886E+01  0.98649235481E+01  0.12034086792E+02  0.51100000000E-03 0.  1.
         12    1    3    3    0    0  0.21209131415E+01 -0.23615651539E+02 -0.29468686930E+02  0.37823283564E+02  0.00000000000E+00 0. -1.
</event>
<event>
 7    1  0.7313719E-013  0.5930195E+02  0.7816164E-02  0.1266605E+00
        -11   -1    0    0    0    0  0.00000000000E+00  0.00000000000E+00  0.45593999997E+02  0.45594000000E+02  0.51100000000E-03 0. -1.
         11   -1    0    0    0    0 -0.00000000000E+00 -0.00000000000E+00 -0.45593999997E+02  0.45594000000E+02  0.51100000000E-03 0.  1.
    9900012    2    1    2    0    0 -0.21894091703E+02  0.53954439665E+01  0.22544584042E+02  0.59301947614E+02  0.50000006541E+02 0.  0.
        -12    1    1    2    0    0  0.21894091703E+02 -0.53954439665E+01 -0.22544584042E+02  0.31886052386E+02  0.00000000000E+00 0.  1.
         11    1    3    3    0    0 -0.21585402044E+02 -0.13559795454E+02  0.83469364601E+01  0.26822918981E+02  0.51100000000E-03 0. -1.
        -11    1    3    3    0    0 -0.75595593320E+01 -0.11644470514E+01  0.22076837823E+01  0.79609510847E+01  0.51100000000E-03 0.  1.
        -12    1    3    3    0    0  0.72508696724E+01  0.20119686472E+02  0.11989963800E+02  0.24518077548E+02  0.00000000000E+00 0.  1.
</event>
<event>
 7    1  0.7313719E-013  0.5930197E+02  0.7816164E-02  0.1266605E+00
        -11   -1    0    0    0    0  0.00000000000E+00  0.00000000000E+00  0.45593999997E+02  0.45594000000E+02  0.51100000000E-03 0.  1.
         11   -1    0    0    0    0 -0.00000000000E+00 -0.00000000000E+00 -0.45593999997E+02  0.45594000000E+02  0.51100000000E-03 0. -1.
    9900012    2    1    2    0    0 -0.26184692305E+02 -0.10710856185E+02 -0.14709121830E+02  0.59301971456E+02  0.50000050022E+02 0.  0.
        -12    1    1    2    0    0  0.26184692305E+02  0.10710856185E+02  0.14709121830E+02  0.31886028544E+02  0.00000000000E+00 0.  1.
         11    1    3    3    0    0 -0.11187647349E+02  0.11304179221E+02  0.25142409890E+01  0.16101842412E+02  0.51100000000E-03 0. -1.
        -11    1    3    3    0    0  0.57934822366E+01  0.32681500331E+01 -0.12149363227E+01  0.67617535887E+01  0.51100000000E-03 0.  1.
         12    1    3    3    0    0 -0.20790527193E+02 -0.25283185439E+02 -0.16008426496E+02  0.36438375455E+02  0.00000000000E+00 0. -1.
</event>
<event>
 7    1  0.7313719E-013  0.5930190E+02  0.7816164E-02  0.1266605E+00
        -11   -1    0    0    0    0  0.00000000000E+00  0.00000000000E+00  0.45593999997E+02  0.45594000000E+02  0.51100000000E-03 0.  1.
         11   -1    0    0    0    0 -0.00000000000E+00 -0.00000000000E+00 -0.45593999997E+02  0.45594000000E+02  0.51100000000E-03 0. -1.
    9900012    2    1    2    0    0  0.28721060632E+02  0.17169083276E+01 -0.13743221381E+02  0.59301902214E+02  0.49999923743E+02 0.  0.
        -12    1    1    2    0    0 -0.28721060632E+02 -0.17169083276E+01  0.13743221381E+02  0.31886097786E+02  0.00000000000E+00 0.  1.
         11    1    3    3    0    0  0.17118794025E+02  0.82132697103E+01 -0.35700088458E+01  0.19319831046E+02  0.51100000000E-03 0. -1.
        -11    1    3    3    0    0  0.71915772067E+01  0.12216692779E+02  0.54711694405E+01  0.15195396029E+02  0.51100000000E-03 0.  1.
         12    1    3    3    0    0  0.44106894004E+01 -0.18713054162E+02 -0.15644381976E+02  0.24786675139E+02  0.00000000000E+00 0. -1.
</event>
<event>
 7    1  0.7313719E-013  0.5930193E+02  0.7816164E-02  0.1266605E+00
        -11   -1    0    0    0    0  0.00000000000E+00  0.00000000000E+00  0.45593999997E+02  0.45594000000E+02  0.51100000000E-03 0. -1.
         11   -1    0    0    0    0 -0.00000000000E+00 -0.00000000000E+00 -0.45593999997E+02  0.45594000000E+02  0.51100000000E-03 0.  1.
    9900012    2    1    2    0    0  0.19495975181E+02 -0.25106460205E+02 -0.25087445180E+01  0.59301934214E+02  0.49999982101E+02 0.  0.
        -12    1    1    2    0    0 -0.19495975181E+02  0.25106460205E+02  0.25087445180E+01  0.31886065786E+02  0.00000000000E+00 0.  1.
         11    1    3    3    0    0  0.75860544217E+00 -0.58920293556E+00  0.46760132673E+01  0.47736508726E+01  0.51100000000E-03 0. -1.
        -11    1    3    3    0    0 -0.29356706211E+01  0.46850429027E+01  0.12144917717E+02  0.13344167850E+02  0.51100000000E-03 0.  1.
         12    1    3    3    0    0  0.21673040360E+02 -0.29202300172E+02 -0.19329675502E+02  0.41184115491E+02  0.00000000000E+00 0. -1.
</event>
<event>
 7    1  0.7313719E-013  0.5930178E+02  0.7816164E-02  0.1266605E+00
        -11   -1    0    0    0    0  0.00000000000E+00  0.00000000000E+00  0.45593999997E+02  0.45594000000E+02  0.51100000000E-03 0. -1.
         11   -1    0    0    0    0 -0.00000000000E+00 -0.00000000000E+00 -0.45593999997E+02  0.45594000000E+02  0.51100000000E-03 0.  1.
    9900012    2    1    2    0    0 -0.82902626797E+01  0.30747575197E+02 -0.16090975473E+01  0.59301779925E+02  0.49999700714E+02 0.  0.
        -12    1    1    2    0    0  0.82902626797E+01 -0.30747575197E+02  0.16090975473E+01  0.31886220075E+02  0.00000000000E+00 0.  1.
         11    1    3    3    0    0  0.52381742575E+00  0.24980779900E+01 -0.17742372587E+02  0.17925026182E+02  0.51100000000E-03 0. -1.
        -11    1    3    3    0    0 -0.36809366323E+00 -0.40252413187E+00 -0.48447613473E+01  0.48753698726E+01  0.51100000000E-03 0.  1.
         12    1    3    3    0    0 -0.84459864422E+01  0.28652021339E+02  0.20978036387E+02  0.36501383870E+02  0.00000000000E+00 0. -1.
</event>
<event>
 7    1  0.7313719E-013  0.5930196E+02  0.7816164E-02  0.1266605E+00
        -11   -1    0    0    0    0  0.00000000000E+00  0.00000000000E+00  0.45593999997E+02  0.45594000000E+02  0.51100000000E-03 0.  1.
         11   -1    0    0    0    0 -0.00000000000E+00 -0.00000000000E+00 -0.45593999997E+02  0.45594000000E+02  0.51100000000E-03 0. -1.
    9900012    2    1    2    0    0  0.23488100452E+02  0.12723519911E+02  0.17410937234E+02  0.59301959840E+02  0.50000028837E+02 0.  0.
        -12    1    1    2    0    0 -0.23488100452E+02 -0.12723519911E+02 -0.17410937234E+02  0.31886040160E+02  0.00000000000E+00 0.  1.
         11    1    3    3    0    0  0.17334954097E+02 -0.77592942117E+01  0.14320767467E+02  0.23786375539E+02  0.51100000000E-03 0. -1.
        -11    1    3    3    0    0  0.11543564292E+02  0.99677536714E+00  0.87513147937E+01  0.14520087761E+02  0.51100000000E-03 0.  1.
        -12    1    3    3    0    0 -0.53904179377E+01  0.19486038755E+02 -0.56611450269E+01  0.20995496539E+02  0.00000000000E+00 0.  1.
</event>
<event>
 7    1  0.7313719E-013  0.5930194E+02  0.7816164E-02  0.1266605E+00
        -11   -1    0    0    0    0  0.00000000000E+00  0.00000000000E+00  0.45593999997E+02  0.45594000000E+02  0.51100000000E-03 0.  1.
         11   -1    0    0    0    0 -0.00000000000E+00 -0.00000000000E+00 -0.45593999997E+02  0.45594000000E+02  0.51100000000E-03 0. -1.
    9900012    2    1    2    0    0  0.10145952682E+02  0.14755669314E+02 -0.26382774571E+02  0.59301938361E+02  0.49999989666E+02 0.  0.
        -12    1    1    2    0    0 -0.10145952682E+02 -0.14755669314E+02  0.26382774571E+02  0.31886061639E+02  0.00000000000E+00 0.  1.
         11    1    3    3    0    0  0.66203064582E+00 -0.25078098673E+01  0.37041656485E+01  0.45219728348E+01  0.51100000000E-03 0. -1.
        -11    1    3    3    0    0  0.54407786815E+01  0.26795476665E+00  0.98127324305E+01  0.11223350232E+02  0.51100000000E-03 0.  1.
         12    1    3    3    0    0  0.40431433546E+01  0.16995524415E+02 -0.39899672650E+02  0.43556615295E+02  0.00000000000E+00 0. -1.
</event>
<event>
 7    1  0.7313719E-013  0.5930193E+02  0.7816164E-02  0.1266605E+00
        -11   -1    0    0    0    0  0.00000000000E+00  0.00000000000E+00  0.45593999997E+02  0.45594000000E+02  0.51100000000E-03 0.  1.
         11   -1    0    0    0    0 -0.00000000000E+00 -0.00000000000E+00 -0.45593999997E+02  0.45594000000E+02  0.51100000000E-03 0. -1.
    9900012    2    1    2    0    0  0.18977724107E+02 -0.19696108670E+02 -0.16389949924E+02  0.59301934587E+02  0.49999982782E+02 0.  0.
        -12    1    1    2    0    0 -0.18977724107E+02  0.19696108670E+02  0.16389949924E+02  0.31886065413E+02  0.00000000000E+00 0.  1.
         11    1    3    3    0    0 -0.87623172755E+00 -0.19455839041E+02  0.33479784036E+01  0.19761235146E+02  0.51100000000E-03 0. -1.
        -11    1    3    3    0    0 -0.10076687810E+00  0.11958142817E+01  0.64638218189E+01  0.65742770346E+01  0.51100000000E-03 0.  1.
        -12    1    3    3    0    0  0.19954722713E+02 -0.14360839104E+01 -0.26201750147E+02  0.32966422407E+02  0.00000000000E+00 0.  1.
</event>
<event>
 7    1  0.7313719E-013  0.5930195E+02  0.7816164E-02  0.1266605E+00
        -11   -1    0    0    0    0  0.00000000000E+00  0.00000000000E+00  0.45593999997E+02  0.45594000000E+02  0.51100000000E-03 0.  1.
         11   -1    0    0    0    0 -0.00000000000E+00 -0.00000000000E+00 -0.45593999997E+02  0.45594000000E+02  0.51100000000E-03 0. -1.
    9900012    2    1    2    0    0 -0.31252430879E+02 -0.43307165443E-01  0.63248536954E+01  0.59301951552E+02  0.50000013722E+02 0.  0.
        -12    1    1    2    0    0  0.31252430879E+02  0.43307165443E-01 -0.63248536954E+01  0.31886048448E+02  0.00000000000E+00 0.  1.
         11    1    3    3    0    0 -0.24766813983E+02 -0.11362085712E+02  0.26277631482E+01  0.27375120201E+02  0.51100000000E-03 0. -1.
        -11    1    3    3    0    0 -0.16365233335E+02  0.98130129137E+01  0.84396744001E+01  0.20864903278E+02  0.51100000000E-03 0.  1.
        -12    1    3    3    0    0  0.98796164380E+01  0.15057656330E+01 -0.47425838529E+01  0.11061928074E+02  0.00000000000E+00 0.  1.
</event>
<event>
 7    1  0.7313719E-013  0.5930195E+02  0.7816164E-02  0.1266605E+00
        -11   -1    0    0    0    0  0.00000000000E+00  0.00000000000E+00  0.45593999997E+02  0.45594000000E+02  0.51100000000E-03 0. -1.
         11   -1    0    0    0    0 -0.00000000000E+00 -0.00000000000E+00 -0.45593999997E+02  0.45594000000E+02  0.51100000000E-03 0.  1.
    9900012    2    1    2    0    0 -0.10795529142E+02 -0.28130396378E+02 -0.10433480465E+02  0.59301950316E+02  0.50000011468E+02 0.  0.
        -12    1    1    2    0    0  0.10795529142E+02  0.28130396378E+02  0.10433480465E+02  0.31886049684E+02  0.00000000000E+00 0.  1.
         11    1    3    3    0    0 -0.11191822915E+02 -0.22675300157E+02 -0.11664653712E+02  0.27847626180E+02  0.51100000000E-03 0. -1.
        -11    1    3    3    0    0 -0.63025836772E+01  0.51279863298E+01 -0.11180591861E+02  0.13821159120E+02  0.51100000000E-03 0.  1.
        -12    1    3    3    0    0  0.66988774495E+01 -0.10583082551E+02  0.12411765109E+02  0.17633165016E+02  0.00000000000E+00 0.  1.
</event>
<event>
 7    1  0.7313719E-013  0.5930194E+02  0.7816164E-02  0.1266605E+00
        -11   -1    0    0    0    0  0.00000000000E+00  0.00000000000E+00  0.45593999997E+02  0.45594000000E+02  0.51100000000E-03 0.  1.
         11   -1    0    0    0    0 -0.00000000000E+00 -0.00000000000E+00 -0.45593999997E+02  0.45594000000E+02  0.51100000000E-03 0. -1.
    9900012    2    1    2    0    0 -0.31296610991E+02 -0.28965513701E+01 -0.53715019478E+01  0.59301938743E+02  0.49999990361E+02 0.  0.
        -12    1    1    2    0    0  0.31296610991E+02  0.28965513701E+01  0.53715019478E+01  0.31886061257E+02  0.00000000000E+00 0.  1.
         11    1    3    3    0    0 -0.16995621826E+02 -0.20842978938E+02 -0.42438676436E+00  0.26897231022E+02  0.51100000000E-03 0. -1.
        -11    1    3    3    0    0  0.27687642750E+01 -0.43087722112E+00  0.47488658012E+01  0.55139312155E+01  0.51100000000E-03 0.  1.
         12    1    3    3    0    0 -0.17069753440E+02  0.18377304789E+02 -0.96959809846E+01  0.26890776505E+02  0.00000000000E+00 0. -1.
</event>
<event>
 7    1  0.7313719E-013  0.5930194E+02  0.7816164E-02  0.1266605E+00
        -11   -1    0    0    0    0  0.00000000000E+00  0.00000000000E+00  0.45593999997E+02  0.45594000000E+02  0.51100000000E-03 0.  1.
         11   -1    0    0    0    0 -0.00000000000E+00 -0.00000000000E+00 -0.45593999997E+02  0.45594000000E+02  0.51100000000E-03 0. -1.
    9900012    2    1    2    0    0 -0.48334379476E+01  0.31399408544E+02 -0.27268416073E+01  0.59301942790E+02  0.49999997742E+02 0.  0.
        -12    1    1    2    0    0  0.48334379476E+01 -0.31399408544E+02  0.27268416073E+01  0.31886057210E+02  0.00000000000E+00 0.  1.
         11    1    3    3    0    0 -0.50502259662E+01  0.13638687557E+02 -0.83578380028E+00  0.14567673645E+02  0.51100000000E-03 0. -1.
        -11    1    3    3    0    0 -0.14573236866E+02  0.15469245778E+02 -0.14028157925E+02  0.25464995832E+02  0.51100000000E-03 0.  1.
        -12    1    3    3    0    0  0.14790024884E+02  0.22914752078E+01  0.12137100118E+02  0.19269273313E+02  0.00000000000E+00 0.  1.
</event>
<event>
 7    1  0.7313719E-013  0.5930193E+02  0.7816164E-02  0.1266605E+00
        -11   -1    0    0    0    0  0.00000000000E+00  0.00000000000E+00  0.45593999997E+02  0.45594000000E+02  0.51100000000E-03 0. -1.
         11   -1    0    0    0    0 -0.00000000000E+00 -0.00000000000E+00 -0.45593999997E+02  0.45594000000E+02  0.51100000000E-03 0.  1.
    9900012    2    1    2    0    0 -0.14175519566E+02 -0.87734333601E+01  0.27180933658E+02  0.59301927140E+02  0.49999969201E+02 0.  0.
        -12    1    1    2    0    0  0.14175519566E+02  0.87734333601E+01 -0.27180933658E+02  0.31886072860E+02  0.00000000000E+00 0.  1.
         11    1    3    3    0    0 -0.25901581800E+02  0.61847488338E+01  0.21773389937E+02  0.34398016912E+02  0.51100000000E-03 0. -1.
        -11    1    3    3    0    0  0.50473541358E+00 -0.11545350687E+02 -0.89133923291E+00  0.11590701713E+02  0.51100000000E-03 0.  1.
        -12    1    3    3    0    0  0.11221326820E+02 -0.34128315072E+01  0.62988829540E+01  0.13313208515E+02  0.00000000000E+00 0.  1.
</event>
<event>
 7    1  0.7313719E-013  0.5930195E+02  0.7816164E-02  0.1266605E+00
        -11   -1    0    0    0    0  0.00000000000E+00  0.00000000000E+00  0.45593999997E+02  0.45594000000E+02  0.51100000000E-03 0.  1.
         11   -1    0    0    0    0 -0.00000000000E+00 -0.00000000000E+00 -0.45593999997E+02  0.45594000000E+02  0.51100000000E-03 0. -1.
    9900012    2    1    2    0    0 -0.23683021634E+02 -0.21000546647E+02 -0.38485578773E+01  0.59301954919E+02  0.50000019863E+02 0.  0.
        -12    1    1    2    0    0  0.23683021634E+02  0.21000546647E+02  0.38485578773E+01  0.31886045081E+02  0.00000000000E+00 0.  1.
         11    1    3    3    0    0 -0.19635157754E+02 -0.23173496698E+02 -0.17973047409E+02  0.35292786836E+02  0.51100000000E-03 0. -1.
        -11    1    3    3    0    0 -0.22715614769E+01  0.27222303874E+01 -0.42534812569E+01  0.55373850226E+01  0.51100000000E-03 0.  1.
        -12    1    3    3    0    0 -0.17763024034E+01 -0.54928033616E+00  0.18377970788E+02  0.18471783060E+02  0.00000000000E+00 0.  1.
</event>
<event>
 7    1  0.1265371E-012  0.5930193E+02  0.7816164E-02  0.1266605E+00
        -11   -1    0    0    0    0  0.00000000000E+00  0.00000000000E+00  0.45593999997E+02  0.45594000000E+02  0.51100000000E-03 0. -1.
         11   -1    0    0    0    0 -0.00000000000E+00 -0.00000000000E+00 -0.45593999997E+02  0.45594000000E+02  0.51100000000E-03 0.  1.
    9900012    2    1    2    0    0 -0.11726833383E+02 -0.12607983226E+02  0.26837316181E+02  0.59301930910E+02  0.49999976076E+02 0.  0.
        -12    1    1    2    0    0  0.11726833383E+02  0.12607983226E+02 -0.26837316181E+02  0.31886069090E+02  0.00000000000E+00 0.  1.
         11    1    3    3    0    0 -0.18146578880E+02 -0.18671953204E+01  0.12842727250E+01  0.18287539477E+02  0.51100000000E-03 0. -1.
        -11    1    3    3    0    0 -0.51357830399E+01  0.42631694406E+01 -0.25337418333E+01  0.71393787581E+01  0.51100000000E-03 0.  1.
         12    1    3    3    0    0  0.11555528537E+02 -0.15003957346E+02  0.28086785289E+02  0.33875012675E+02  0.00000000000E+00 0. -1.
</event>
<event>
 7    1  0.7313719E-013  0.5930196E+02  0.7816164E-02  0.1266605E+00
        -11   -1    0    0    0    0  0.00000000000E+00  0.00000000000E+00  0.45593999997E+02  0.45594000000E+02  0.51100000000E-03 0.  1.
         11   -1    0    0    0    0 -0.00000000000E+00 -0.00000000000E+00 -0.45593999997E+02  0.45594000000E+02  0.51100000000E-03 0. -1.
    9900012    2    1    2    0    0 -0.15529805127E+02 -0.21492801466E+02 -0.17708867609E+02  0.59301963023E+02  0.50000034642E+02 0.  0.
        -12    1    1    2    0    0  0.15529805127E+02  0.21492801466E+02  0.17708867609E+02  0.31886036977E+02  0.00000000000E+00 0.  1.
         11    1    3    3    0    0 -0.75897321538E+01 -0.57602190844E+01 -0.14931944340E+02  0.17712908291E+02  0.51100000000E-03 0. -1.
        -11    1    3    3    0    0 -0.11662775409E+01  0.12430877767E+02 -0.17177795933E+01  0.12603082653E+02  0.51100000000E-03 0.  1.
        -12    1    3    3    0    0 -0.67737954321E+01 -0.28163460148E+02 -0.10591436751E+01  0.28985972080E+02  0.00000000000E+00 0.  1.
</event>
<event>
 7    1  0.7313719E-013  0.5930197E+02  0.7816164E-02  0.1266605E+00
        -11   -1    0    0    0    0  0.00000000000E+00  0.00000000000E+00  0.45593999997E+02  0.45594000000E+02  0.51100000000E-03 0.  1.
         11   -1    0    0    0    0 -0.00000000000E+00 -0.00000000000E+00 -0.45593999997E+02  0.45594000000E+02  0.51100000000E-03 0. -1.
    9900012    2    1    2    0    0  0.15765298319E+02 -0.15574999322E+02 -0.22925833001E+02  0.59301967733E+02  0.50000043232E+02 0.  0.
        -12    1    1    2    0    0 -0.15765298319E+02  0.15574999322E+02  0.22925833001E+02  0.31886032267E+02  0.00000000000E+00 0.  1.
         11    1    3    3    0    0  0.77367106357E+01 -0.44770769583E+01 -0.25955017598E+02  0.27451117433E+02  0.51100000000E-03 0. -1.
        -11    1    3    3    0    0 -0.83308058082E+01 -0.69345443834E+01 -0.63268025615E+01  0.12550643893E+02  0.51100000000E-03 0.  1.
        -12    1    3    3    0    0  0.16359393492E+02 -0.41633779799E+01  0.93559871587E+01  0.19300206406E+02  0.00000000000E+00 0.  1.
</event>
<event>
 7    1  0.7313719E-013  0.5930195E+02  0.7816164E-02  0.1266605E+00
        -11   -1    0    0    0    0  0.00000000000E+00  0.00000000000E+00  0.45593999997E+02  0.45594000000E+02  0.51100000000E-03 0. -1.
         11   -1    0    0    0    0 -0.00000000000E+00 -0.00000000000E+00 -0.45593999997E+02  0.45594000000E+02  0.51100000000E-03 0.  1.
    9900012    2    1    2    0    0 -0.96457175386E+01  0.18434582503E+02  0.24162915848E+02  0.59301949740E+02  0.50000010418E+02 0.  0.
        -12    1    1    2    0    0  0.96457175386E+01 -0.18434582503E+02 -0.24162915848E+02  0.31886050260E+02  0.00000000000E+00 0.  1.
         11    1    3    3    0    0 -0.10016475676E+02  0.13620798719E+02  0.12813425758E+02  0.21214142043E+02  0.51100000000E-03 0. -1.
        -11    1    3    3    0    0  0.11226823800E+01 -0.17690771971E+01  0.23848979109E+02  0.23940840726E+02  0.51100000000E-03 0.  1.
        -12    1    3    3    0    0 -0.75192424266E+00  0.65828609811E+01 -0.12499489019E+02  0.14146966971E+02  0.00000000000E+00 0.  1.
</event>
<event>
 7    1  0.7313719E-013  0.5930193E+02  0.7816164E-02  0.1266605E+00
        -11   -1    0    0    0    0  0.00000000000E+00  0.00000000000E+00  0.45593999997E+02  0.45594000000E+02  0.51100000000E-03 0. -1.
         11   -1    0    0    0    0 -0.00000000000E+00 -0.00000000000E+00 -0.45593999997E+02  0.45594000000E+02  0.51100000000E-03 0.  1.
    9900012    2    1    2    0    0 -0.73719662953E+00 -0.16419976906E+02  0.27323295544E+02  0.59301928121E+02  0.49999970990E+02 0.  0.
        -12    1    1    2    0    0  0.73719662953E+00  0.16419976906E+02 -0.27323295544E+02  0.31886071879E+02  0.00000000000E+00 0.  1.
         11    1    3    3    0    0 -0.15650256518E+02 -0.20279354844E+02  0.27004604692E+02  0.37221384133E+02  0.51100000000E-03 0. -1.
        -11    1    3    3    0    0 -0.26134289349E+01 -0.15331513041E+01  0.20551775636E+01  0.36611908989E+01  0.51100000000E-03 0.  1.
         12    1    3    3    0    0  0.17526488823E+02  0.53925292425E+01 -0.17364867112E+01  0.18419353089E+02  0.00000000000E+00 0. -1.
</event>
<event>
 7    1  0.7313719E-013  0.5930195E+02  0.7816164E-02  0.1266605E+00
        -11   -1    0    0    0    0  0.00000000000E+00  0.00000000000E+00  0.45593999997E+02  0.45594000000E+02  0.51100000000E-03 0.  1.
         11   -1    0    0    0    0 -0.00000000000E+00 -0.00000000000E+00 -0.45593999997E+02  0.45594000000E+02  0.51100000000E-03 0. -1.
    9900012    2    1    2    0    0  0.19259469292E+02 -0.88152655247E+01 -0.23834514785E+02  0.59301950406E+02  0.50000011632E+02 0.  0.
        -12    1    1    2    0    0 -0.19259469292E+02  0.88152655247E+01  0.23834514785E+02  0.31886049594E+02  0.00000000000E+00 0.  1.
         11    1    3    3    0    0  0.25279309716E+01 -0.18147084622E+02 -0.89687396204E+01  0.20399642298E+02  0.51100000000E-03 0. -1.
        -11    1    3    3    0    0 -0.54732903447E+01  0.95738819954E+01  0.17525780272E+01  0.11166362598E+02  0.51100000000E-03 0.  1.
        -12    1    3    3    0    0  0.22204828665E+02 -0.24206289844E+00 -0.16618353192E+02  0.27735945510E+02  0.00000000000E+00 0.  1.
</event>
<event>
 7    1  0.7313719E-013  0.5930195E+02  0.7816164E-02  0.1266605E+00
        -11   -1    0    0    0    0  0.00000000000E+00  0.00000000000E+00  0.45593999997E+02  0.45594000000E+02  0.51100000000E-03 0.  1.
         11   -1    0    0    0    0 -0.00000000000E+00 -0.00000000000E+00 -0.45593999997E+02  0.45594000000E+02  0.51100000000E-03 0. -1.
    9900012    2    1    2    0    0 -0.19381838929E+02  0.11904403508E+02 -0.22346132371E+02  0.59301950776E+02  0.50000012307E+02 0.  0.
        -12    1    1    2    0    0  0.19381838929E+02 -0.11904403508E+02  0.22346132371E+02  0.31886049224E+02  0.00000000000E+00 0.  1.
         11    1    3    3    0    0  0.21492833340E+01  0.19124199651E+02 -0.17441352252E+02  0.25972200519E+02  0.51100000000E-03 0. -1.
        -11    1    3    3    0    0  0.41990819354E+01 -0.57099037500E+01 -0.21601738312E+01  0.74095641692E+01  0.51100000000E-03 0.  1.
        -12    1    3    3    0    0 -0.25730204199E+02 -0.15098923929E+01 -0.27446062875E+01  0.25920186088E+02  0.00000000000E+00 0.  1.
</event>
<event>
 7    1  0.7313719E-013  0.5930194E+02  0.7816164E-02  0.1266605E+00
        -11   -1    0    0    0    0  0.00000000000E+00  0.00000000000E+00  0.45593999997E+02  0.45594000000E+02  0.51100000000E-03 0. -1.
         11   -1    0    0    0    0 -0.00000000000E+00 -0.00000000000E+00 -0.45593999997E+02  0.45594000000E+02  0.51100000000E-03 0.  1.
    9900012    2    1    2    0    0 -0.14383400716E+02 -0.26228759468E+02  0.11040419251E+02  0.59301938835E+02  0.49999990530E+02 0.  0.
        -12    1    1    2    0    0  0.14383400716E+02  0.26228759468E+02 -0.11040419251E+02  0.31886061165E+02  0.00000000000E+00 0.  1.
         11    1    3    3    0    0 -0.35679595700E+01 -0.10082388747E+02 -0.45341646733E+01  0.11616520472E+02  0.51100000000E-03 0. -1.
        -11    1    3    3    0    0  0.13319258727E+02  0.34193190776E+01  0.24970191502E+01  0.13976033088E+02  0.51100000000E-03 0.  1.
        -12    1    3    3    0    0 -0.24134699872E+02 -0.19565689799E+02  0.13077564774E+02  0.33709385275E+02  0.00000000000E+00 0.  1.
</event>
<event>
 7    1  0.7313719E-013  0.5930196E+02  0.7816164E-02  0.1266605E+00
        -11   -1    0    0    0    0  0.00000000000E+00  0.00000000000E+00  0.45593999997E+02  0.45594000000E+02  0.51100000000E-03 0.  1.
         11   -1    0    0    0    0 -0.00000000000E+00 -0.00000000000E+00 -0.45593999997E+02  0.45594000000E+02  0.51100000000E-03 0. -1.
    9900012    2    1    2    0    0 -0.27930064704E+02 -0.14496468917E+02 -0.51462267333E+01  0.59301956423E+02  0.50000022606E+02 0.  0.
        -12    1    1    2    0    0  0.27930064704E+02  0.14496468917E+02  0.51462267333E+01  0.31886043577E+02  0.00000000000E+00 0.  1.
         11    1    3    3    0    0 -0.28349156640E+02 -0.26360574923E+01 -0.21126351248E+02  0.35453437049E+02  0.51100000000E-03 0. -1.
        -11    1    3    3    0    0 -0.11965539948E+01 -0.22970238560E+01 -0.20979109980E+01  0.33330602866E+01  0.51100000000E-03 0.  1.
        -12    1    3    3    0    0  0.16156459310E+01 -0.95633875685E+01  0.18078035513E+02  0.20515459087E+02  0.00000000000E+00 0.  1.
</event>
<event>
 7    1  0.7313719E-013  0.5930200E+02  0.7816164E-02  0.1266605E+00
        -11   -1    0    0    0    0  0.00000000000E+00  0.00000000000E+00  0.45593999997E+02  0.45594000000E+02  0.51100000000E-03 0.  1.
         11   -1    0    0    0    0 -0.00000000000E+00 -0.00000000000E+00 -0.45593999997E+02  0.45594000000E+02  0.51100000000E-03 0. -1.
    9900012    2    1    2    0    0 -0.31487711332E+02 -0.60832804692E+00 -0.49871090307E+01  0.59301995477E+02  0.50000093831E+02 0.  0.
        -12    1    1    2    0    0  0.31487711332E+02  0.60832804692E+00  0.49871090307E+01  0.31886004523E+02  0.00000000000E+00 0.  1.
         11    1    3    3    0    0 -0.11492269482E+02  0.13634079815E+02  0.20733614385E+01  0.17951579824E+02  0.51100000000E-03 0. -1.
        -11    1    3    3    0    0 -0.51644693977E+00  0.29494291120E+01  0.98873189249E+01  0.10330775639E+02  0.51100000000E-03 0.  1.
         12    1    3    3    0    0 -0.19478994910E+02 -0.17191836974E+02 -0.16947789394E+02  0.31019640014E+02  0.00000000000E+00 0. -1.
</event>
<event>
 7    1  0.7313719E-013  0.5930185E+02  0.7816164E-02  0.1266605E+00
        -11   -1    0    0    0    0  0.00000000000E+00  0.00000000000E+00  0.45593999997E+02  0.45594000000E+02  0.51100000000E-03 0.  1.
         11   -1    0    0    0    0 -0.00000000000E+00 -0.00000000000E+00 -0.45593999997E+02  0.45594000000E+02  0.51100000000E-03 0. -1.
    9900012    2    1    2    0    0  0.18851930355E+02  0.24071127716E+02 -0.90505295543E+01  0.59301850141E+02  0.49999828772E+02 0.  0.
        -12    1    1    2    0    0 -0.18851930355E+02 -0.24071127716E+02  0.90505295543E+01  0.31886149859E+02  0.00000000000E+00 0.  1.
         11    1    3    3    0    0  0.51244482197E+01  0.19178168300E+02 -0.81244773233E+01  0.21449224716E+02  0.51100000000E-03 0. -1.
        -11    1    3    3    0    0 -0.30493036282E+01  0.12619538606E+02  0.10004397233E+02  0.16390209623E+02  0.51100000000E-03 0.  1.
        -12    1    3    3    0    0  0.16776785764E+02 -0.77265791894E+01 -0.10930449464E+02  0.21462415801E+02  0.00000000000E+00 0.  1.
</event>
<event>
 7    1  0.7494616E-013  0.5930197E+02  0.7816164E-02  0.1266605E+00
        -11   -1    0    0    0    0  0.00000000000E+00  0.00000000000E+00  0.45593999997E+02  0.45594000000E+02  0.51100000000E-03 0. -1.
         11   -1    0    0    0    0 -0.00000000000E+00 -0.00000000000E+00 -0.45593999997E+02  0.45594000000E+02  0.51100000000E-03 0.  1.
    9900012    2    1    2    0    0  0.11379261271E+02  0.20022026711E+02  0.22053335047E+02  0.59301972850E+02  0.50000052565E+02 0.  0.
        -12    1    1    2    0    0 -0.11379261271E+02 -0.20022026711E+02 -0.22053335047E+02  0.31886027150E+02  0.00000000000E+00 0.  1.
         11    1    3    3    0    0  0.14363485195E+02  0.14728463412E+02  0.12510313787E+01  0.20610735581E+02  0.51100000000E-03 0. -1.
        -11    1    3    3    0    0 -0.48278753843E+01  0.12571076539E+02 -0.29458290080E+01  0.13784710910E+02  0.51100000000E-03 0.  1.
         12    1    3    3    0    0  0.18436514610E+01 -0.72775132396E+01  0.23748132676E+02  0.24906526359E+02  0.00000000000E+00 0. -1.
</event>
<event>
 7    1  0.7313719E-013  0.5930193E+02  0.7816164E-02  0.1266605E+00
        -11   -1    0    0    0    0  0.00000000000E+00  0.00000000000E+00  0.45593999997E+02  0.45594000000E+02  0.51100000000E-03 0.  1.
         11   -1    0    0    0    0 -0.00000000000E+00 -0.00000000000E+00 -0.45593999997E+02  0.45594000000E+02  0.51100000000E-03 0. -1.
    9900012    2    1    2    0    0  0.16194402528E+02  0.21138118114E+02 -0.17539750513E+02  0.59301928453E+02  0.49999971596E+02 0.  0.
        -12    1    1    2    0    0 -0.16194402528E+02 -0.21138118114E+02  0.17539750513E+02  0.31886071547E+02  0.00000000000E+00 0.  1.
         11    1    3    3    0    0  0.80090346421E+01  0.30601050047E+02 -0.17132452575E+02  0.35973460097E+02  0.51100000000E-03 0. -1.
        -11    1    3    3    0    0  0.79359900973E+01  0.39562369963E+01 -0.35371221030E+01  0.95468834196E+01  0.51100000000E-03 0.  1.
        -12    1    3    3    0    0  0.24937778847E+00 -0.13419168930E+02  0.31298241643E+01  0.13781584936E+02  0.00000000000E+00 0.  1.
</event>
<event>
 7    1  0.7313719E-013  0.5930194E+02  0.7816164E-02  0.1266605E+00
        -11   -1    0    0    0    0  0.00000000000E+00  0.00000000000E+00  0.45593999997E+02  0.45594000000E+02  0.51100000000E-03 0. -1.
         11   -1    0    0    0    0 -0.00000000000E+00 -0.00000000000E+00 -0.45593999997E+02  0.45594000000E+02  0.51100000000E-03 0.  1.
    9900012    2    1    2    0    0 -0.26383341215E+02  0.16977246139E+02 -0.56932586354E+01  0.59301940758E+02  0.49999994036E+02 0.  0.
        -12    1    1    2    0    0  0.26383341215E+02 -0.16977246139E+02  0.56932586354E+01  0.31886059242E+02  0.00000000000E+00 0.  1.
         11    1    3    3    0    0 -0.27283168651E+02  0.48157324919E+01 -0.61778838777E+01  0.28385362787E+02  0.51100000000E-03 0. -1.
        -11    1    3    3    0    0 -0.13618286296E+02  0.50847279831E+01  0.20894954512E+01  0.14685985558E+02  0.51100000000E-03 0.  1.
        -12    1    3    3    0    0  0.14518113732E+02  0.70767856638E+01 -0.16048702090E+01  0.16230592413E+02  0.00000000000E+00 0.  1.
</event>
<event>
 7    1  0.7313719E-013  0.5930193E+02  0.7816164E-02  0.1266605E+00
        -11   -1    0    0    0    0  0.00000000000E+00  0.00000000000E+00  0.45593999997E+02  0.45594000000E+02  0.51100000000E-03 0. -1.
         11   -1    0    0    0    0 -0.00000000000E+00 -0.00000000000E+00 -0.45593999997E+02  0.45594000000E+02  0.51100000000E-03 0.  1.
    9900012    2    1    2    0    0  0.22881434639E+02  0.96560156968E+00  0.22186233329E+02  0.59301931147E+02  0.49999976510E+02 0.  0.
        -12    1    1    2    0    0 -0.22881434639E+02 -0.96560156968E+00 -0.22186233329E+02  0.31886068853E+02  0.00000000000E+00 0.  1.
         11    1    3    3    0    0  0.79221964360E+01  0.80653571981E+01  0.31060565390E+02  0.33054045225E+02  0.51100000000E-03 0. -1.
        -11    1    3    3    0    0  0.58603171102E+01 -0.10605146428E+01  0.55602157923E+01  0.81476381767E+01  0.51100000000E-03 0.  1.
        -12    1    3    3    0    0  0.90989210926E+01 -0.60392409856E+01 -0.14434547853E+02  0.18100247746E+02  0.00000000000E+00 0.  1.
</event>
<event>
 7    1  0.7313719E-013  0.5930194E+02  0.7816164E-02  0.1266605E+00
        -11   -1    0    0    0    0  0.00000000000E+00  0.00000000000E+00  0.45593999997E+02  0.45594000000E+02  0.51100000000E-03 0.  1.
         11   -1    0    0    0    0 -0.00000000000E+00 -0.00000000000E+00 -0.45593999997E+02  0.45594000000E+02  0.51100000000E-03 0. -1.
    9900012    2    1    2    0    0 -0.43190815689E+01 -0.11943091051E+02 -0.29247718344E+02  0.59301938504E+02  0.49999989925E+02 0.  0.
        -12    1    1    2    0    0  0.43190815689E+01  0.11943091051E+02  0.29247718344E+02  0.31886061496E+02  0.00000000000E+00 0.  1.
         11    1    3    3    0    0 -0.13208317574E+02  0.24705271687E+01 -0.17754890580E+02  0.22266551089E+02  0.51100000000E-03 0. -1.
        -11    1    3    3    0    0 -0.55076755700E+01 -0.12860259458E+02  0.52107984270E+01  0.14928937806E+02  0.51100000000E-03 0.  1.
        -12    1    3    3    0    0  0.14396911576E+02 -0.15533587610E+01 -0.16703626191E+02  0.22106449608E+02  0.00000000000E+00 0.  1.
</event>
<event>
 7    1  0.7313719E-013  0.5930194E+02  0.7816164E-02  0.1266605E+00
        -11   -1    0    0    0    0  0.00000000000E+00  0.00000000000E+00  0.45593999997E+02  0.45594000000E+02  0.51100000000E-03 0. -1.
         11   -1    0    0    0    0 -0.00000000000E+00 -0.00000000000E+00 -0.45593999997E+02  0.45594000000E+02  0.51100000000E-03 0.  1.
    9900012    2    1    2    0    0  0.29675698293E+02  0.92730133024E+01  0.70770836542E+01  0.59301937874E+02  0.49999988777E+02 0.  0.
        -12    1    1    2    0    0 -0.29675698293E+02 -0.92730133024E+01 -0.70770836542E+01  0.31886062126E+02  0.00000000000E+00 0.  1.
         11    1    3    3    0    0 -0.52149323917E+00 -0.15167147676E+02  0.82899262975E+01  0.17292692159E+02  0.51100000000E-03 0.  1.
        -11    1    3    3    0    0  0.17294152411E+01 -0.21750203423E+01  0.10536726888E+01  0.29718373041E+01  0.51100000000E-03 0. -1.
         12    1    3    3    0    0  0.28467776291E+02  0.26615181321E+02 -0.22665153321E+01  0.39037408411E+02  0.00000000000E+00 0. -1.
</event>
<event>
 7    1  0.7313719E-013  0.5930195E+02  0.7816164E-02  0.1266605E+00
        -11   -1    0    0    0    0  0.00000000000E+00  0.00000000000E+00  0.45593999997E+02  0.45594000000E+02  0.51100000000E-03 0. -1.
         11   -1    0    0    0    0 -0.00000000000E+00 -0.00000000000E+00 -0.45593999997E+02  0.45594000000E+02  0.51100000000E-03 0.  1.
    9900012    2    1    2    0    0 -0.12573200783E+02 -0.26534529275E+02 -0.12431946407E+02  0.59301954255E+02  0.50000018652E+02 0.  0.
        -12    1    1    2    0    0  0.12573200783E+02  0.26534529275E+02  0.12431946407E+02  0.31886045745E+02  0.00000000000E+00 0.  1.
         11    1    3    3    0    0 -0.77597467554E+01  0.49256231743E+00  0.43868727077E+01  0.89275382810E+01  0.51100000000E-03 0. -1.
        -11    1    3    3    0    0  0.12901934406E+02  0.10854072033E+01  0.39116449578E+00  0.12953417701E+02  0.51100000000E-03 0.  1.
        -12    1    3    3    0    0 -0.17715388434E+02 -0.28112498796E+02 -0.17209983611E+02  0.37420998273E+02  0.00000000000E+00 0.  1.
</event>
<event>
 7    1  0.7313719E-013  0.5930194E+02  0.7816164E-02  0.1266605E+00
        -11   -1    0    0    0    0  0.00000000000E+00  0.00000000000E+00  0.45593999997E+02  0.45594000000E+02  0.51100000000E-03 0.  1.
         11   -1    0    0    0    0 -0.00000000000E+00 -0.00000000000E+00 -0.45593999997E+02  0.45594000000E+02  0.51100000000E-03 0. -1.
    9900012    2    1    2    0    0  0.20957474338E+02  0.17121405599E+02  0.16863054515E+02  0.59301939286E+02  0.49999991352E+02 0.  0.
        -12    1    1    2    0    0 -0.20957474338E+02 -0.17121405599E+02 -0.16863054515E+02  0.31886060714E+02  0.00000000000E+00 0.  1.
         11    1    3    3    0    0  0.34530896903E+01  0.20105482614E+02  0.38653607862E+01  0.20762833954E+02  0.51100000000E-03 0. -1.
        -11    1    3    3    0    0  0.36006005297E+01  0.11830425971E+02 -0.29468779675E+01  0.12712489640E+02  0.51100000000E-03 0.  1.
        -12    1    3    3    0    0  0.13903784118E+02 -0.14814502986E+02  0.15944571696E+02  0.25826615692E+02  0.00000000000E+00 0.  1.
</event>
<event>
 7    1  0.7313719E-013  0.5930195E+02  0.7816164E-02  0.1266605E+00
        -11   -1    0    0    0    0  0.00000000000E+00  0.00000000000E+00  0.45593999997E+02  0.45594000000E+02  0.51100000000E-03 0.  1.
         11   -1    0    0    0    0 -0.00000000000E+00 -0.00000000000E+00 -0.45593999997E+02  0.45594000000E+02  0.51100000000E-03 0. -1.
    9900012    2    1    2    0    0 -0.14093093465E+02  0.28475528101E+02 -0.26924455950E+01  0.59301949016E+02  0.50000009098E+02 0.  0.
        -12    1    1    2    0    0  0.14093093465E+02 -0.28475528101E+02  0.26924455950E+01  0.31886050984E+02  0.00000000000E+00 0.  1.
         11    1    3    3    0    0 -0.25565953059E+02  0.24132998538E+02 -0.16994864556E+02  0.39049263704E+02  0.51100000000E-03 0. -1.
        -11    1    3    3    0    0 -0.68016469577E+00  0.17644350173E+00 -0.33368730457E+00  0.77788418227E+00  0.51100000000E-03 0.  1.
        -12    1    3    3    0    0  0.12153024290E+02  0.41660860611E+01  0.14636106266E+02  0.19474801130E+02  0.00000000000E+00 0.  1.
</event>
<event>
 7    1  0.7313719E-013  0.5930195E+02  0.7816164E-02  0.1266605E+00
        -11   -1    0    0    0    0  0.00000000000E+00  0.00000000000E+00  0.45593999997E+02  0.45594000000E+02  0.51100000000E-03 0. -1.
         11   -1    0    0    0    0 -0.00000000000E+00 -0.00000000000E+00 -0.45593999997E+02  0.45594000000E+02  0.51100000000E-03 0.  1.
    9900012    2    1    2    0    0 -0.31248438511E+01  0.30238851247E+02  0.96212017155E+01  0.59301948248E+02  0.50000007697E+02 0.  0.
        -12    1    1    2    0    0  0.31248438511E+01 -0.30238851247E+02 -0.96212017155E+01  0.31886051752E+02  0.00000000000E+00 0.  1.
         11    1    3    3    0    0 -0.26497654021E+01  0.12442933078E+02  0.10984054977E+02  0.16807656121E+02  0.51100000000E-03 0. -1.
        -11    1    3    3    0    0  0.73490553902E+01  0.27581284468E+02  0.40811289488E+01  0.28833859988E+02  0.51100000000E-03 0.  1.
        -12    1    3    3    0    0 -0.78241338393E+01 -0.97853662986E+01 -0.54439822107E+01  0.13660432140E+02  0.00000000000E+00 0.  1.
</event>
<event>
 7    1  0.7313719E-013  0.5930200E+02  0.7816164E-02  0.1266605E+00
        -11   -1    0    0    0    0  0.00000000000E+00  0.00000000000E+00  0.45593999997E+02  0.45594000000E+02  0.51100000000E-03 0.  1.
         11   -1    0    0    0    0 -0.00000000000E+00 -0.00000000000E+00 -0.45593999997E+02  0.45594000000E+02  0.51100000000E-03 0. -1.
    9900012    2    1    2    0    0 -0.25891104243E+01  0.19561333537E+02 -0.25047308649E+02  0.59302000987E+02  0.50000103880E+02 0.  0.
        -12    1    1    2    0    0  0.25891104243E+01 -0.19561333537E+02  0.25047308649E+02  0.31885999013E+02  0.00000000000E+00 0.  1.
         11    1    3    3    0    0 -0.10302099566E+02  0.20132473028E+02 -0.15864255812E+01  0.22670828659E+02  0.51100000000E-03 0. -1.
        -11    1    3    3    0    0  0.85060194424E+01  0.58921581768E+01  0.18364726825E+01  0.10509163949E+02  0.51100000000E-03 0.  1.
         12    1    3    3    0    0 -0.79303030104E+00 -0.64632976680E+01 -0.25297355750E+02  0.26122008379E+02  0.00000000000E+00 0. -1.
</event>
<event>
 7    1  0.7313719E-013  0.5930215E+02  0.7816164E-02  0.1266604E+00
        -11   -1    0    0    0    0  0.00000000000E+00  0.00000000000E+00  0.45593999997E+02  0.45594000000E+02  0.51100000000E-03 0. -1.
         11   -1    0    0    0    0 -0.00000000000E+00 -0.00000000000E+00 -0.45593999997E+02  0.45594000000E+02  0.51100000000E-03 0.  1.
    9900012    2    1    2    0    0  0.29055127306E+02  0.10751518635E+02 -0.75439744646E+01  0.59302154764E+02  0.50000384331E+02 0.  0.
        -12    1    1    2    0    0 -0.29055127306E+02 -0.10751518635E+02  0.75439744646E+01  0.31885845236E+02  0.00000000000E+00 0.  1.
         11    1    3    3    0    0 -0.10727217429E+01  0.63656988725E+01 -0.96169617169E+00  0.65266924136E+01  0.51100000000E-03 0. -1.
        -11    1    3    3    0    0 -0.10712287837E+02  0.37427494075E+01  0.31670478800E+00  0.11351721720E+02  0.51100000000E-03 0.  1.
         12    1    3    3    0    0  0.40840136885E+02  0.64307035472E+00 -0.68989830809E+01  0.41423740630E+02  0.00000000000E+00 0. -1.
</event>
<event>
 7    1  0.7313719E-013  0.5930195E+02  0.7816164E-02  0.1266605E+00
        -11   -1    0    0    0    0  0.00000000000E+00  0.00000000000E+00  0.45593999997E+02  0.45594000000E+02  0.51100000000E-03 0. -1.
         11   -1    0    0    0    0 -0.00000000000E+00 -0.00000000000E+00 -0.45593999997E+02  0.45594000000E+02  0.51100000000E-03 0.  1.
    9900012    2    1    2    0    0 -0.26112579219E+02 -0.14168467664E+01  0.18244059616E+02  0.59301953530E+02  0.50000017329E+02 0.  0.
        -12    1    1    2    0    0  0.26112579219E+02  0.14168467664E+01 -0.18244059616E+02  0.31886046470E+02  0.00000000000E+00 0.  1.
         11    1    3    3    0    0 -0.90041019027E+01 -0.18026977733E+02  0.18577113375E+02  0.27407205601E+02  0.51100000000E-03 0. -1.
        -11    1    3    3    0    0 -0.15037786603E+02  0.10767653265E+01 -0.43992457676E+01  0.15705025090E+02  0.51100000000E-03 0.  1.
         12    1    3    3    0    0 -0.20706907137E+01  0.15533365640E+02  0.40661920088E+01  0.16189722839E+02  0.00000000000E+00 0. -1.
</event>
<event>
 7    1  0.7313719E-013  0.5930193E+02  0.7816164E-02  0.1266605E+00
        -11   -1    0    0    0    0  0.00000000000E+00  0.00000000000E+00  0.45593999997E+02  0.45594000000E+02  0.51100000000E-03 0. -1.
         11   -1    0    0    0    0 -0.00000000000E+00 -0.00000000000E+00 -0.45593999997E+02  0.45594000000E+02  0.51100000000E-03 0.  1.
    9900012    2    1    2    0    0 -0.16591415830E+02 -0.68175028978E+01  0.26362243469E+02  0.59301932420E+02  0.49999978830E+02 0.  0.
        -12    1    1    2    0    0  0.16591415830E+02  0.68175028978E+01 -0.26362243469E+02  0.31886067580E+02  0.00000000000E+00 0.  1.
         11    1    3    3    0    0 -0.25076027960E+02 -0.86059214053E+01  0.68192147729E+01  0.27374637017E+02  0.51100000000E-03 0. -1.
        -11    1    3    3    0    0 -0.80484157585E+00 -0.21760592943E+01 -0.49318368345E+01  0.54503228196E+01  0.51100000000E-03 0.  1.
         12    1    3    3    0    0  0.92894537053E+01  0.39644778017E+01  0.24474865531E+02  0.26476972583E+02  0.00000000000E+00 0. -1.
</event>
<event>
 7    1  0.7313719E-013  0.5930188E+02  0.7816164E-02  0.1266605E+00
        -11   -1    0    0    0    0  0.00000000000E+00  0.00000000000E+00  0.45593999997E+02  0.45594000000E+02  0.51100000000E-03 0.  1.
         11   -1    0    0    0    0 -0.00000000000E+00 -0.00000000000E+00 -0.45593999997E+02  0.45594000000E+02  0.51100000000E-03 0. -1.
    9900012    2    1    2    0    0 -0.58466492109E+01  0.21693250448E+02 -0.22626183642E+02  0.59301880635E+02  0.49999884386E+02 0.  0.
        -12    1    1    2    0    0  0.58466492109E+01 -0.21693250448E+02  0.22626183642E+02  0.31886119365E+02  0.00000000000E+00 0.  1.
         11    1    3    3    0    0  0.59559474227E+01  0.10212055720E+02 -0.87853711570E+01  0.14728955779E+02  0.51100000000E-03 0. -1.
        -11    1    3    3    0    0  0.36382714085E+01  0.22711498151E+02 -0.50278900494E+01  0.23544189213E+02  0.51100000000E-03 0.  1.
         12    1    3    3    0    0 -0.15440868042E+02 -0.11230303423E+02 -0.88129224351E+01  0.21028735642E+02  0.00000000000E+00 0. -1.
</event>
<event>
 7    1  0.7313719E-013  0.5930190E+02  0.7816164E-02  0.1266605E+00
        -11   -1    0    0    0    0  0.00000000000E+00  0.00000000000E+00  0.45593999997E+02  0.45594000000E+02  0.51100000000E-03 0.  1.
         11   -1    0    0    0    0 -0.00000000000E+00 -0.00000000000E+00 -0.45593999997E+02  0.45594000000E+02  0.51100000000E-03 0. -1.
    9900012    2    1    2    0    0 -0.13136873796E+02 -0.22390370409E+02 -0.18515327248E+02  0.59301898274E+02  0.49999916556E+02 0.  0.
        -12    1    1    2    0    0  0.13136873796E+02  0.22390370409E+02  0.18515327248E+02  0.31886101726E+02  0.00000000000E+00 0.  1.
         11    1    3    3    0    0 -0.76379223302E+01 -0.15818609009E+02 -0.23471792001E+02  0.29317081514E+02  0.51100000000E-03 0. -1.
        -11    1    3    3    0    0 -0.16149589919E+02 -0.62620193148E+01 -0.17269997569E+01  0.17407029295E+02  0.51100000000E-03 0.  1.
        -12    1    3    3    0    0  0.10650638454E+02 -0.30974208567E+00  0.66834645104E+01  0.12577787464E+02  0.00000000000E+00 0.  1.
</event>
<event>
 7    1  0.7313719E-013  0.5930195E+02  0.7816164E-02  0.1266605E+00
        -11   -1    0    0    0    0  0.00000000000E+00  0.00000000000E+00  0.45593999997E+02  0.45594000000E+02  0.51100000000E-03 0. -1.
         11   -1    0    0    0    0 -0.00000000000E+00 -0.00000000000E+00 -0.45593999997E+02  0.45594000000E+02  0.51100000000E-03 0.  1.
    9900012    2    1    2    0    0  0.10252650389E+01  0.31518595792E+02 -0.47166701069E+01  0.59301952487E+02  0.50000015428E+02 0.  0.
        -12    1    1    2    0    0 -0.10252650389E+01 -0.31518595792E+02  0.47166701069E+01  0.31886047513E+02  0.00000000000E+00 0.  1.
         11    1    3    3    0    0 -0.54041213137E+01  0.18238658046E+01 -0.70468804296E+01  0.90658445661E+01  0.51100000000E-03 0. -1.
        -11    1    3    3    0    0  0.75968896292E+01 -0.23458400524E+01 -0.12576000802E+02  0.14878558197E+02  0.51100000000E-03 0.  1.
         12    1    3    3    0    0 -0.11675032766E+01  0.32040570040E+02  0.14906211125E+02  0.35357549724E+02  0.00000000000E+00 0. -1.
</event>
<event>
 7    1  0.7313719E-013  0.5930194E+02  0.7816164E-02  0.1266605E+00
        -11   -1    0    0    0    0  0.00000000000E+00  0.00000000000E+00  0.45593999997E+02  0.45594000000E+02  0.51100000000E-03 0.  1.
         11   -1    0    0    0    0 -0.00000000000E+00 -0.00000000000E+00 -0.45593999997E+02  0.45594000000E+02  0.51100000000E-03 0. -1.
    9900012    2    1    2    0    0  0.15281185006E+02  0.18789124320E+02 -0.20740659752E+02  0.59301940744E+02  0.49999994012E+02 0.  0.
        -12    1    1    2    0    0 -0.15281185006E+02 -0.18789124320E+02  0.20740659752E+02  0.31886059256E+02  0.00000000000E+00 0.  1.
         11    1    3    3    0    0  0.10105996431E+02  0.26402939447E+01 -0.25915221489E-01  0.10445237568E+02  0.51100000000E-03 0. -1.
        -11    1    3    3    0    0 -0.50429511176E+00 -0.78535119147E+01  0.78507642205E+01  0.11116045253E+02  0.51100000000E-03 0.  1.
         12    1    3    3    0    0  0.56794836865E+01  0.24002342290E+02 -0.28565508751E+02  0.37740657924E+02  0.00000000000E+00 0. -1.
</event>
<event>
 7    1  0.7313719E-013  0.5930195E+02  0.7816164E-02  0.1266605E+00
        -11   -1    0    0    0    0  0.00000000000E+00  0.00000000000E+00  0.45593999997E+02  0.45594000000E+02  0.51100000000E-03 0.  1.
         11   -1    0    0    0    0 -0.00000000000E+00 -0.00000000000E+00 -0.45593999997E+02  0.45594000000E+02  0.51100000000E-03 0. -1.
    9900012    2    1    2    0    0  0.91718245964E+01  0.18093887940E+02 -0.24601000437E+02  0.59301947097E+02  0.50000005599E+02 0.  0.
        -12    1    1    2    0    0 -0.91718245964E+01 -0.18093887940E+02  0.24601000437E+02  0.31886052903E+02  0.00000000000E+00 0.  1.
         11    1    3    3    0    0  0.11482423596E+02  0.10823937250E+02  0.81597780634E+01  0.17764730438E+02  0.51100000000E-03 0. -1.
        -11    1    3    3    0    0 -0.63766608622E+00  0.57359072632E+01  0.24381877510E+01  0.62651424517E+01  0.51100000000E-03 0.  1.
         12    1    3    3    0    0 -0.16729329135E+01  0.15340434270E+01 -0.35198966251E+02  0.35272074208E+02  0.00000000000E+00 0. -1.
</event>
<event>
 7    1  0.7313719E-013  0.5930196E+02  0.7816164E-02  0.1266605E+00
        -11   -1    0    0    0    0  0.00000000000E+00  0.00000000000E+00  0.45593999997E+02  0.45594000000E+02  0.51100000000E-03 0. -1.
         11   -1    0    0    0    0 -0.00000000000E+00 -0.00000000000E+00 -0.45593999997E+02  0.45594000000E+02  0.51100000000E-03 0.  1.
    9900012    2    1    2    0    0  0.22856845294E+02 -0.55076964098E+01  0.21539480401E+02  0.59301963676E+02  0.50000035834E+02 0.  0.
        -12    1    1    2    0    0 -0.22856845294E+02  0.55076964098E+01 -0.21539480401E+02  0.31886036324E+02  0.00000000000E+00 0.  1.
         11    1    3    3    0    0  0.25339130655E+02  0.10140118092E+02  0.18027007035E+01  0.27352207723E+02  0.51100000000E-03 0. -1.
        -11    1    3    3    0    0  0.35032053163E+00 -0.56280664253E+01 -0.33952808322E+01  0.65822327787E+01  0.51100000000E-03 0.  1.
         12    1    3    3    0    0 -0.28326058927E+01 -0.10019748076E+02  0.23132060529E+02  0.25367523174E+02  0.00000000000E+00 0. -1.
</event>
<event>
 7    1  0.7313719E-013  0.5930195E+02  0.7816164E-02  0.1266605E+00
        -11   -1    0    0    0    0  0.00000000000E+00  0.00000000000E+00  0.45593999997E+02  0.45594000000E+02  0.51100000000E-03 0.  1.
         11   -1    0    0    0    0 -0.00000000000E+00 -0.00000000000E+00 -0.45593999997E+02  0.45594000000E+02  0.51100000000E-03 0. -1.
    9900012    2    1    2    0    0 -0.17935916214E+02 -0.11370880615E+02 -0.23784996509E+02  0.59301951713E+02  0.50000014017E+02 0.  0.
        -12    1    1    2    0    0  0.17935916214E+02  0.11370880615E+02  0.23784996509E+02  0.31886048287E+02  0.00000000000E+00 0.  1.
         11    1    3    3    0    0  0.43415244580E-01 -0.19768154594E+02 -0.17351675841E+02  0.26303278801E+02  0.51100000000E-03 0. -1.
        -11    1    3    3    0    0 -0.17088310145E+02 -0.51812320393E+01  0.20587647014E+00  0.17857712464E+02  0.51100000000E-03 0.  1.
         12    1    3    3    0    0 -0.89102131323E+00  0.13578506018E+02 -0.66391971375E+01  0.15140960448E+02  0.00000000000E+00 0. -1.
</event>
<event>
 7    1  0.7313719E-013  0.5930196E+02  0.7816164E-02  0.1266605E+00
        -11   -1    0    0    0    0  0.00000000000E+00  0.00000000000E+00  0.45593999997E+02  0.45594000000E+02  0.51100000000E-03 0.  1.
         11   -1    0    0    0    0 -0.00000000000E+00 -0.00000000000E+00 -0.45593999997E+02  0.45594000000E+02  0.51100000000E-03 0. -1.
    9900012    2    1    2    0    0  0.24576958320E+02  0.10553951675E+02 -0.17358196925E+02  0.59301956396E+02  0.50000022557E+02 0.  0.
        -12    1    1    2    0    0 -0.24576958320E+02 -0.10553951675E+02  0.17358196925E+02  0.31886043604E+02  0.00000000000E+00 0.  1.
         11    1    3    3    0    0  0.10902446196E+02 -0.29302816454E+01 -0.23287507238E+02  0.25879680778E+02  0.51100000000E-03 0.  1.
        -11    1    3    3    0    0  0.13454764262E+01 -0.49734087128E+01 -0.62531504321E+01  0.81022831119E+01  0.51100000000E-03 0. -1.
        -12    1    3    3    0    0  0.12329035698E+02  0.18457642033E+02  0.12182460745E+02  0.25319992506E+02  0.00000000000E+00 0.  1.
</event>
<event>
 7    1  0.7313719E-013  0.5930194E+02  0.7816164E-02  0.1266605E+00
        -11   -1    0    0    0    0  0.00000000000E+00  0.00000000000E+00  0.45593999997E+02  0.45594000000E+02  0.51100000000E-03 0. -1.
         11   -1    0    0    0    0 -0.00000000000E+00 -0.00000000000E+00 -0.45593999997E+02  0.45594000000E+02  0.51100000000E-03 0.  1.
    9900012    2    1    2    0    0 -0.11315070900E+02 -0.19093936112E+01  0.29749692487E+02  0.59301940091E+02  0.49999992820E+02 0.  0.
        -12    1    1    2    0    0  0.11315070900E+02  0.19093936112E+01 -0.29749692487E+02  0.31886059909E+02  0.00000000000E+00 0.  1.
         11    1    3    3    0    0 -0.87053985971E+00 -0.27729732031E+01 -0.29711580854E+01  0.41563205678E+01  0.51100000000E-03 0. -1.
        -11    1    3    3    0    0 -0.11809480584E+01 -0.64322300828E+01 -0.93743496020E+01  0.11430076678E+02  0.51100000000E-03 0.  1.
         12    1    3    3    0    0 -0.92635829822E+01  0.72958096747E+01  0.42095200175E+02  0.43715542845E+02  0.00000000000E+00 0. -1.
</event>
<event>
 7    1  0.7313719E-013  0.5930195E+02  0.7816164E-02  0.1266605E+00
        -11   -1    0    0    0    0  0.00000000000E+00  0.00000000000E+00  0.45593999997E+02  0.45594000000E+02  0.51100000000E-03 0.  1.
         11   -1    0    0    0    0 -0.00000000000E+00 -0.00000000000E+00 -0.45593999997E+02  0.45594000000E+02  0.51100000000E-03 0. -1.
    9900012    2    1    2    0    0 -0.19662990229E+02  0.99373856836E+01 -0.23050714631E+02  0.59301948756E+02  0.50000008622E+02 0.  0.
        -12    1    1    2    0    0  0.19662990229E+02 -0.99373856836E+01  0.23050714631E+02  0.31886051244E+02  0.00000000000E+00 0.  1.
         11    1    3    3    0    0 -0.14892727348E+02  0.41606697937E+01 -0.11996201433E+02  0.19570726867E+02  0.51100000000E-03 0. -1.
        -11    1    3    3    0    0  0.39191837982E-01  0.17935869435E+02 -0.17582441929E+02  0.25116512752E+02  0.51100000000E-03 0.  1.
         12    1    3    3    0    0 -0.48094547183E+01 -0.12159153545E+02  0.65279287310E+01  0.14614709136E+02  0.00000000000E+00 0. -1.
</event>
<event>
 7    1  0.7313719E-013  0.5930193E+02  0.7816164E-02  0.1266605E+00
        -11   -1    0    0    0    0  0.00000000000E+00  0.00000000000E+00  0.45593999997E+02  0.45594000000E+02  0.51100000000E-03 0.  1.
         11   -1    0    0    0    0 -0.00000000000E+00 -0.00000000000E+00 -0.45593999997E+02  0.45594000000E+02  0.51100000000E-03 0. -1.
    9900012    2    1    2    0    0  0.18546402117E+02  0.57968613027E+01 -0.25281389520E+02  0.59301932689E+02  0.49999979322E+02 0.  0.
        -12    1    1    2    0    0 -0.18546402117E+02 -0.57968613027E+01  0.25281389520E+02  0.31886067311E+02  0.00000000000E+00 0.  1.
         11    1    3    3    0    0  0.44602613198E+01  0.35444708096E+01 -0.10862491857E+02  0.12265844201E+02  0.51100000000E-03 0. -1.
        -11    1    3    3    0    0  0.22556915861E+02  0.14853359236E+02 -0.14150545402E+01  0.27045131047E+02  0.51100000000E-03 0.  1.
         12    1    3    3    0    0 -0.84707750640E+01 -0.12600968743E+02 -0.13003843124E+02  0.19990957441E+02  0.00000000000E+00 0. -1.
</event>
<event>
 7    1  0.7313719E-013  0.5930193E+02  0.7816164E-02  0.1266605E+00
        -11   -1    0    0    0    0  0.00000000000E+00  0.00000000000E+00  0.45593999997E+02  0.45594000000E+02  0.51100000000E-03 0.  1.
         11   -1    0    0    0    0 -0.00000000000E+00 -0.00000000000E+00 -0.45593999997E+02  0.45594000000E+02  0.51100000000E-03 0. -1.
    9900012    2    1    2    0    0  0.27059162943E+02  0.80876740638E+01 -0.14802452663E+02  0.59301931321E+02  0.49999976826E+02 0.  0.
        -12    1    1    2    0    0 -0.27059162943E+02 -0.80876740638E+01  0.14802452663E+02  0.31886068679E+02  0.00000000000E+00 0.  1.
         11    1    3    3    0    0  0.11499225215E+02  0.61812070674E+01 -0.74244406042E+01  0.15018715654E+02  0.51100000000E-03 0. -1.
        -11    1    3    3    0    0  0.12693424427E+02  0.13296290007E+02 -0.19916413353E+02  0.27103097106E+02  0.51100000000E-03 0.  1.
        -12    1    3    3    0    0  0.28665133015E+01 -0.11389823010E+02  0.12538401295E+02  0.17180118561E+02  0.00000000000E+00 0.  1.
</event>
<event>
 7    1  0.7313719E-013  0.5930194E+02  0.7816164E-02  0.1266605E+00
        -11   -1    0    0    0    0  0.00000000000E+00  0.00000000000E+00  0.45593999997E+02  0.45594000000E+02  0.51100000000E-03 0. -1.
         11   -1    0    0    0    0 -0.00000000000E+00 -0.00000000000E+00 -0.45593999997E+02  0.45594000000E+02  0.51100000000E-03 0.  1.
    9900012    2    1    2    0    0 -0.27467834321E+01 -0.24570359886E+02  0.20136377876E+02  0.59301935361E+02  0.49999984194E+02 0.  0.
        -12    1    1    2    0    0  0.27467834321E+01  0.24570359886E+02 -0.20136377876E+02  0.31886064639E+02  0.00000000000E+00 0.  1.
         11    1    3    3    0    0 -0.11717045625E+02 -0.15510174551E+02  0.46974943972E+01  0.19998028069E+02  0.51100000000E-03 0. -1.
        -11    1    3    3    0    0 -0.53582825610E+01 -0.14066808736E+02  0.18469091484E+02  0.23826322430E+02  0.51100000000E-03 0.  1.
        -12    1    3    3    0    0  0.14328544754E+02  0.50066234005E+01 -0.30302080048E+01  0.15477584863E+02  0.00000000000E+00 0.  1.
</event>
<event>
 7    1  0.7313719E-013  0.5930192E+02  0.7816164E-02  0.1266605E+00
        -11   -1    0    0    0    0  0.00000000000E+00  0.00000000000E+00  0.45593999997E+02  0.45594000000E+02  0.51100000000E-03 0.  1.
         11   -1    0    0    0    0 -0.00000000000E+00 -0.00000000000E+00 -0.45593999997E+02  0.45594000000E+02  0.51100000000E-03 0. -1.
    9900012    2    1    2    0    0 -0.27200184191E+02 -0.51403418648E+01 -0.15825571753E+02  0.59301923794E+02  0.49999963098E+02 0.  0.
        -12    1    1    2    0    0  0.27200184191E+02  0.51403418648E+01  0.15825571753E+02  0.31886076206E+02  0.00000000000E+00 0.  1.
         11    1    3    3    0    0  0.61229683283E+00  0.52286962592E+01 -0.13627463414E+02  0.14608967498E+02  0.51100000000E-03 0. -1.
        -11    1    3    3    0    0  0.65156126381E+01 -0.77636773368E+01 -0.15996564939E+01  0.10260935386E+02  0.51100000000E-03 0.  1.
         12    1    3    3    0    0 -0.34328093662E+02 -0.26053607872E+01 -0.59845184501E+00  0.34432020910E+02  0.00000000000E+00 0. -1.
</event>
<event>
 7    1  0.7313719E-013  0.5930195E+02  0.7816164E-02  0.1266605E+00
        -11   -1    0    0    0    0  0.00000000000E+00  0.00000000000E+00  0.45593999997E+02  0.45594000000E+02  0.51100000000E-03 0.  1.
         11   -1    0    0    0    0 -0.00000000000E+00 -0.00000000000E+00 -0.45593999997E+02  0.45594000000E+02  0.51100000000E-03 0. -1.
    9900012    2    1    2    0    0  0.25268097839E+02  0.79401379146E+01 -0.17753812630E+02  0.59301946287E+02  0.50000004120E+02 0.  0.
        -12    1    1    2    0    0 -0.25268097839E+02 -0.79401379146E+01  0.17753812630E+02  0.31886053713E+02  0.00000000000E+00 0.  1.
         11    1    3    3    0    0 -0.22078470147E+01  0.41827944341E+01 -0.91610413069E+01  0.10309948390E+02  0.51100000000E-03 0. -1.
        -11    1    3    3    0    0 -0.84995619850E+01 -0.46185221660E+01  0.32461015071E+01  0.10203454130E+02  0.51100000000E-03 0.  1.
        -12    1    3    3    0    0  0.35975506838E+02  0.83758656464E+01 -0.11838872830E+02  0.38788543766E+02  0.00000000000E+00 0.  1.
</event>
<event>
 7    1  0.7313719E-013  0.5930194E+02  0.7816164E-02  0.1266605E+00
        -11   -1    0    0    0    0  0.00000000000E+00  0.00000000000E+00  0.45593999997E+02  0.45594000000E+02  0.51100000000E-03 0.  1.
         11   -1    0    0    0    0 -0.00000000000E+00 -0.00000000000E+00 -0.45593999997E+02  0.45594000000E+02  0.51100000000E-03 0. -1.
    9900012    2    1    2    0    0 -0.15492165870E+02  0.12106474014E+02 -0.25102726496E+02  0.59301940445E+02  0.49999993466E+02 0.  0.
        -12    1    1    2    0    0  0.15492165870E+02 -0.12106474014E+02  0.25102726496E+02  0.31886059555E+02  0.00000000000E+00 0.  1.
         11    1    3    3    0    0  0.40001677686E+01  0.79133334239E+01 -0.74315460237E+01  0.11569358868E+02  0.51100000000E-03 0.  1.
        -11    1    3    3    0    0  0.33016354155E+01  0.15517603515E+02 -0.15513328975E+02  0.22189190869E+02  0.51100000000E-03 0. -1.
        -12    1    3    3    0    0 -0.22793969054E+02 -0.11324462925E+02 -0.21578514976E+01  0.25543390708E+02  0.00000000000E+00 0.  1.
</event>
<event>
 7    1  0.7313719E-013  0.5930195E+02  0.7816164E-02  0.1266605E+00
        -11   -1    0    0    0    0  0.00000000000E+00  0.00000000000E+00  0.45593999997E+02  0.45594000000E+02  0.51100000000E-03 0.  1.
         11   -1    0    0    0    0 -0.00000000000E+00 -0.00000000000E+00 -0.45593999997E+02  0.45594000000E+02  0.51100000000E-03 0. -1.
    9900012    2    1    2    0    0 -0.54284747467E+01 -0.34975409726E+01 -0.31225290889E+02  0.59301954118E+02  0.50000018402E+02 0.  0.
        -12    1    1    2    0    0  0.54284747467E+01  0.34975409726E+01  0.31225290889E+02  0.31886045882E+02  0.00000000000E+00 0.  1.
         11    1    3    3    0    0  0.51758944243E+00  0.51463571448E+01  0.79378834179E+01  0.94743276337E+01  0.51100000000E-03 0. -1.
        -11    1    3    3    0    0 -0.37015953181E+01  0.94606765962E+01 -0.55332743104E+01  0.11568203595E+02  0.51100000000E-03 0.  1.
         12    1    3    3    0    0 -0.22444688710E+01 -0.18104574714E+02 -0.33629899996E+02  0.38259422889E+02  0.00000000000E+00 0. -1.
</event>
<event>
 7    1  0.7313719E-013  0.5930195E+02  0.7816164E-02  0.1266605E+00
        -11   -1    0    0    0    0  0.00000000000E+00  0.00000000000E+00  0.45593999997E+02  0.45594000000E+02  0.51100000000E-03 0. -1.
         11   -1    0    0    0    0 -0.00000000000E+00 -0.00000000000E+00 -0.45593999997E+02  0.45594000000E+02  0.51100000000E-03 0.  1.
    9900012    2    1    2    0    0  0.28398924003E+02  0.11970199362E+02 -0.81814325014E+01  0.59301946699E+02  0.50000004872E+02 0.  0.
        -12    1    1    2    0    0 -0.28398924003E+02 -0.11970199362E+02  0.81814325014E+01  0.31886053301E+02  0.00000000000E+00 0.  1.
         11    1    3    3    0    0  0.58450505523E+01  0.98559486299E+01 -0.84298006330E+01  0.14225536135E+02  0.51100000000E-03 0. -1.
        -11    1    3    3    0    0  0.20379386369E+02 -0.22167436878E+01 -0.17329348138E+02  0.26842869603E+02  0.51100000000E-03 0.  1.
        -12    1    3    3    0    0  0.21744870819E+01  0.43309944197E+01  0.17577716270E+02  0.18233540961E+02  0.00000000000E+00 0.  1.
</event>
<event>
 7    1  0.7313719E-013  0.5930195E+02  0.7816164E-02  0.1266605E+00
        -11   -1    0    0    0    0  0.00000000000E+00  0.00000000000E+00  0.45593999997E+02  0.45594000000E+02  0.51100000000E-03 0. -1.
         11   -1    0    0    0    0 -0.00000000000E+00 -0.00000000000E+00 -0.45593999997E+02  0.45594000000E+02  0.51100000000E-03 0.  1.
    9900012    2    1    2    0    0 -0.17993297188E+02  0.12381029312E+02  0.23230831818E+02  0.59301950112E+02  0.50000011095E+02 0.  0.
        -12    1    1    2    0    0  0.17993297188E+02 -0.12381029312E+02 -0.23230831818E+02  0.31886049888E+02  0.00000000000E+00 0.  1.
         11    1    3    3    0    0 -0.22533067306E+02  0.30741847278E+01  0.94112583398E+01  0.24612222934E+02  0.51100000000E-03 0. -1.
        -11    1    3    3    0    0 -0.19957717565E+01 -0.96336793065E+01 -0.82384185835E+00  0.98726692213E+01  0.51100000000E-03 0.  1.
        -12    1    3    3    0    0  0.65355418750E+01  0.18940523891E+02  0.14643415337E+02  0.24817057956E+02  0.00000000000E+00 0.  1.
</event>
<event>
 7    1  0.7313719E-013  0.5930195E+02  0.7816164E-02  0.1266605E+00
        -11   -1    0    0    0    0  0.00000000000E+00  0.00000000000E+00  0.45593999997E+02  0.45594000000E+02  0.51100000000E-03 0.  1.
         11   -1    0    0    0    0 -0.00000000000E+00 -0.00000000000E+00 -0.45593999997E+02  0.45594000000E+02  0.51100000000E-03 0. -1.
    9900012    2    1    2    0    0  0.20259355886E+02  0.80159291490E+01 -0.23281393384E+02  0.59301954480E+02  0.50000019062E+02 0.  0.
        -12    1    1    2    0    0 -0.20259355886E+02 -0.80159291490E+01  0.23281393384E+02  0.31886045520E+02  0.00000000000E+00 0.  1.
         11    1    3    3    0    0  0.16132371519E+02 -0.10086517287E+02 -0.32783038563E+02  0.37904074445E+02  0.51100000000E-03 0.  1.
        -11    1    3    3    0    0  0.37333150509E+01  0.81329405299E+01  0.62066884880E+01  0.10890608118E+02  0.51100000000E-03 0. -1.
        -12    1    3    3    0    0  0.39366931586E+00  0.99695059061E+01  0.32949566915E+01  0.10507271917E+02  0.00000000000E+00 0.  1.
</event>
<event>
 7    1  0.7313719E-013  0.5930192E+02  0.7816164E-02  0.1266605E+00
        -11   -1    0    0    0    0  0.00000000000E+00  0.00000000000E+00  0.45593999997E+02  0.45594000000E+02  0.51100000000E-03 0.  1.
         11   -1    0    0    0    0 -0.00000000000E+00 -0.00000000000E+00 -0.45593999997E+02  0.45594000000E+02  0.51100000000E-03 0. -1.
    9900012    2    1    2    0    0 -0.31481049811E+02  0.18270505302E+01 -0.47252074962E+01  0.59301918448E+02  0.49999953349E+02 0.  0.
        -12    1    1    2    0    0  0.31481049811E+02 -0.18270505302E+01  0.47252074962E+01  0.31886081552E+02  0.00000000000E+00 0.  1.
         11    1    3    3    0    0 -0.14559162308E+00 -0.62108333361E+01  0.22493483388E+01  0.66072093852E+01  0.51100000000E-03 0. -1.
        -11    1    3    3    0    0  0.33207189855E+01 -0.10464341380E+02 -0.76871918368E+01  0.13402333144E+02  0.51100000000E-03 0.  1.
         12    1    3    3    0    0 -0.34656177173E+02  0.18502225246E+02  0.71263600181E+00  0.39292375920E+02  0.00000000000E+00 0. -1.
</event>
<event>
 7    1  0.7313719E-013  0.5930194E+02  0.7816164E-02  0.1266605E+00
        -11   -1    0    0    0    0  0.00000000000E+00  0.00000000000E+00  0.45593999997E+02  0.45594000000E+02  0.51100000000E-03 0.  1.
         11   -1    0    0    0    0 -0.00000000000E+00 -0.00000000000E+00 -0.45593999997E+02  0.45594000000E+02  0.51100000000E-03 0. -1.
    9900012    2    1    2    0    0  0.93569978197E+01  0.20989535140E+02 -0.22104449951E+02  0.59301941899E+02  0.49999996117E+02 0.  0.
        -12    1    1    2    0    0 -0.93569978197E+01 -0.20989535140E+02  0.22104449951E+02  0.31886058101E+02  0.00000000000E+00 0.  1.
         11    1    3    3    0    0 -0.13133454048E+02  0.80530906065E+01 -0.86114241480E+01  0.17649263715E+02  0.51100000000E-03 0. -1.
        -11    1    3    3    0    0  0.11454849732E+02 -0.24655212208E+01  0.70750247597E+01  0.13687525447E+02  0.51100000000E-03 0.  1.
         12    1    3    3    0    0  0.11035602136E+02  0.15401965755E+02 -0.20568050563E+02  0.27965152737E+02  0.00000000000E+00 0. -1.
</event>
<event>
 7    1  0.7313719E-013  0.5930196E+02  0.7816164E-02  0.1266605E+00
        -11   -1    0    0    0    0  0.00000000000E+00  0.00000000000E+00  0.45593999997E+02  0.45594000000E+02  0.51100000000E-03 0. -1.
         11   -1    0    0    0    0 -0.00000000000E+00 -0.00000000000E+00 -0.45593999997E+02  0.45594000000E+02  0.51100000000E-03 0.  1.
    9900012    2    1    2    0    0 -0.54709322435E+01 -0.88751384885E+01  0.30133374072E+02  0.59301962056E+02  0.50000032879E+02 0.  0.
        -12    1    1    2    0    0  0.54709322435E+01  0.88751384885E+01 -0.30133374072E+02  0.31886037944E+02  0.00000000000E+00 0.  1.
         11    1    3    3    0    0 -0.18498347873E+02 -0.27952044179E+01  0.59503503463E+01  0.19631829036E+02  0.51100000000E-03 0. -1.
        -11    1    3    3    0    0 -0.85666102692E+01 -0.44991025046E+01  0.59115824737E+01  0.11339115594E+02  0.51100000000E-03 0.  1.
         12    1    3    3    0    0  0.21594025899E+02 -0.15808315661E+01  0.18271441252E+02  0.28331017426E+02  0.00000000000E+00 0. -1.
</event>
<event>
 7    1  0.7313719E-013  0.5930195E+02  0.7816164E-02  0.1266605E+00
        -11   -1    0    0    0    0  0.00000000000E+00  0.00000000000E+00  0.45593999997E+02  0.45594000000E+02  0.51100000000E-03 0. -1.
         11   -1    0    0    0    0 -0.00000000000E+00 -0.00000000000E+00 -0.45593999997E+02  0.45594000000E+02  0.51100000000E-03 0.  1.
    9900012    2    1    2    0    0 -0.10670671830E+02  0.25631150970E+02  0.15681232529E+02  0.59301949900E+02  0.50000010710E+02 0.  0.
        -12    1    1    2    0    0  0.10670671830E+02 -0.25631150970E+02 -0.15681232529E+02  0.31886050100E+02  0.00000000000E+00 0.  1.
         11    1    3    3    0    0 -0.18797288856E+02  0.67741292441E+01  0.35901031082E+01  0.20300633880E+02  0.51100000000E-03 0. -1.
        -11    1    3    3    0    0  0.67614056365E+01  0.26803072479E+02  0.46525602445E+01  0.28031546829E+02  0.51100000000E-03 0.  1.
         12    1    3    3    0    0  0.13652113895E+01 -0.79460507540E+01  0.74385691760E+01  0.10969769191E+02  0.00000000000E+00 0. -1.
</event>
<event>
 7    1  0.7313719E-013  0.5930193E+02  0.7816164E-02  0.1266605E+00
        -11   -1    0    0    0    0  0.00000000000E+00  0.00000000000E+00  0.45593999997E+02  0.45594000000E+02  0.51100000000E-03 0. -1.
         11   -1    0    0    0    0 -0.00000000000E+00 -0.00000000000E+00 -0.45593999997E+02  0.45594000000E+02  0.51100000000E-03 0.  1.
    9900012    2    1    2    0    0 -0.82117371541E+00 -0.23161163137E+02 -0.21899944536E+02  0.59301931337E+02  0.49999976855E+02 0.  0.
        -12    1    1    2    0    0  0.82117371541E+00  0.23161163137E+02  0.21899944536E+02  0.31886068663E+02  0.00000000000E+00 0.  1.
         11    1    3    3    0    0 -0.14148088743E+01 -0.11167878922E+02 -0.13261534076E+01  0.11334985086E+02  0.51100000000E-03 0. -1.
        -11    1    3    3    0    0 -0.14471121072E+02 -0.20160226733E+02 -0.17958115275E+02  0.30632368362E+02  0.51100000000E-03 0.  1.
        -12    1    3    3    0    0  0.15064756231E+02  0.81669425191E+01 -0.26156758539E+01  0.17334577889E+02  0.00000000000E+00 0.  1.
</event>
<event>
 7    1  0.7313719E-013  0.5930194E+02  0.7816164E-02  0.1266605E+00
        -11   -1    0    0    0    0  0.00000000000E+00  0.00000000000E+00  0.45593999997E+02  0.45594000000E+02  0.51100000000E-03 0.  1.
         11   -1    0    0    0    0 -0.00000000000E+00 -0.00000000000E+00 -0.45593999997E+02  0.45594000000E+02  0.51100000000E-03 0. -1.
    9900012    2    1    2    0    0  0.13477440306E+02 -0.22047376879E+01 -0.28813513145E+02  0.59301940268E+02  0.49999993143E+02 0.  0.
        -12    1    1    2    0    0 -0.13477440306E+02  0.22047376879E+01  0.28813513145E+02  0.31886059732E+02  0.00000000000E+00 0.  1.
         11    1    3    3    0    0 -0.85489797542E+01 -0.99550219794E+01 -0.22151292953E+02  0.25746209375E+02  0.51100000000E-03 0. -1.
        -11    1    3    3    0    0  0.10686436962E+02 -0.31902807321E+01 -0.12499896660E+02  0.16751872816E+02  0.51100000000E-03 0.  1.
        -12    1    3    3    0    0  0.11339983098E+02  0.10940565024E+02  0.58376764678E+01  0.16803858076E+02  0.00000000000E+00 0.  1.
</event>
<event>
 7    1  0.7313719E-013  0.5930193E+02  0.7816164E-02  0.1266605E+00
        -11   -1    0    0    0    0  0.00000000000E+00  0.00000000000E+00  0.45593999997E+02  0.45594000000E+02  0.51100000000E-03 0.  1.
         11   -1    0    0    0    0 -0.00000000000E+00 -0.00000000000E+00 -0.45593999997E+02  0.45594000000E+02  0.51100000000E-03 0. -1.
    9900012    2    1    2    0    0  0.72290719531E+01  0.10456496355E+02 -0.29242501243E+02  0.59301926609E+02  0.49999968232E+02 0.  0.
        -12    1    1    2    0    0 -0.72290719531E+01 -0.10456496355E+02  0.29242501243E+02  0.31886073391E+02  0.00000000000E+00 0.  1.
         11    1    3    3    0    0  0.59534645864E+01 -0.82244324648E+01 -0.29366424743E+01  0.10569243078E+02  0.51100000000E-03 0. -1.
        -11    1    3    3    0    0 -0.17602320214E+02  0.83312325429E+01 -0.13247300816E+02  0.23552963545E+02  0.51100000000E-03 0.  1.
         12    1    3    3    0    0  0.18877927581E+02  0.10349696277E+02 -0.13058557954E+02  0.25179719986E+02  0.00000000000E+00 0. -1.
</event>
<event>
 7    1  0.7313719E-013  0.5930191E+02  0.7816164E-02  0.1266605E+00
        -11   -1    0    0    0    0  0.00000000000E+00  0.00000000000E+00  0.45593999997E+02  0.45594000000E+02  0.51100000000E-03 0. -1.
         11   -1    0    0    0    0 -0.00000000000E+00 -0.00000000000E+00 -0.45593999997E+02  0.45594000000E+02  0.51100000000E-03 0.  1.
    9900012    2    1    2    0    0 -0.28641501082E+02  0.99876539901E+00  0.13978185367E+02  0.59301909260E+02  0.49999936591E+02 0.  0.
        -12    1    1    2    0    0  0.28641501082E+02 -0.99876539901E+00 -0.13978185367E+02  0.31886090740E+02  0.00000000000E+00 0.  1.
         11    1    3    3    0    0 -0.20881833845E+02 -0.23652921055E+01  0.13915408373E+02  0.25204844414E+02  0.51100000000E-03 0. -1.
        -11    1    3    3    0    0 -0.17731800270E+02  0.29754159367E+01  0.95230965967E+01  0.20345987562E+02  0.51100000000E-03 0.  1.
        -12    1    3    3    0    0  0.99721330322E+01  0.38864156790E+00 -0.94603196035E+01  0.13751077284E+02  0.00000000000E+00 0.  1.
</event>
<event>
 7    1  0.7313719E-013  0.5930197E+02  0.7816164E-02  0.1266605E+00
        -11   -1    0    0    0    0  0.00000000000E+00  0.00000000000E+00  0.45593999997E+02  0.45594000000E+02  0.51100000000E-03 0.  1.
         11   -1    0    0    0    0 -0.00000000000E+00 -0.00000000000E+00 -0.45593999997E+02  0.45594000000E+02  0.51100000000E-03 0. -1.
    9900012    2    1    2    0    0  0.31200492507E+02  0.55823222098E+01 -0.34764390207E+01  0.59301973559E+02  0.50000053857E+02 0.  0.
        -12    1    1    2    0    0 -0.31200492507E+02 -0.55823222098E+01  0.34764390207E+01  0.31886026441E+02  0.00000000000E+00 0.  1.
         11    1    3    3    0    0  0.33480793538E+02  0.36826099288E+01  0.13827079837E+02  0.36410345904E+02  0.51100000000E-03 0. -1.
        -11    1    3    3    0    0 -0.19762260997E+01 -0.63701990768E+01 -0.85782786393E+01  0.10866083496E+02  0.51100000000E-03 0.  1.
        -12    1    3    3    0    0 -0.30407493062E+00  0.82699113578E+01 -0.87252402182E+01  0.12025544158E+02  0.00000000000E+00 0.  1.
</event>
<event>
 7    1  0.7313719E-013  0.5930195E+02  0.7816164E-02  0.1266605E+00
        -11   -1    0    0    0    0  0.00000000000E+00  0.00000000000E+00  0.45593999997E+02  0.45594000000E+02  0.51100000000E-03 0. -1.
         11   -1    0    0    0    0 -0.00000000000E+00 -0.00000000000E+00 -0.45593999997E+02  0.45594000000E+02  0.51100000000E-03 0.  1.
    9900012    2    1    2    0    0  0.75399552721E+01 -0.26916059637E+02  0.15342593868E+02  0.59301946960E+02  0.50000005347E+02 0.  0.
        -12    1    1    2    0    0 -0.75399552721E+01  0.26916059637E+02 -0.15342593868E+02  0.31886053040E+02  0.00000000000E+00 0.  1.
         11    1    3    3    0    0 -0.48922653450E+01 -0.76191494476E+01  0.83469957342E+01  0.12314951748E+02  0.51100000000E-03 0. -1.
        -11    1    3    3    0    0  0.13914469151E+02 -0.25317202171E+02  0.18226649676E+02  0.34158219160E+02  0.51100000000E-03 0.  1.
        -12    1    3    3    0    0 -0.14822485340E+01  0.60202919808E+01 -0.11231051542E+02  0.12828776052E+02  0.00000000000E+00 0.  1.
</event>
<event>
 7    1  0.7313719E-013  0.5930192E+02  0.7816164E-02  0.1266605E+00
        -11   -1    0    0    0    0  0.00000000000E+00  0.00000000000E+00  0.45593999997E+02  0.45594000000E+02  0.51100000000E-03 0. -1.
         11   -1    0    0    0    0 -0.00000000000E+00 -0.00000000000E+00 -0.45593999997E+02  0.45594000000E+02  0.51100000000E-03 0.  1.
    9900012    2    1    2    0    0 -0.31375599288E+02  0.31637216639E+01 -0.47206401848E+01  0.59301924524E+02  0.49999964431E+02 0.  0.
        -12    1    1    2    0    0  0.31375599288E+02 -0.31637216639E+01  0.47206401848E+01  0.31886075476E+02  0.00000000000E+00 0.  1.
         11    1    3    3    0    0  0.14166143269E+00  0.96721553748E+01  0.45345213533E+01  0.10683283284E+02  0.51100000000E-03 0. -1.
        -11    1    3    3    0    0 -0.33855839138E+02  0.64519195486E+01 -0.53175478246E+01  0.34872932551E+02  0.51100000000E-03 0.  1.
        -12    1    3    3    0    0  0.23385784168E+01 -0.12960353260E+02 -0.39376137135E+01  0.13745708690E+02  0.00000000000E+00 0.  1.
</event>
<event>
 7    1  0.7313719E-013  0.5930196E+02  0.7816164E-02  0.1266605E+00
        -11   -1    0    0    0    0  0.00000000000E+00  0.00000000000E+00  0.45593999997E+02  0.45594000000E+02  0.51100000000E-03 0.  1.
         11   -1    0    0    0    0 -0.00000000000E+00 -0.00000000000E+00 -0.45593999997E+02  0.45594000000E+02  0.51100000000E-03 0. -1.
    9900012    2    1    2    0    0  0.18856369623E+02 -0.83114486128E+01 -0.24332626674E+02  0.59301959571E+02  0.50000028347E+02 0.  0.
        -12    1    1    2    0    0 -0.18856369623E+02  0.83114486128E+01  0.24332626674E+02  0.31886040429E+02  0.00000000000E+00 0.  1.
         11    1    3    3    0    0  0.52436324287E+00 -0.83291679914E+01 -0.15524632805E+02  0.17625669356E+02  0.51100000000E-03 0. -1.
        -11    1    3    3    0    0  0.19303158197E+02 -0.14801667032E+02 -0.10941927931E+02  0.26672589871E+02  0.51100000000E-03 0.  1.
        -12    1    3    3    0    0 -0.97115181740E+00  0.14819386411E+02  0.21339340616E+01  0.15003700344E+02  0.00000000000E+00 0.  1.
</event>
<event>
 7    1  0.7313719E-013  0.5930199E+02  0.7816164E-02  0.1266605E+00
        -11   -1    0    0    0    0  0.00000000000E+00  0.00000000000E+00  0.45593999997E+02  0.45594000000E+02  0.51100000000E-03 0. -1.
         11   -1    0    0    0    0 -0.00000000000E+00 -0.00000000000E+00 -0.45593999997E+02  0.45594000000E+02  0.51100000000E-03 0.  1.
    9900012    2    1    2    0    0  0.16585730936E+01  0.31785105838E+02  0.19167583690E+01  0.59301987699E+02  0.50000079646E+02 0.  0.
        -12    1    1    2    0    0 -0.16585730936E+01 -0.31785105838E+02 -0.19167583690E+01  0.31886012301E+02  0.00000000000E+00 0.  1.
         11    1    3    3    0    0  0.82743160784E+01 -0.98168152315E+00  0.10721433981E+01  0.84010414179E+01  0.51100000000E-03 0. -1.
        -11    1    3    3    0    0  0.69373538524E+01  0.18887279094E+02 -0.15607563245E+02  0.25464725028E+02  0.51100000000E-03 0.  1.
         12    1    3    3    0    0 -0.13553096837E+02  0.13879508267E+02  0.16452178216E+02  0.25436221253E+02  0.00000000000E+00 0. -1.
</event>
<event>
 7    1  0.7313719E-013  0.5930213E+02  0.7816164E-02  0.1266604E+00
        -11   -1    0    0    0    0  0.00000000000E+00  0.00000000000E+00  0.45593999997E+02  0.45594000000E+02  0.51100000000E-03 0. -1.
         11   -1    0    0    0    0 -0.00000000000E+00 -0.00000000000E+00 -0.45593999997E+02  0.45594000000E+02  0.51100000000E-03 0.  1.
    9900012    2    1    2    0    0 -0.29116821003E+01  0.31603805222E+02  0.30708753019E+01  0.59302130523E+02  0.50000340122E+02 0.  0.
        -12    1    1    2    0    0  0.29116821003E+01 -0.31603805222E+02 -0.30708753019E+01  0.31885869477E+02  0.00000000000E+00 0.  1.
         11    1    3    3    0    0  0.49518422231E+01 -0.70271196127E+01 -0.69734698700E+00  0.86248156233E+01  0.51100000000E-03 0. -1.
        -11    1    3    3    0    0  0.61476281655E+01  0.84001850954E+01  0.12466354333E+02  0.16240887670E+02  0.51100000000E-03 0.  1.
        -12    1    3    3    0    0 -0.14011152489E+02  0.30230739740E+02 -0.86981320444E+01  0.34436427229E+02  0.00000000000E+00 0.  1.
</event>
<event>
 7    1  0.7313719E-013  0.5930196E+02  0.7816164E-02  0.1266605E+00
        -11   -1    0    0    0    0  0.00000000000E+00  0.00000000000E+00  0.45593999997E+02  0.45594000000E+02  0.51100000000E-03 0. -1.
         11   -1    0    0    0    0 -0.00000000000E+00 -0.00000000000E+00 -0.45593999997E+02  0.45594000000E+02  0.51100000000E-03 0.  1.
    9900012    2    1    2    0    0 -0.87954866856E+01 -0.25091492302E+02  0.17600458769E+02  0.59301957272E+02  0.50000024154E+02 0.  0.
        -12    1    1    2    0    0  0.87954866856E+01  0.25091492302E+02 -0.17600458769E+02  0.31886042728E+02  0.00000000000E+00 0.  1.
         11    1    3    3    0    0 -0.14145409012E+01  0.80544885946E+01  0.17302200552E+02  0.19137446452E+02  0.51100000000E-03 0. -1.
        -11    1    3    3    0    0 -0.14018959827E+02 -0.18870786694E+02  0.43524948236E+01  0.23907781924E+02  0.51100000000E-03 0.  1.
        -12    1    3    3    0    0  0.66380140422E+01 -0.14275194203E+02 -0.40542366068E+01  0.16256728896E+02  0.00000000000E+00 0.  1.
</event>
<event>
 7    1  0.7313719E-013  0.5930196E+02  0.7816164E-02  0.1266605E+00
        -11   -1    0    0    0    0  0.00000000000E+00  0.00000000000E+00  0.45593999997E+02  0.45594000000E+02  0.51100000000E-03 0.  1.
         11   -1    0    0    0    0 -0.00000000000E+00 -0.00000000000E+00 -0.45593999997E+02  0.45594000000E+02  0.51100000000E-03 0. -1.
    9900012    2    1    2    0    0  0.14724117739E+01 -0.18375003389E+02 -0.26017510258E+02  0.59301959387E+02  0.50000028011E+02 0.  0.
        -12    1    1    2    0    0 -0.14724117739E+01  0.18375003389E+02  0.26017510258E+02  0.31886040613E+02  0.00000000000E+00 0.  1.
         11    1    3    3    0    0 -0.84057316301E+01 -0.14201031073E+02 -0.29390116488E+01  0.16761962818E+02  0.51100000000E-03 0. -1.
        -11    1    3    3    0    0  0.18038548251E+02  0.28905686691E+01 -0.13989331330E+01  0.18322162111E+02  0.51100000000E-03 0.  1.
         12    1    3    3    0    0 -0.81604048472E+01 -0.70645409849E+01 -0.21679565476E+02  0.24217834458E+02  0.00000000000E+00 0. -1.
</event>
<event>
 7    1  0.7313719E-013  0.5930194E+02  0.7816164E-02  0.1266605E+00
        -11   -1    0    0    0    0  0.00000000000E+00  0.00000000000E+00  0.45593999997E+02  0.45594000000E+02  0.51100000000E-03 0.  1.
         11   -1    0    0    0    0 -0.00000000000E+00 -0.00000000000E+00 -0.45593999997E+02  0.45594000000E+02  0.51100000000E-03 0. -1.
    9900012    2    1    2    0    0  0.89432481977E+01  0.27857493039E+02 -0.12676727080E+02  0.59301936959E+02  0.49999987109E+02 0.  0.
        -12    1    1    2    0    0 -0.89432481977E+01 -0.27857493039E+02  0.12676727080E+02  0.31886063041E+02  0.00000000000E+00 0.  1.
         11    1    3    3    0    0 -0.92623620171E+00  0.89604811698E+01 -0.67921343565E+00  0.90337958494E+01  0.51100000000E-03 0. -1.
        -11    1    3    3    0    0  0.21988187733E+02  0.20094180130E+02  0.41167437157E+01  0.30069985932E+02  0.51100000000E-03 0.  1.
        -12    1    3    3    0    0 -0.12118703333E+02 -0.11971682608E+01 -0.16114257360E+02  0.20198155178E+02  0.00000000000E+00 0.  1.
</event>
<event>
 7    1  0.7313719E-013  0.5930193E+02  0.7816164E-02  0.1266605E+00
        -11   -1    0    0    0    0  0.00000000000E+00  0.00000000000E+00  0.45593999997E+02  0.45594000000E+02  0.51100000000E-03 0. -1.
         11   -1    0    0    0    0 -0.00000000000E+00 -0.00000000000E+00 -0.45593999997E+02  0.45594000000E+02  0.51100000000E-03 0.  1.
    9900012    2    1    2    0    0 -0.53394416177E+01 -0.72995068347E+01  0.30576606303E+02  0.59301932669E+02  0.49999979284E+02 0.  0.
        -12    1    1    2    0    0  0.53394416177E+01  0.72995068347E+01 -0.30576606303E+02  0.31886067331E+02  0.00000000000E+00 0.  1.
         11    1    3    3    0    0  0.19412600270E+01 -0.79159241297E+01 -0.49751577445E+01  0.95489549252E+01  0.51100000000E-03 0. -1.
        -11    1    3    3    0    0 -0.69377794944E+01  0.13963734291E+02  0.49399424539E+01  0.16356090345E+02  0.51100000000E-03 0.  1.
        -12    1    3    3    0    0 -0.34292215025E+00 -0.13347316996E+02  0.30611821594E+02  0.33396887398E+02  0.00000000000E+00 0.  1.
</event>
<event>
 7    1  0.7313719E-013  0.5930195E+02  0.7816164E-02  0.1266605E+00
        -11   -1    0    0    0    0  0.00000000000E+00  0.00000000000E+00  0.45593999997E+02  0.45594000000E+02  0.51100000000E-03 0.  1.
         11   -1    0    0    0    0 -0.00000000000E+00 -0.00000000000E+00 -0.45593999997E+02  0.45594000000E+02  0.51100000000E-03 0. -1.
    9900012    2    1    2    0    0  0.12880973173E+02  0.22412423011E+02 -0.18667731212E+02  0.59301947191E+02  0.50000005769E+02 0.  0.
        -12    1    1    2    0    0 -0.12880973173E+02 -0.22412423011E+02  0.18667731212E+02  0.31886052809E+02  0.00000000000E+00 0.  1.
         11    1    3    3    0    0  0.70398408171E+01  0.76577069130E+01 -0.20187474576E+02  0.22709776836E+02  0.51100000000E-03 0. -1.
        -11    1    3    3    0    0 -0.11720793119E+02  0.14264073546E+02  0.38811036843E+01  0.18865411512E+02  0.51100000000E-03 0.  1.
        -12    1    3    3    0    0  0.17561925475E+02  0.49064255211E+00 -0.23613603200E+01  0.17726758843E+02  0.00000000000E+00 0.  1.
</event>
<event>
 7    1  0.7313719E-013  0.5930190E+02  0.7816164E-02  0.1266605E+00
        -11   -1    0    0    0    0  0.00000000000E+00  0.00000000000E+00  0.45593999997E+02  0.45594000000E+02  0.51100000000E-03 0.  1.
         11   -1    0    0    0    0 -0.00000000000E+00 -0.00000000000E+00 -0.45593999997E+02  0.45594000000E+02  0.51100000000E-03 0. -1.
    9900012    2    1    2    0    0  0.22278694552E+02 -0.94896271794E+01 -0.20744398859E+02  0.59301900537E+02  0.49999920684E+02 0.  0.
        -12    1    1    2    0    0 -0.22278694552E+02  0.94896271794E+01  0.20744398859E+02  0.31886099463E+02  0.00000000000E+00 0.  1.
         11    1    3    3    0    0  0.21943319973E+02 -0.10063973266E+02 -0.17577292900E+02  0.29862251679E+02  0.51100000000E-03 0. -1.
        -11    1    3    3    0    0  0.71817171557E+01  0.10947730015E+02 -0.88187297366E+01  0.15786065001E+02  0.51100000000E-03 0.  1.
        -12    1    3    3    0    0 -0.68463425775E+01 -0.10373383929E+02  0.56516237784E+01  0.13653583857E+02  0.00000000000E+00 0.  1.
</event>
<event>
 7    1  0.7313719E-013  0.5930197E+02  0.7816164E-02  0.1266605E+00
        -11   -1    0    0    0    0  0.00000000000E+00  0.00000000000E+00  0.45593999997E+02  0.45594000000E+02  0.51100000000E-03 0.  1.
         11   -1    0    0    0    0 -0.00000000000E+00 -0.00000000000E+00 -0.45593999997E+02  0.45594000000E+02  0.51100000000E-03 0. -1.
    9900012    2    1    2    0    0  0.80851479237E+01 -0.85988364143E+01 -0.29621095448E+02  0.59301970141E+02  0.50000047624E+02 0.  0.
        -12    1    1    2    0    0 -0.80851479237E+01  0.85988364143E+01  0.29621095448E+02  0.31886029859E+02  0.00000000000E+00 0.  1.
         11    1    3    3    0    0 -0.66404974014E+01  0.70546559307E+01 -0.18946816734E+02  0.21280184225E+02  0.51100000000E-03 0. -1.
        -11    1    3    3    0    0  0.11822749734E+02  0.41032920882E+01  0.41137777427E+01  0.13173366495E+02  0.51100000000E-03 0.  1.
        -12    1    3    3    0    0  0.29028955914E+01 -0.19756784433E+02 -0.14788056457E+02  0.24848419421E+02  0.00000000000E+00 0.  1.
</event>
<event>
 7    1  0.7313719E-013  0.5930195E+02  0.7816164E-02  0.1266605E+00
        -11   -1    0    0    0    0  0.00000000000E+00  0.00000000000E+00  0.45593999997E+02  0.45594000000E+02  0.51100000000E-03 0.  1.
         11   -1    0    0    0    0 -0.00000000000E+00 -0.00000000000E+00 -0.45593999997E+02  0.45594000000E+02  0.51100000000E-03 0. -1.
    9900012    2    1    2    0    0  0.48304357330E+01  0.96572513516E+00 -0.31503249660E+02  0.59301945469E+02  0.50000002629E+02 0.  0.
        -12    1    1    2    0    0 -0.48304357330E+01 -0.96572513516E+00  0.31503249660E+02  0.31886054531E+02  0.00000000000E+00 0.  1.
         11    1    3    3    0    0 -0.71575069816E+01  0.11023773314E+02 -0.13420611440E+02  0.18784735717E+02  0.51100000000E-03 0. -1.
        -11    1    3    3    0    0  0.17900837796E+02  0.55445023480E+01 -0.13852578568E+02  0.23303978916E+02  0.51100000000E-03 0.  1.
        -12    1    3    3    0    0 -0.59128950811E+01 -0.15602550526E+02 -0.42300596513E+01  0.17213230836E+02  0.00000000000E+00 0.  1.
</event>
<event>
 7    1  0.7313719E-013  0.5930201E+02  0.7816164E-02  0.1266605E+00
        -11   -1    0    0    0    0  0.00000000000E+00  0.00000000000E+00  0.45593999997E+02  0.45594000000E+02  0.51100000000E-03 0. -1.
         11   -1    0    0    0    0 -0.00000000000E+00 -0.00000000000E+00 -0.45593999997E+02  0.45594000000E+02  0.51100000000E-03 0.  1.
    9900012    2    1    2    0    0 -0.21994428016E+02  0.17951290157E+02  0.14515938067E+02  0.59302013423E+02  0.50000126560E+02 0.  0.
        -12    1    1    2    0    0  0.21994428016E+02 -0.17951290157E+02 -0.14515938067E+02  0.31885986577E+02  0.00000000000E+00 0.  1.
         11    1    3    3    0    0 -0.17139701740E+02 -0.80277838257E+01  0.43575822411E+01  0.19421720113E+02  0.51100000000E-03 0. -1.
        -11    1    3    3    0    0 -0.15708571279E+01  0.74311052150E+01  0.17953963845E+02  0.19494453951E+02  0.51100000000E-03 0.  1.
        -12    1    3    3    0    0 -0.32838691486E+01  0.18547968767E+02 -0.77956080195E+01  0.20385839359E+02  0.00000000000E+00 0.  1.
</event>
<event>
 7    1  0.7313719E-013  0.5930195E+02  0.7816164E-02  0.1266605E+00
        -11   -1    0    0    0    0  0.00000000000E+00  0.00000000000E+00  0.45593999997E+02  0.45594000000E+02  0.51100000000E-03 0.  1.
         11   -1    0    0    0    0 -0.00000000000E+00 -0.00000000000E+00 -0.45593999997E+02  0.45594000000E+02  0.51100000000E-03 0. -1.
    9900012    2    1    2    0    0  0.89145237641E+00  0.17251125080E+02 -0.26801566256E+02  0.59301953559E+02  0.50000017383E+02 0.  0.
        -12    1    1    2    0    0 -0.89145237641E+00 -0.17251125080E+02  0.26801566256E+02  0.31886046441E+02  0.00000000000E+00 0.  1.
         11    1    3    3    0    0 -0.75041335261E+01  0.18566169899E+01 -0.54948323472E+01  0.94843149151E+01  0.51100000000E-03 0. -1.
        -11    1    3    3    0    0 -0.84749191737E+01 -0.92725589525E+01 -0.14468280211E+02  0.19160786441E+02  0.51100000000E-03 0.  1.
         12    1    3    3    0    0  0.16870505076E+02  0.24667067042E+02 -0.68384536983E+01  0.30656852203E+02  0.00000000000E+00 0. -1.
</event>
<event>
 7    1  0.7313719E-013  0.5930196E+02  0.7816164E-02  0.1266605E+00
        -11   -1    0    0    0    0  0.00000000000E+00  0.00000000000E+00  0.45593999997E+02  0.45594000000E+02  0.51100000000E-03 0. -1.
         11   -1    0    0    0    0 -0.00000000000E+00 -0.00000000000E+00 -0.45593999997E+02  0.45594000000E+02  0.51100000000E-03 0.  1.
    9900012    2    1    2    0    0 -0.27544197018E+02  0.35576931747E+01  0.15664590187E+02  0.59301962996E+02  0.50000034594E+02 0.  0.
        -12    1    1    2    0    0  0.27544197018E+02 -0.35576931747E+01 -0.15664590187E+02  0.31886037004E+02  0.00000000000E+00 0.  1.
         11    1    3    3    0    0 -0.98548273285E+01 -0.44599689866E+00  0.26636497905E+02  0.28404569277E+02  0.51100000000E-03 0. -1.
        -11    1    3    3    0    0  0.41812809633E+01 -0.30047537731E+01  0.59438589738E+00  0.51831409963E+01  0.51100000000E-03 0.  1.
         12    1    3    3    0    0 -0.21870650653E+02  0.70084438465E+01 -0.11566293615E+02  0.25714252723E+02  0.00000000000E+00 0. -1.
</event>
<event>
 7    1  0.7313719E-013  0.5930163E+02  0.7816164E-02  0.1266606E+00
        -11   -1    0    0    0    0  0.00000000000E+00  0.00000000000E+00  0.45593999997E+02  0.45594000000E+02  0.51100000000E-03 0.  1.
         11   -1    0    0    0    0 -0.00000000000E+00 -0.00000000000E+00 -0.45593999997E+02  0.45594000000E+02  0.51100000000E-03 0. -1.
    9900012    2    1    2    0    0 -0.60842630887E+01  0.10513512534E+01 -0.31282850644E+02  0.59301633929E+02  0.49999434451E+02 0.  0.
        -12    1    1    2    0    0  0.60842630887E+01 -0.10513512534E+01  0.31282850644E+02  0.31886366071E+02  0.00000000000E+00 0.  1.
         11    1    3    3    0    0 -0.24955443581E+02  0.40648539686E+01 -0.26108187501E+02  0.36344664766E+02  0.51100000000E-03 0.  1.
        -11    1    3    3    0    0  0.10338338921E+02  0.62403306830E+00 -0.81892413935E+01  0.13203573144E+02  0.51100000000E-03 0. -1.
        -12    1    3    3    0    0  0.85328415717E+01 -0.36375357835E+01  0.30145782502E+01  0.97533960184E+01  0.00000000000E+00 0.  1.
</event>
<event>
 7    1  0.7313719E-013  0.5930195E+02  0.7816164E-02  0.1266605E+00
        -11   -1    0    0    0    0  0.00000000000E+00  0.00000000000E+00  0.45593999997E+02  0.45594000000E+02  0.51100000000E-03 0.  1.
         11   -1    0    0    0    0 -0.00000000000E+00 -0.00000000000E+00 -0.45593999997E+02  0.45594000000E+02  0.51100000000E-03 0. -1.
    9900012    2    1    2    0    0 -0.10145092581E+02  0.26986966532E+02  0.13619875282E+02  0.59301948680E+02  0.50000008485E+02 0.  0.
        -12    1    1    2    0    0  0.10145092581E+02 -0.26986966532E+02 -0.13619875282E+02  0.31886051320E+02  0.00000000000E+00 0.  1.
         11    1    3    3    0    0 -0.14802040230E+02  0.13494279062E+02  0.40797966774E+01  0.20441152207E+02  0.51100000000E-03 0. -1.
        -11    1    3    3    0    0 -0.12666976348E+01  0.20627491031E+02  0.17157202876E+02  0.26860147430E+02  0.51100000000E-03 0.  1.
         12    1    3    3    0    0  0.59236452834E+01 -0.71348035613E+01 -0.76171242712E+01  0.12000649044E+02  0.00000000000E+00 0. -1.
</event>
<event>
 7    1  0.7313719E-013  0.5930193E+02  0.7816164E-02  0.1266605E+00
        -11   -1    0    0    0    0  0.00000000000E+00  0.00000000000E+00  0.45593999997E+02  0.45594000000E+02  0.51100000000E-03 0. -1.
         11   -1    0    0    0    0 -0.00000000000E+00 -0.00000000000E+00 -0.45593999997E+02  0.45594000000E+02  0.51100000000E-03 0.  1.
    9900012    2    1    2    0    0 -0.31105926508E+02 -0.64411870343E+01 -0.27665136899E+01  0.59301934825E+02  0.49999983216E+02 0.  0.
        -12    1    1    2    0    0  0.31105926508E+02  0.64411870343E+01  0.27665136899E+01  0.31886065175E+02  0.00000000000E+00 0.  1.
         11    1    3    3    0    0 -0.16911416408E+02  0.14782294792E+02 -0.96727350505E+01  0.24455552495E+02  0.51100000000E-03 0.  1.
        -11    1    3    3    0    0 -0.72640582578E+01 -0.35762203184E+01  0.12664845077E+02  0.15031772857E+02  0.51100000000E-03 0. -1.
        -12    1    3    3    0    0 -0.69304518429E+01 -0.17647261507E+02 -0.57586237164E+01  0.19814609473E+02  0.00000000000E+00 0.  1.
</event>
<event>
 7    1  0.7313719E-013  0.5930197E+02  0.7816164E-02  0.1266605E+00
        -11   -1    0    0    0    0  0.00000000000E+00  0.00000000000E+00  0.45593999997E+02  0.45594000000E+02  0.51100000000E-03 0.  1.
         11   -1    0    0    0    0 -0.00000000000E+00 -0.00000000000E+00 -0.45593999997E+02  0.45594000000E+02  0.51100000000E-03 0. -1.
    9900012    2    1    2    0    0 -0.94720276762E+01  0.16749155487E+02 -0.25425677995E+02  0.59301974545E+02  0.50000055655E+02 0.  0.
        -12    1    1    2    0    0  0.94720276762E+01 -0.16749155487E+02  0.25425677995E+02  0.31886025455E+02  0.00000000000E+00 0.  1.
         11    1    3    3    0    0 -0.17317161862E+01 -0.14790864392E+02 -0.14114103768E+01  0.14958629279E+02  0.51100000000E-03 0. -1.
        -11    1    3    3    0    0 -0.20893029920E+01  0.30681995958E+01  0.29369910803E+01  0.47333870135E+01  0.51100000000E-03 0.  1.
         12    1    3    3    0    0 -0.56510084980E+01  0.28471820283E+02 -0.26951258699E+02  0.39609958252E+02  0.00000000000E+00 0. -1.
</event>
<event>
 7    1  0.7313719E-013  0.5930192E+02  0.7816164E-02  0.1266605E+00
        -11   -1    0    0    0    0  0.00000000000E+00  0.00000000000E+00  0.45593999997E+02  0.45594000000E+02  0.51100000000E-03 0.  1.
         11   -1    0    0    0    0 -0.00000000000E+00 -0.00000000000E+00 -0.45593999997E+02  0.45594000000E+02  0.51100000000E-03 0. -1.
    9900012    2    1    2    0    0  0.19317943379E+02  0.82135088696E+01 -0.24001607810E+02  0.59301924013E+02  0.49999963499E+02 0.  0.
        -12    1    1    2    0    0 -0.19317943379E+02 -0.82135088696E+01  0.24001607810E+02  0.31886075987E+02  0.00000000000E+00 0.  1.
         11    1    3    3    0    0  0.17467082331E+02  0.20862036849E+02 -0.16089497972E+02  0.31610053652E+02  0.51100000000E-03 0. -1.
        -11    1    3    3    0    0 -0.84004698272E+00 -0.17622250584E+00  0.75762781486E+01  0.76247442023E+01  0.51100000000E-03 0.  1.
        -12    1    3    3    0    0  0.26909080310E+01 -0.12472305473E+02 -0.15488387987E+02  0.20067126159E+02  0.00000000000E+00 0.  1.
</event>
<event>
 7    1  0.7313719E-013  0.5930194E+02  0.7816164E-02  0.1266605E+00
        -11   -1    0    0    0    0  0.00000000000E+00  0.00000000000E+00  0.45593999997E+02  0.45594000000E+02  0.51100000000E-03 0.  1.
         11   -1    0    0    0    0 -0.00000000000E+00 -0.00000000000E+00 -0.45593999997E+02  0.45594000000E+02  0.51100000000E-03 0. -1.
    9900012    2    1    2    0    0  0.30190465024E+02  0.76207089568E+01  0.68688769972E+01  0.59301939495E+02  0.49999991733E+02 0.  0.
        -12    1    1    2    0    0 -0.30190465024E+02 -0.76207089568E+01 -0.68688769972E+01  0.31886060505E+02  0.00000000000E+00 0.  1.
         11    1    3    3    0    0  0.88191744654E+01  0.41441854516E+01 -0.39308407358E+01  0.10507312713E+02  0.51100000000E-03 0.  1.
        -11    1    3    3    0    0  0.30731709185E+02 -0.58810276290E+01 -0.64663902936E+00  0.31296047318E+02  0.51100000000E-03 0. -1.
        -12    1    3    3    0    0 -0.93604186271E+01  0.93575511342E+01  0.11446356762E+02  0.17498579463E+02  0.00000000000E+00 0.  1.
</event>
<event>
 7    1  0.7313719E-013  0.5930194E+02  0.7816164E-02  0.1266605E+00
        -11   -1    0    0    0    0  0.00000000000E+00  0.00000000000E+00  0.45593999997E+02  0.45594000000E+02  0.51100000000E-03 0.  1.
         11   -1    0    0    0    0 -0.00000000000E+00 -0.00000000000E+00 -0.45593999997E+02  0.45594000000E+02  0.51100000000E-03 0. -1.
    9900012    2    1    2    0    0  0.25600722284E+02  0.19000801781E+02  0.54157227970E+00  0.59301941129E+02  0.49999994714E+02 0.  0.
        -12    1    1    2    0    0 -0.25600722284E+02 -0.19000801781E+02 -0.54157227970E+00  0.31886058871E+02  0.00000000000E+00 0.  1.
         11    1    3    3    0    0  0.14247676061E+02  0.17890621695E+02  0.40257971598E+01  0.23222352611E+02  0.51100000000E-03 0. -1.
        -11    1    3    3    0    0  0.13465441671E+02 -0.29552565777E+01  0.13013261335E+02  0.18957759141E+02  0.51100000000E-03 0.  1.
         12    1    3    3    0    0 -0.21123954480E+01  0.40654366643E+01 -0.16497486215E+02  0.17121829377E+02  0.00000000000E+00 0. -1.
</event>
<event>
 7    1  0.7313719E-013  0.5930194E+02  0.7816164E-02  0.1266605E+00
        -11   -1    0    0    0    0  0.00000000000E+00  0.00000000000E+00  0.45593999997E+02  0.45594000000E+02  0.51100000000E-03 0.  1.
         11   -1    0    0    0    0 -0.00000000000E+00 -0.00000000000E+00 -0.45593999997E+02  0.45594000000E+02  0.51100000000E-03 0. -1.
    9900012    2    1    2    0    0  0.16895353187E+02 -0.23995951344E+02 -0.12468454857E+02  0.59301937108E+02  0.49999987380E+02 0.  0.
        -12    1    1    2    0    0 -0.16895353187E+02  0.23995951344E+02  0.12468454857E+02  0.31886062892E+02  0.00000000000E+00 0.  1.
         11    1    3    3    0    0  0.13188701963E+01  0.50161891031E+01 -0.56847182118E+01  0.76952968183E+01  0.51100000000E-03 0. -1.
        -11    1    3    3    0    0 -0.73076853092E+01 -0.18452438071E+02 -0.15239739290E+02  0.25022877317E+02  0.51100000000E-03 0.  1.
        -12    1    3    3    0    0  0.22884168300E+02 -0.10559702377E+02  0.84560026447E+01  0.26583762973E+02  0.00000000000E+00 0.  1.
</event>
<event>
 7    1  0.7313719E-013  0.5930189E+02  0.7816164E-02  0.1266605E+00
        -11   -1    0    0    0    0  0.00000000000E+00  0.00000000000E+00  0.45593999997E+02  0.45594000000E+02  0.51100000000E-03 0. -1.
         11   -1    0    0    0    0 -0.00000000000E+00 -0.00000000000E+00 -0.45593999997E+02  0.45594000000E+02  0.51100000000E-03 0.  1.
    9900012    2    1    2    0    0 -0.31326096174E+02 -0.96900076353E-01  0.59489904311E+01  0.59301887376E+02  0.49999896681E+02 0.  0.
        -12    1    1    2    0    0  0.31326096174E+02  0.96900076353E-01 -0.59489904311E+01  0.31886112624E+02  0.00000000000E+00 0.  1.
         11    1    3    3    0    0 -0.16948695272E+02 -0.47397038848E+01  0.39658064395E+01  0.18040251809E+02  0.51100000000E-03 0. -1.
        -11    1    3    3    0    0 -0.19159202114E+02  0.18217876228E+02  0.39634255566E+01  0.26733401997E+02  0.51100000000E-03 0.  1.
        -12    1    3    3    0    0  0.47818012122E+01 -0.13575072420E+02 -0.19802415650E+01  0.14528233571E+02  0.00000000000E+00 0.  1.
</event>
<event>
 7    1  0.7313719E-013  0.5930194E+02  0.7816164E-02  0.1266605E+00
        -11   -1    0    0    0    0  0.00000000000E+00  0.00000000000E+00  0.45593999997E+02  0.45594000000E+02  0.51100000000E-03 0.  1.
         11   -1    0    0    0    0 -0.00000000000E+00 -0.00000000000E+00 -0.45593999997E+02  0.45594000000E+02  0.51100000000E-03 0. -1.
    9900012    2    1    2    0    0  0.19124081420E+02 -0.19294934695E+02 -0.16694188778E+02  0.59301938249E+02  0.49999989461E+02 0.  0.
        -12    1    1    2    0    0 -0.19124081420E+02  0.19294934695E+02  0.16694188778E+02  0.31886061751E+02  0.00000000000E+00 0.  1.
         11    1    3    3    0    0  0.35117434703E+01  0.37160625498E+01 -0.20058365856E+02  0.20699746475E+02  0.51100000000E-03 0. -1.
        -11    1    3    3    0    0  0.68229497169E+01  0.48326899451E+01  0.42737288508E+01  0.93900103033E+01  0.51100000000E-03 0.  1.
        -12    1    3    3    0    0  0.87893882328E+01 -0.27843687190E+02 -0.90955177293E+00  0.29212181470E+02  0.00000000000E+00 0.  1.
</event>
<event>
 7    1  0.7313719E-013  0.5930191E+02  0.7816164E-02  0.1266605E+00
        -11   -1    0    0    0    0  0.00000000000E+00  0.00000000000E+00  0.45593999997E+02  0.45594000000E+02  0.51100000000E-03 0.  1.
         11   -1    0    0    0    0 -0.00000000000E+00 -0.00000000000E+00 -0.45593999997E+02  0.45594000000E+02  0.51100000000E-03 0. -1.
    9900012    2    1    2    0    0 -0.23361236053E+02 -0.15512320926E+02 -0.15177064610E+02  0.59301909920E+02  0.49999937795E+02 0.  0.
        -12    1    1    2    0    0  0.23361236053E+02  0.15512320926E+02  0.15177064610E+02  0.31886090080E+02  0.00000000000E+00 0.  1.
         11    1    3    3    0    0 -0.17147260313E+02 -0.10896228056E+02  0.83043550523E+01  0.21948089557E+02  0.51100000000E-03 0. -1.
        -11    1    3    3    0    0  0.31431323485E+01 -0.85453156310E+01  0.25155730377E+01  0.94461530881E+01  0.51100000000E-03 0.  1.
         12    1    3    3    0    0 -0.93571080885E+01  0.39292227612E+01 -0.25996992700E+02  0.27907667275E+02  0.00000000000E+00 0. -1.
</event>
<event>
 7    1  0.7313719E-013  0.5930194E+02  0.7816164E-02  0.1266605E+00
        -11   -1    0    0    0    0  0.00000000000E+00  0.00000000000E+00  0.45593999997E+02  0.45594000000E+02  0.51100000000E-03 0. -1.
         11   -1    0    0    0    0 -0.00000000000E+00 -0.00000000000E+00 -0.45593999997E+02  0.45594000000E+02  0.51100000000E-03 0.  1.
    9900012    2    1    2    0    0 -0.68167569193E+01  0.23972818126E+02  0.19888610676E+02  0.59301936925E+02  0.49999987046E+02 0.  0.
        -12    1    1    2    0    0  0.68167569193E+01 -0.23972818126E+02 -0.19888610676E+02  0.31886063075E+02  0.00000000000E+00 0.  1.
         11    1    3    3    0    0  0.23076135729E+01  0.13397989085E+02 -0.82560768717E+01  0.15905785032E+02  0.51100000000E-03 0. -1.
        -11    1    3    3    0    0  0.20414448523E+01 -0.41054722884E+01 -0.41638970881E+01  0.61935804683E+01  0.51100000000E-03 0.  1.
         12    1    3    3    0    0 -0.11165815344E+02  0.14680301330E+02  0.32308584635E+02  0.37202571424E+02  0.00000000000E+00 0. -1.
</event>
<event>
 7    1  0.7313719E-013  0.5930195E+02  0.7816164E-02  0.1266605E+00
        -11   -1    0    0    0    0  0.00000000000E+00  0.00000000000E+00  0.45593999997E+02  0.45594000000E+02  0.51100000000E-03 0.  1.
         11   -1    0    0    0    0 -0.00000000000E+00 -0.00000000000E+00 -0.45593999997E+02  0.45594000000E+02  0.51100000000E-03 0. -1.
    9900012    2    1    2    0    0  0.20703636870E+01 -0.30589684478E+01 -0.31671387677E+02  0.59301945193E+02  0.50000002125E+02 0.  0.
        -12    1    1    2    0    0 -0.20703636870E+01  0.30589684478E+01  0.31671387677E+02  0.31886054807E+02  0.00000000000E+00 0.  1.
         11    1    3    3    0    0  0.34076354830E+01 -0.52765300310E+01  0.38970340909E+01  0.73919296344E+01  0.51100000000E-03 0.  1.
        -11    1    3    3    0    0  0.12963613402E+02 -0.83403610054E+01 -0.29215820466E+02  0.33033029832E+02  0.51100000000E-03 0. -1.
         12    1    3    3    0    0 -0.14300885198E+02  0.10557922589E+02 -0.63526013017E+01  0.18876985727E+02  0.00000000000E+00 0. -1.
</event>
<event>
 7    1  0.7313719E-013  0.5930196E+02  0.7816164E-02  0.1266605E+00
        -11   -1    0    0    0    0  0.00000000000E+00  0.00000000000E+00  0.45593999997E+02  0.45594000000E+02  0.51100000000E-03 0.  1.
         11   -1    0    0    0    0 -0.00000000000E+00 -0.00000000000E+00 -0.45593999997E+02  0.45594000000E+02  0.51100000000E-03 0. -1.
    9900012    2    1    2    0    0  0.23877170617E+02  0.72209446649E+01 -0.19860969449E+02  0.59301961896E+02  0.50000032587E+02 0.  0.
        -12    1    1    2    0    0 -0.23877170617E+02 -0.72209446649E+01  0.19860969449E+02  0.31886038104E+02  0.00000000000E+00 0.  1.
         11    1    3    3    0    0  0.13520866849E+02  0.11200764974E+01 -0.27684778419E+02  0.30830429255E+02  0.51100000000E-03 0. -1.
        -11    1    3    3    0    0 -0.50444424998E+01  0.96475190480E+01  0.11392000657E+00  0.10887332178E+02  0.51100000000E-03 0.  1.
         12    1    3    3    0    0  0.15400746268E+02 -0.35466508804E+01  0.77098889639E+01  0.17584200463E+02  0.00000000000E+00 0. -1.
</event>
<event>
 7    1  0.7313719E-013  0.5930195E+02  0.7816164E-02  0.1266605E+00
        -11   -1    0    0    0    0  0.00000000000E+00  0.00000000000E+00  0.45593999997E+02  0.45594000000E+02  0.51100000000E-03 0.  1.
         11   -1    0    0    0    0 -0.00000000000E+00 -0.00000000000E+00 -0.45593999997E+02  0.45594000000E+02  0.51100000000E-03 0. -1.
    9900012    2    1    2    0    0  0.10434215863E+02  0.77247376002E+01 -0.29123460352E+02  0.59301947021E+02  0.50000005459E+02 0.  0.
        -12    1    1    2    0    0 -0.10434215863E+02 -0.77247376002E+01  0.29123460352E+02  0.31886052979E+02  0.00000000000E+00 0.  1.
         11    1    3    3    0    0  0.19718709710E+02 -0.18017212586E+00 -0.26256846565E+02  0.32837203998E+02  0.51100000000E-03 0. -1.
        -11    1    3    3    0    0 -0.23463009457E+01 -0.62221125789E+01  0.55096542608E+01  0.86357456775E+01  0.51100000000E-03 0.  1.
         12    1    3    3    0    0 -0.69381929008E+01  0.14127022305E+02 -0.83762680486E+01  0.17828997346E+02  0.00000000000E+00 0. -1.
</event>
<event>
 7    1  0.7313719E-013  0.5930191E+02  0.7816164E-02  0.1266605E+00
        -11   -1    0    0    0    0  0.00000000000E+00  0.00000000000E+00  0.45593999997E+02  0.45594000000E+02  0.51100000000E-03 0.  1.
         11   -1    0    0    0    0 -0.00000000000E+00 -0.00000000000E+00 -0.45593999997E+02  0.45594000000E+02  0.51100000000E-03 0. -1.
    9900012    2    1    2    0    0 -0.29783550782E+01  0.11989354716E+02 -0.29395707520E+02  0.59301908266E+02  0.49999934779E+02 0.  0.
        -12    1    1    2    0    0  0.29783550782E+01 -0.11989354716E+02  0.29395707520E+02  0.31886091734E+02  0.00000000000E+00 0.  1.
         11    1    3    3    0    0 -0.18505427508E+02 -0.32534764853E+01 -0.81884847175E+01  0.20496029829E+02  0.51100000000E-03 0. -1.
        -11    1    3    3    0    0  0.37249719229E+00 -0.61116874843E+01 -0.24477275130E+01  0.65941525842E+01  0.51100000000E-03 0.  1.
         12    1    3    3    0    0  0.15154575238E+02  0.21354518685E+02 -0.18759495289E+02  0.32211725853E+02  0.00000000000E+00 0. -1.
</event>
<event>
 7    1  0.7313719E-013  0.5930192E+02  0.7816164E-02  0.1266605E+00
        -11   -1    0    0    0    0  0.00000000000E+00  0.00000000000E+00  0.45593999997E+02  0.45594000000E+02  0.51100000000E-03 0.  1.
         11   -1    0    0    0    0 -0.00000000000E+00 -0.00000000000E+00 -0.45593999997E+02  0.45594000000E+02  0.51100000000E-03 0. -1.
    9900012    2    1    2    0    0  0.10403236021E+02 -0.30139841891E+02  0.29112470674E+00  0.59301919298E+02  0.49999954899E+02 0.  0.
        -12    1    1    2    0    0 -0.10403236021E+02  0.30139841891E+02 -0.29112470674E+00  0.31886080702E+02  0.00000000000E+00 0.  1.
         11    1    3    3    0    0  0.64025847518E+01  0.35046417717E+01  0.13217160158E+01  0.74177179065E+01  0.51100000000E-03 0.  1.
        -11    1    3    3    0    0  0.16279626196E+02 -0.23858273237E+02  0.12197428010E+02  0.31353160627E+02  0.51100000000E-03 0. -1.
         12    1    3    3    0    0 -0.12278974928E+02 -0.97862104258E+01 -0.13228019319E+02  0.20531040765E+02  0.00000000000E+00 0. -1.
</event>
<event>
 7    1  0.7313719E-013  0.5930193E+02  0.7816164E-02  0.1266605E+00
        -11   -1    0    0    0    0  0.00000000000E+00  0.00000000000E+00  0.45593999997E+02  0.45594000000E+02  0.51100000000E-03 0.  1.
         11   -1    0    0    0    0 -0.00000000000E+00 -0.00000000000E+00 -0.45593999997E+02  0.45594000000E+02  0.51100000000E-03 0. -1.
    9900012    2    1    2    0    0  0.98734655745E+01 -0.24035586325E+02 -0.18480448739E+02  0.59301925955E+02  0.49999967039E+02 0.  0.
        -12    1    1    2    0    0 -0.98734655745E+01  0.24035586325E+02  0.18480448739E+02  0.31886074045E+02  0.00000000000E+00 0.  1.
         11    1    3    3    0    0  0.38151605279E+01 -0.30014219878E+01 -0.16115463205E+01  0.51147889113E+01  0.51100000000E-03 0. -1.
        -11    1    3    3    0    0 -0.20631844794E+01 -0.35037395251E+02 -0.13784763329E+02  0.37708029602E+02  0.51100000000E-03 0.  1.
        -12    1    3    3    0    0  0.81214895260E+01  0.14003230914E+02 -0.30841390893E+01  0.16479107441E+02  0.00000000000E+00 0.  1.
</event>
<event>
 7    1  0.7313719E-013  0.5930195E+02  0.7816164E-02  0.1266605E+00
        -11   -1    0    0    0    0  0.00000000000E+00  0.00000000000E+00  0.45593999997E+02  0.45594000000E+02  0.51100000000E-03 0.  1.
         11   -1    0    0    0    0 -0.00000000000E+00 -0.00000000000E+00 -0.45593999997E+02  0.45594000000E+02  0.51100000000E-03 0. -1.
    9900012    2    1    2    0    0  0.13771303563E+02 -0.12136668028E+02 -0.26072448559E+02  0.59301951538E+02  0.50000013697E+02 0.  0.
        -12    1    1    2    0    0 -0.13771303563E+02  0.12136668028E+02  0.26072448559E+02  0.31886048462E+02  0.00000000000E+00 0.  1.
         11    1    3    3    0    0 -0.23632789166E+01 -0.83354138709E+01  0.51918743355E+01  0.10100483702E+02  0.51100000000E-03 0. -1.
        -11    1    3    3    0    0 -0.71921131619E+01 -0.11131599915E+02 -0.81756000838E+01  0.15571751520E+02  0.51100000000E-03 0.  1.
         12    1    3    3    0    0  0.23326695642E+02  0.73303457576E+01 -0.23088722811E+02  0.33629716316E+02  0.00000000000E+00 0. -1.
</event>
<event>
 7    1  0.7313719E-013  0.5930223E+02  0.7816164E-02  0.1266604E+00
        -11   -1    0    0    0    0  0.00000000000E+00  0.00000000000E+00  0.45593999997E+02  0.45594000000E+02  0.51100000000E-03 0. -1.
         11   -1    0    0    0    0 -0.00000000000E+00 -0.00000000000E+00 -0.45593999997E+02  0.45594000000E+02  0.51100000000E-03 0.  1.
    9900012    2    1    2    0    0  0.65875847639E+01 -0.30021584694E+02  0.84859077204E+01  0.59302228088E+02  0.50000518056E+02 0.  0.
        -12    1    1    2    0    0 -0.65875847639E+01  0.30021584694E+02 -0.84859077204E+01  0.31885771912E+02  0.00000000000E+00 0.  1.
         11    1    3    3    0    0 -0.39125201836E+01  0.94830725708E+01  0.99442173177E+01  0.14287194892E+02  0.51100000000E-03 0. -1.
        -11    1    3    3    0    0  0.89276576245E+01 -0.47006778351E+01  0.66060555808E+00  0.10111174152E+02  0.51100000000E-03 0.  1.
        -12    1    3    3    0    0  0.15724473231E+01 -0.34803979430E+02 -0.21189151554E+01  0.34903859044E+02  0.00000000000E+00 0.  1.
</event>
<event>
 7    1  0.7313719E-013  0.5930194E+02  0.7816164E-02  0.1266605E+00
        -11   -1    0    0    0    0  0.00000000000E+00  0.00000000000E+00  0.45593999997E+02  0.45594000000E+02  0.51100000000E-03 0. -1.
         11   -1    0    0    0    0 -0.00000000000E+00 -0.00000000000E+00 -0.45593999997E+02  0.45594000000E+02  0.51100000000E-03 0.  1.
    9900012    2    1    2    0    0 -0.17044733357E+02  0.92736764869E+01  0.25302109660E+02  0.59301940914E+02  0.49999994321E+02 0.  0.
        -12    1    1    2    0    0  0.17044733357E+02 -0.92736764869E+01 -0.25302109660E+02  0.31886059086E+02  0.00000000000E+00 0.  1.
         11    1    3    3    0    0  0.25888433756E+01  0.40560786512E+01  0.18433106148E+02  0.19050808030E+02  0.51100000000E-03 0. -1.
        -11    1    3    3    0    0 -0.23921564146E+02  0.11494453568E+02  0.13844650602E+02  0.29933894578E+02  0.51100000000E-03 0.  1.
        -12    1    3    3    0    0  0.42879874137E+01 -0.62768557325E+01 -0.69756470898E+01  0.10317238306E+02  0.00000000000E+00 0.  1.
</event>
<event>
 7    1  0.7313719E-013  0.5930196E+02  0.7816164E-02  0.1266605E+00
        -11   -1    0    0    0    0  0.00000000000E+00  0.00000000000E+00  0.45593999997E+02  0.45594000000E+02  0.51100000000E-03 0. -1.
         11   -1    0    0    0    0 -0.00000000000E+00 -0.00000000000E+00 -0.45593999997E+02  0.45594000000E+02  0.51100000000E-03 0.  1.
    9900012    2    1    2    0    0 -0.26901620419E+02  0.13887590938E+02  0.10007867867E+02  0.59301956306E+02  0.50000022392E+02 0.  0.
        -12    1    1    2    0    0  0.26901620419E+02 -0.13887590938E+02 -0.10007867867E+02  0.31886043694E+02  0.00000000000E+00 0.  1.
         11    1    3    3    0    0 -0.11481136009E+02  0.50912406800E+01 -0.16963973557E+01  0.12673396544E+02  0.51100000000E-03 0. -1.
        -11    1    3    3    0    0 -0.17501571048E+02  0.99640406219E+01 -0.11574136269E+02  0.23228166636E+02  0.51100000000E-03 0.  1.
        -12    1    3    3    0    0  0.20810866381E+01 -0.11676903641E+01  0.23278401492E+02  0.23400393125E+02  0.00000000000E+00 0.  1.
</event>
<event>
 7    1  0.7313719E-013  0.5930189E+02  0.7816164E-02  0.1266605E+00
        -11   -1    0    0    0    0  0.00000000000E+00  0.00000000000E+00  0.45593999997E+02  0.45594000000E+02  0.51100000000E-03 0.  1.
         11   -1    0    0    0    0 -0.00000000000E+00 -0.00000000000E+00 -0.45593999997E+02  0.45594000000E+02  0.51100000000E-03 0. -1.
    9900012    2    1    2    0    0  0.38180754507E+01  0.60393175914E+01 -0.31075277045E+02  0.59301891731E+02  0.49999904624E+02 0.  0.
        -12    1    1    2    0    0 -0.38180754507E+01 -0.60393175914E+01  0.31075277045E+02  0.31886108269E+02  0.00000000000E+00 0.  1.
         11    1    3    3    0    0 -0.60336727859E+01  0.23734761806E+02 -0.25798350369E+02  0.35571041695E+02  0.51100000000E-03 0. -1.
        -11    1    3    3    0    0 -0.18243088311E+01 -0.13362745059E+00 -0.13642526301E+01  0.22819168492E+01  0.51100000000E-03 0.  1.
        -12    1    3    3    0    0  0.11676057068E+02 -0.17561816764E+02 -0.39126740460E+01  0.21448933187E+02  0.00000000000E+00 0.  1.
</event>
<event>
 7    1  0.7313719E-013  0.5930195E+02  0.7816164E-02  0.1266605E+00
        -11   -1    0    0    0    0  0.00000000000E+00  0.00000000000E+00  0.45593999997E+02  0.45594000000E+02  0.51100000000E-03 0.  1.
         11   -1    0    0    0    0 -0.00000000000E+00 -0.00000000000E+00 -0.45593999997E+02  0.45594000000E+02  0.51100000000E-03 0. -1.
    9900012    2    1    2    0    0 -0.13820747325E+02 -0.26352562734E+02 -0.11456426550E+02  0.59301947742E+02  0.50000006775E+02 0.  0.
        -12    1    1    2    0    0  0.13820747325E+02  0.26352562734E+02  0.11456426550E+02  0.31886052258E+02  0.00000000000E+00 0.  1.
         11    1    3    3    0    0 -0.88325400988E+01 -0.15318877234E+02 -0.18779906352E+02  0.25794701920E+02  0.51100000000E-03 0. -1.
        -11    1    3    3    0    0 -0.15028112553E+02 -0.14420690319E+02  0.36549322074E+00  0.20831084027E+02  0.51100000000E-03 0.  1.
         12    1    3    3    0    0  0.10039905327E+02  0.33870048183E+01  0.69579865811E+01  0.12676161796E+02  0.00000000000E+00 0. -1.
</event>
<event>
 7    1  0.7313719E-013  0.5930195E+02  0.7816164E-02  0.1266605E+00
        -11   -1    0    0    0    0  0.00000000000E+00  0.00000000000E+00  0.45593999997E+02  0.45594000000E+02  0.51100000000E-03 0.  1.
         11   -1    0    0    0    0 -0.00000000000E+00 -0.00000000000E+00 -0.45593999997E+02  0.45594000000E+02  0.51100000000E-03 0. -1.
    9900012    2    1    2    0    0 -0.24034010861E+02  0.45814397280E+01 -0.20447414622E+02  0.59301952380E+02  0.50000015233E+02 0.  0.
        -12    1    1    2    0    0  0.24034010861E+02 -0.45814397280E+01  0.20447414622E+02  0.31886047620E+02  0.00000000000E+00 0.  1.
         11    1    3    3    0    0 -0.27108914613E+02 -0.18672023024E+01 -0.11390578969E+02  0.29463960791E+02  0.51100000000E-03 0. -1.
        -11    1    3    3    0    0 -0.57073144913E+01 -0.85501075254E+01 -0.89612228536E-01  0.10280360305E+02  0.51100000000E-03 0.  1.
         12    1    3    3    0    0  0.87822182433E+01  0.14998749556E+02 -0.89672234245E+01  0.19557631284E+02  0.00000000000E+00 0. -1.
</event>
<event>
 7    1  0.7313719E-013  0.5930209E+02  0.7816164E-02  0.1266604E+00
        -11   -1    0    0    0    0  0.00000000000E+00  0.00000000000E+00  0.45593999997E+02  0.45594000000E+02  0.51100000000E-03 0. -1.
         11   -1    0    0    0    0 -0.00000000000E+00 -0.00000000000E+00 -0.45593999997E+02  0.45594000000E+02  0.51100000000E-03 0.  1.
    9900012    2    1    2    0    0 -0.11950994525E+02  0.25774615140E+02  0.14475981010E+02  0.59302092737E+02  0.50000271210E+02 0.  0.
        -12    1    1    2    0    0  0.11950994525E+02 -0.25774615140E+02 -0.14475981010E+02  0.31885907263E+02  0.00000000000E+00 0.  1.
         11    1    3    3    0    0 -0.24080204324E+01 -0.60419840676E+01 -0.31723371866E+01  0.72365639196E+01  0.51100000000E-03 0.  1.
        -11    1    3    3    0    0 -0.16860625482E+02  0.19310537431E+02 -0.40708497048E+01  0.25956682475E+02  0.51100000000E-03 0. -1.
         12    1    3    3    0    0  0.73176513896E+01  0.12506061777E+02  0.21719167901E+02  0.26108846343E+02  0.00000000000E+00 0. -1.
</event>
<event>
 7    1  0.7313719E-013  0.5930195E+02  0.7816164E-02  0.1266605E+00
        -11   -1    0    0    0    0  0.00000000000E+00  0.00000000000E+00  0.45593999997E+02  0.45594000000E+02  0.51100000000E-03 0.  1.
         11   -1    0    0    0    0 -0.00000000000E+00 -0.00000000000E+00 -0.45593999997E+02  0.45594000000E+02  0.51100000000E-03 0. -1.
    9900012    2    1    2    0    0 -0.31315492108E+02 -0.70281816802E+00 -0.59637465582E+01  0.59301948624E+02  0.50000008382E+02 0.  0.
        -12    1    1    2    0    0  0.31315492108E+02  0.70281816802E+00  0.59637465582E+01  0.31886051376E+02  0.00000000000E+00 0.  1.
         11    1    3    3    0    0 -0.30991729573E+02 -0.46486856628E+01  0.74090899950E+01  0.32202363192E+02  0.51100000000E-03 0. -1.
        -11    1    3    3    0    0  0.23730400304E+01 -0.28913404017E+01  0.56105117306E+01  0.67430712917E+01  0.51100000000E-03 0.  1.
         12    1    3    3    0    0 -0.26968025656E+01  0.68372078965E+01 -0.18983348284E+02  0.20356514141E+02  0.00000000000E+00 0. -1.
</event>
<event>
 7    1  0.7313719E-013  0.5930177E+02  0.7816164E-02  0.1266605E+00
        -11   -1    0    0    0    0  0.00000000000E+00  0.00000000000E+00  0.45593999997E+02  0.45594000000E+02  0.51100000000E-03 0.  1.
         11   -1    0    0    0    0 -0.00000000000E+00 -0.00000000000E+00 -0.45593999997E+02  0.45594000000E+02  0.51100000000E-03 0. -1.
    9900012    2    1    2    0    0  0.24487224015E+02 -0.20410789002E+01 -0.20320966872E+02  0.59301767271E+02  0.49999677638E+02 0.  0.
        -12    1    1    2    0    0 -0.24487224015E+02  0.20410789002E+01  0.20320966872E+02  0.31886232729E+02  0.00000000000E+00 0.  1.
         11    1    3    3    0    0  0.41087006568E+01 -0.20139996513E+01 -0.31901599506E+02  0.32228088169E+02  0.51100000000E-03 0. -1.
        -11    1    3    3    0    0 -0.16797866716E+01 -0.16491455345E+01  0.11180804691E+01  0.26060445992E+01  0.51100000000E-03 0.  1.
        -12    1    3    3    0    0  0.22058310029E+02  0.16220662856E+01  0.10462552165E+02  0.24467634504E+02  0.00000000000E+00 0.  1.
</event>
<event>
 7    1  0.7313719E-013  0.5930188E+02  0.7816164E-02  0.1266605E+00
        -11   -1    0    0    0    0  0.00000000000E+00  0.00000000000E+00  0.45593999997E+02  0.45594000000E+02  0.51100000000E-03 0.  1.
         11   -1    0    0    0    0 -0.00000000000E+00 -0.00000000000E+00 -0.45593999997E+02  0.45594000000E+02  0.51100000000E-03 0. -1.
    9900012    2    1    2    0    0  0.29032694826E+02 -0.13183840471E+02 -0.11549293890E+00  0.59301884573E+02  0.49999891569E+02 0.  0.
        -12    1    1    2    0    0 -0.29032694826E+02  0.13183840471E+02  0.11549293890E+00  0.31886115427E+02  0.00000000000E+00 0.  1.
         11    1    3    3    0    0 -0.59209405316E+00  0.19861800963E+00  0.61834086807E+00  0.87884593177E+00  0.51100000000E-03 0. -1.
        -11    1    3    3    0    0  0.13515988345E+00  0.13179820902E+02  0.10857152541E+02  0.17076407958E+02  0.51100000000E-03 0.  1.
         12    1    3    3    0    0  0.29489628995E+02 -0.26562279383E+02 -0.11590986348E+02  0.41346630683E+02  0.00000000000E+00 0. -1.
</event>
<event>
 7    1  0.7313719E-013  0.5930195E+02  0.7816164E-02  0.1266605E+00
        -11   -1    0    0    0    0  0.00000000000E+00  0.00000000000E+00  0.45593999997E+02  0.45594000000E+02  0.51100000000E-03 0.  1.
         11   -1    0    0    0    0 -0.00000000000E+00 -0.00000000000E+00 -0.45593999997E+02  0.45594000000E+02  0.51100000000E-03 0. -1.
    9900012    2    1    2    0    0 -0.26898319067E+02  0.12637598278E+02 -0.11553869309E+02  0.59301947330E+02  0.50000006023E+02 0.  0.
        -12    1    1    2    0    0  0.26898319067E+02 -0.12637598278E+02  0.11553869309E+02  0.31886052670E+02  0.00000000000E+00 0.  1.
         11    1    3    3    0    0  0.39815993693E+01 -0.70450110969E+00 -0.85035863037E+01  0.94159670580E+01  0.51100000000E-03 0. -1.
        -11    1    3    3    0    0 -0.94165969551E+01 -0.12590956002E+02  0.19884092572E+01  0.15847972832E+02  0.51100000000E-03 0.  1.
         12    1    3    3    0    0 -0.21463321481E+02  0.25933055389E+02 -0.50386922624E+01  0.34038007440E+02  0.00000000000E+00 0. -1.
</event>
<event>
 7    1  0.7313719E-013  0.5930191E+02  0.7816164E-02  0.1266605E+00
        -11   -1    0    0    0    0  0.00000000000E+00  0.00000000000E+00  0.45593999997E+02  0.45594000000E+02  0.51100000000E-03 0.  1.
         11   -1    0    0    0    0 -0.00000000000E+00 -0.00000000000E+00 -0.45593999997E+02  0.45594000000E+02  0.51100000000E-03 0. -1.
    9900012    2    1    2    0    0 -0.11130086586E+02 -0.10408715758E+02 -0.28008967210E+02  0.59301914707E+02  0.49999946526E+02 0.  0.
        -12    1    1    2    0    0  0.11130086586E+02  0.10408715758E+02  0.28008967210E+02  0.31886085293E+02  0.00000000000E+00 0.  1.
         11    1    3    3    0    0 -0.81114383771E+01 -0.15068710370E+02 -0.63507496310E+01  0.18253588302E+02  0.51100000000E-03 0. -1.
        -11    1    3    3    0    0 -0.99114389101E+01 -0.11765147730E+02 -0.38448101109E+01  0.15856793101E+02  0.51100000000E-03 0.  1.
        -12    1    3    3    0    0  0.68927907017E+01  0.16425142342E+02 -0.17813407468E+02  0.25191533305E+02  0.00000000000E+00 0.  1.
</event>
<event>
 7    1  0.7313719E-013  0.5930189E+02  0.7816164E-02  0.1266605E+00
        -11   -1    0    0    0    0  0.00000000000E+00  0.00000000000E+00  0.45593999997E+02  0.45594000000E+02  0.51100000000E-03 0.  1.
         11   -1    0    0    0    0 -0.00000000000E+00 -0.00000000000E+00 -0.45593999997E+02  0.45594000000E+02  0.51100000000E-03 0. -1.
    9900012    2    1    2    0    0 -0.20287630590E+02  0.18359474293E+02  0.16372716043E+02  0.59301888887E+02  0.49999899437E+02 0.  0.
        -12    1    1    2    0    0  0.20287630590E+02 -0.18359474293E+02 -0.16372716043E+02  0.31886111113E+02  0.00000000000E+00 0.  1.
         11    1    3    3    0    0  0.43154746443E+00  0.65034750164E+01 -0.16024066446E+01  0.67118647050E+01  0.51100000000E-03 0. -1.
        -11    1    3    3    0    0  0.10033924936E+02  0.33187446843E+01 -0.64667193297E+01  0.12390003029E+02  0.51100000000E-03 0.  1.
         12    1    3    3    0    0 -0.30753102991E+02  0.85372545920E+01  0.24441842017E+02  0.40200021153E+02  0.00000000000E+00 0. -1.
</event>
<event>
 7    1  0.8406637E-013  0.5930194E+02  0.7816164E-02  0.1266605E+00
        -11   -1    0    0    0    0  0.00000000000E+00  0.00000000000E+00  0.45593999997E+02  0.45594000000E+02  0.51100000000E-03 0. -1.
         11   -1    0    0    0    0 -0.00000000000E+00 -0.00000000000E+00 -0.45593999997E+02  0.45594000000E+02  0.51100000000E-03 0.  1.
    9900012    2    1    2    0    0 -0.18089270695E+01  0.17594090735E+02  0.26531047945E+02  0.59301941118E+02  0.49999994694E+02 0.  0.
        -12    1    1    2    0    0  0.18089270695E+01 -0.17594090735E+02 -0.26531047945E+02  0.31886058882E+02  0.00000000000E+00 0.  1.
         11    1    3    3    0    0  0.76061683143E+00  0.21000175936E+02  0.18470060878E+02  0.27977295731E+02  0.51100000000E-03 0. -1.
        -11    1    3    3    0    0 -0.24802627155E+01  0.41726138623E+01 -0.10340639385E+02  0.11423275919E+02  0.51100000000E-03 0.  1.
         12    1    3    3    0    0 -0.89281185477E-01 -0.75786990634E+01  0.18401626452E+02  0.19901369468E+02  0.00000000000E+00 0. -1.
</event>
<event>
 7    1  0.7313719E-013  0.5930195E+02  0.7816164E-02  0.1266605E+00
        -11   -1    0    0    0    0  0.00000000000E+00  0.00000000000E+00  0.45593999997E+02  0.45594000000E+02  0.51100000000E-03 0.  1.
         11   -1    0    0    0    0 -0.00000000000E+00 -0.00000000000E+00 -0.45593999997E+02  0.45594000000E+02  0.51100000000E-03 0. -1.
    9900012    2    1    2    0    0 -0.29942974334E+02 -0.42734338994E+01 -0.10093381186E+02  0.59301948300E+02  0.50000007792E+02 0.  0.
        -12    1    1    2    0    0  0.29942974334E+02  0.42734338994E+01  0.10093381186E+02  0.31886051700E+02  0.00000000000E+00 0.  1.
         11    1    3    3    0    0 -0.38284987040E+01 -0.10334507968E+02  0.37169678689E+01  0.11630791361E+02  0.51100000000E-03 0. -1.
        -11    1    3    3    0    0  0.92843753493E+01  0.41465789740E+01 -0.27071931690E+01  0.10522482498E+02  0.51100000000E-03 0.  1.
         12    1    3    3    0    0 -0.35398850979E+02  0.19144950950E+01 -0.11103155886E+02  0.37148674441E+02  0.00000000000E+00 0. -1.
</event>
<event>
 7    1  0.7313719E-013  0.5930194E+02  0.7816164E-02  0.1266605E+00
        -11   -1    0    0    0    0  0.00000000000E+00  0.00000000000E+00  0.45593999997E+02  0.45594000000E+02  0.51100000000E-03 0.  1.
         11   -1    0    0    0    0 -0.00000000000E+00 -0.00000000000E+00 -0.45593999997E+02  0.45594000000E+02  0.51100000000E-03 0. -1.
    9900012    2    1    2    0    0 -0.15987382133E+01  0.46716340912E+01 -0.31501443572E+02  0.59301936021E+02  0.49999985398E+02 0.  0.
        -12    1    1    2    0    0  0.15987382133E+01 -0.46716340912E+01  0.31501443572E+02  0.31886063979E+02  0.00000000000E+00 0.  1.
         11    1    3    3    0    0  0.93715482411E+01 -0.29438715244E+01 -0.46275098333E+01  0.10858459536E+02  0.51100000000E-03 0. -1.
        -11    1    3    3    0    0 -0.14464679863E+02 -0.12967047486E+02 -0.12671281125E+02  0.23193375124E+02  0.51100000000E-03 0.  1.
         12    1    3    3    0    0  0.34943934082E+01  0.20582553102E+02 -0.14202652614E+02  0.25250101361E+02  0.00000000000E+00 0. -1.
</event>
<event>
 7    1  0.7313719E-013  0.5930189E+02  0.7816164E-02  0.1266605E+00
        -11   -1    0    0    0    0  0.00000000000E+00  0.00000000000E+00  0.45593999997E+02  0.45594000000E+02  0.51100000000E-03 0.  1.
         11   -1    0    0    0    0 -0.00000000000E+00 -0.00000000000E+00 -0.45593999997E+02  0.45594000000E+02  0.51100000000E-03 0. -1.
    9900012    2    1    2    0    0 -0.30433918068E+02  0.93422730570E+01 -0.17951607718E+01  0.59301889590E+02  0.49999900719E+02 0.  0.
        -12    1    1    2    0    0  0.30433918068E+02 -0.93422730570E+01  0.17951607718E+01  0.31886110410E+02  0.00000000000E+00 0.  1.
         11    1    3    3    0    0 -0.14659929647E+02  0.31519512376E+00 -0.12151448440E+02  0.19043912010E+02  0.51100000000E-03 0. -1.
        -11    1    3    3    0    0  0.51643332272E+01  0.90826106105E+01 -0.74008608907E+01  0.12803784416E+02  0.51100000000E-03 0.  1.
         12    1    3    3    0    0 -0.20938321649E+02 -0.55532677336E-01  0.17757148559E+02  0.27454193164E+02  0.00000000000E+00 0. -1.
</event>
<event>
 7    1  0.7313719E-013  0.5930194E+02  0.7816164E-02  0.1266605E+00
        -11   -1    0    0    0    0  0.00000000000E+00  0.00000000000E+00  0.45593999997E+02  0.45594000000E+02  0.51100000000E-03 0. -1.
         11   -1    0    0    0    0 -0.00000000000E+00 -0.00000000000E+00 -0.45593999997E+02  0.45594000000E+02  0.51100000000E-03 0.  1.
    9900012    2    1    2    0    0  0.31838535366E+02  0.14530482718E+01  0.95754788929E+00  0.59301943777E+02  0.49999999542E+02 0.  0.
        -12    1    1    2    0    0 -0.31838535366E+02 -0.14530482718E+01 -0.95754788929E+00  0.31886056223E+02  0.00000000000E+00 0.  1.
         11    1    3    3    0    0 -0.50529753366E+01  0.37093561639E+01 -0.41273350793E+01  0.75051167893E+01  0.51100000000E-03 0. -1.
        -11    1    3    3    0    0  0.20494682765E+01  0.52062027678E+01 -0.11276109518E+02  0.12587911408E+02  0.51100000000E-03 0.  1.
         12    1    3    3    0    0  0.34842042426E+02 -0.74625106598E+01  0.16360992487E+02  0.39208915580E+02  0.00000000000E+00 0. -1.
</event>
<event>
 7    1  0.7313719E-013  0.5930194E+02  0.7816164E-02  0.1266605E+00
        -11   -1    0    0    0    0  0.00000000000E+00  0.00000000000E+00  0.45593999997E+02  0.45594000000E+02  0.51100000000E-03 0.  1.
         11   -1    0    0    0    0 -0.00000000000E+00 -0.00000000000E+00 -0.45593999997E+02  0.45594000000E+02  0.51100000000E-03 0. -1.
    9900012    2    1    2    0    0  0.49612046959E+01  0.28403748595E+02 -0.13613750999E+02  0.59301941878E+02  0.49999996079E+02 0.  0.
        -12    1    1    2    0    0 -0.49612046959E+01 -0.28403748595E+02  0.13613750999E+02  0.31886058122E+02  0.00000000000E+00 0.  1.
         11    1    3    3    0    0  0.12264799007E+02  0.44898832323E+01 -0.18925671187E+02  0.22994898918E+02  0.51100000000E-03 0. -1.
        -11    1    3    3    0    0  0.71803847337E+01  0.68892580761E+01  0.92785557977E+01  0.13605565027E+02  0.51100000000E-03 0.  1.
         12    1    3    3    0    0 -0.14483979045E+02  0.17024607287E+02 -0.39666356096E+01  0.22701477932E+02  0.00000000000E+00 0. -1.
</event>
<event>
 7    1  0.7313719E-013  0.5930194E+02  0.7816164E-02  0.1266605E+00
        -11   -1    0    0    0    0  0.00000000000E+00  0.00000000000E+00  0.45593999997E+02  0.45594000000E+02  0.51100000000E-03 0. -1.
         11   -1    0    0    0    0 -0.00000000000E+00 -0.00000000000E+00 -0.45593999997E+02  0.45594000000E+02  0.51100000000E-03 0.  1.
    9900012    2    1    2    0    0  0.18168368190E+02  0.24112596487E+02  0.10257373905E+02  0.59301942993E+02  0.49999998112E+02 0.  0.
        -12    1    1    2    0    0 -0.18168368190E+02 -0.24112596487E+02 -0.10257373905E+02  0.31886057007E+02  0.00000000000E+00 0.  1.
         11    1    3    3    0    0  0.53252124917E+00  0.16452617302E+02  0.10939287888E+02  0.19764620278E+02  0.51100000000E-03 0. -1.
        -11    1    3    3    0    0 -0.38181294706E+01  0.78288976124E+01  0.11837712464E+02  0.14696978843E+02  0.51100000000E-03 0.  1.
        -12    1    3    3    0    0  0.21453976412E+02 -0.16891842752E+00 -0.12519626447E+02  0.24840343872E+02  0.00000000000E+00 0.  1.
</event>
<event>
 7    1  0.7313719E-013  0.5930207E+02  0.7816164E-02  0.1266604E+00
        -11   -1    0    0    0    0  0.00000000000E+00  0.00000000000E+00  0.45593999997E+02  0.45594000000E+02  0.51100000000E-03 0.  1.
         11   -1    0    0    0    0 -0.00000000000E+00 -0.00000000000E+00 -0.45593999997E+02  0.45594000000E+02  0.51100000000E-03 0. -1.
    9900012    2    1    2    0    0  0.13582733452E+02  0.24643566903E+02 -0.14997220195E+02  0.59302068129E+02  0.50000226330E+02 0.  0.
        -12    1    1    2    0    0 -0.13582733452E+02 -0.24643566903E+02  0.14997220195E+02  0.31885931871E+02  0.00000000000E+00 0.  1.
         11    1    3    3    0    0  0.68821101241E+01  0.59000390443E+01  0.49813107728E+01  0.10343469329E+02  0.51100000000E-03 0. -1.
        -11    1    3    3    0    0 -0.16923793569E+02  0.86025127916E+01 -0.87714120690E+01  0.20913050591E+02  0.51100000000E-03 0.  1.
         12    1    3    3    0    0  0.23624416896E+02  0.10141015067E+02 -0.11207118899E+02  0.28045548208E+02  0.00000000000E+00 0. -1.
</event>
<event>
 7    1  0.7313719E-013  0.5930190E+02  0.7816164E-02  0.1266605E+00
        -11   -1    0    0    0    0  0.00000000000E+00  0.00000000000E+00  0.45593999997E+02  0.45594000000E+02  0.51100000000E-03 0.  1.
         11   -1    0    0    0    0 -0.00000000000E+00 -0.00000000000E+00 -0.45593999997E+02  0.45594000000E+02  0.51100000000E-03 0. -1.
    9900012    2    1    2    0    0  0.22316197120E+02 -0.22237108720E+02  0.49215535467E+01  0.59301900404E+02  0.49999920441E+02 0.  0.
        -12    1    1    2    0    0 -0.22316197120E+02  0.22237108720E+02 -0.49215535467E+01  0.31886099596E+02  0.00000000000E+00 0.  1.
         11    1    3    3    0    0 -0.10315126589E+02  0.24580887333E+01  0.16044670883E+01  0.10724660912E+02  0.51100000000E-03 0. -1.
        -11    1    3    3    0    0  0.58212019127E+01 -0.15783128221E+02  0.99659632740E+01  0.19552850237E+02  0.51100000000E-03 0.  1.
         12    1    3    3    0    0  0.26810121797E+02 -0.89120692325E+01 -0.66488768156E+01  0.29024389256E+02  0.00000000000E+00 0. -1.
</event>
<event>
 7    1  0.7313719E-013  0.5930196E+02  0.7816164E-02  0.1266605E+00
        -11   -1    0    0    0    0  0.00000000000E+00  0.00000000000E+00  0.45593999997E+02  0.45594000000E+02  0.51100000000E-03 0. -1.
         11   -1    0    0    0    0 -0.00000000000E+00 -0.00000000000E+00 -0.45593999997E+02  0.45594000000E+02  0.51100000000E-03 0.  1.
    9900012    2    1    2    0    0 -0.59378182838E+01  0.24734255052E+02  0.19227022383E+02  0.59301961540E+02  0.50000031938E+02 0.  0.
        -12    1    1    2    0    0  0.59378182838E+01 -0.24734255052E+02 -0.19227022383E+02  0.31886038460E+02  0.00000000000E+00 0.  1.
         11    1    3    3    0    0 -0.53317700585E+01  0.29729264896E+01  0.15093726334E+02  0.16281481467E+02  0.51100000000E-03 0. -1.
        -11    1    3    3    0    0 -0.45341535370E+01  0.38668869634E+01  0.18692486460E+02  0.19619388711E+02  0.51100000000E-03 0.  1.
         12    1    3    3    0    0  0.39281053117E+01  0.17894441599E+02 -0.14559190411E+02  0.23401091361E+02  0.00000000000E+00 0. -1.
</event>
<event>
 7    1  0.7313719E-013  0.5930195E+02  0.7816164E-02  0.1266605E+00
        -11   -1    0    0    0    0  0.00000000000E+00  0.00000000000E+00  0.45593999997E+02  0.45594000000E+02  0.51100000000E-03 0.  1.
         11   -1    0    0    0    0 -0.00000000000E+00 -0.00000000000E+00 -0.45593999997E+02  0.45594000000E+02  0.51100000000E-03 0. -1.
    9900012    2    1    2    0    0  0.16129115423E+02  0.16301822767E+02 -0.22154508260E+02  0.59301952486E+02  0.50000015425E+02 0.  0.
        -12    1    1    2    0    0 -0.16129115423E+02 -0.16301822767E+02  0.22154508260E+02  0.31886047514E+02  0.00000000000E+00 0.  1.
         11    1    3    3    0    0 -0.86298730215E+01 -0.35407306908E+01  0.11306186531E+01  0.93962642040E+01  0.51100000000E-03 0.  1.
        -11    1    3    3    0    0  0.16180807874E+02  0.61342473626E+01  0.43896800418E+01  0.17852641969E+02  0.51100000000E-03 0. -1.
         12    1    3    3    0    0  0.85781805709E+01  0.13708306095E+02 -0.27674806955E+02  0.32053046312E+02  0.00000000000E+00 0. -1.
</event>
<event>
 7    1  0.7313719E-013  0.5930191E+02  0.7816164E-02  0.1266605E+00
        -11   -1    0    0    0    0  0.00000000000E+00  0.00000000000E+00  0.45593999997E+02  0.45594000000E+02  0.51100000000E-03 0.  1.
         11   -1    0    0    0    0 -0.00000000000E+00 -0.00000000000E+00 -0.45593999997E+02  0.45594000000E+02  0.51100000000E-03 0. -1.
    9900012    2    1    2    0    0 -0.13706770253E+02 -0.22467060703E+02 -0.18002169809E+02  0.59301913924E+02  0.49999945099E+02 0.  0.
        -12    1    1    2    0    0  0.13706770253E+02  0.22467060703E+02  0.18002169809E+02  0.31886086076E+02  0.00000000000E+00 0.  1.
         11    1    3    3    0    0  0.33853531014E+01 -0.10074940731E+01 -0.47567255333E+00  0.35639759493E+01  0.51100000000E-03 0. -1.
        -11    1    3    3    0    0  0.11561149160E+02  0.32637162801E+01 -0.12873430597E+02  0.17607874076E+02  0.51100000000E-03 0.  1.
         12    1    3    3    0    0 -0.28653272514E+02 -0.24723282910E+02 -0.46530666583E+01  0.38130063899E+02  0.00000000000E+00 0. -1.
</event>
<event>
 7    1  0.7313719E-013  0.5930193E+02  0.7816164E-02  0.1266605E+00
        -11   -1    0    0    0    0  0.00000000000E+00  0.00000000000E+00  0.45593999997E+02  0.45594000000E+02  0.51100000000E-03 0.  1.
         11   -1    0    0    0    0 -0.00000000000E+00 -0.00000000000E+00 -0.45593999997E+02  0.45594000000E+02  0.51100000000E-03 0. -1.
    9900012    2    1    2    0    0  0.27479672953E+02 -0.51643690700E+01 -0.15327041886E+02  0.59301931781E+02  0.49999977665E+02 0.  0.
        -12    1    1    2    0    0 -0.27479672953E+02  0.51643690700E+01  0.15327041886E+02  0.31886068219E+02  0.00000000000E+00 0.  1.
         11    1    3    3    0    0 -0.36904623650E+01  0.31006570379E+01 -0.54484559582E+01  0.72745624696E+01  0.51100000000E-03 0. -1.
        -11    1    3    3    0    0  0.25111196009E+02  0.86770348548E+01  0.68740182629E+01  0.27442944926E+02  0.51100000000E-03 0.  1.
         12    1    3    3    0    0  0.60589393091E+01 -0.16942060963E+02 -0.16752604191E+02  0.24584424386E+02  0.00000000000E+00 0. -1.
</event>
<event>
 7    1  0.7313719E-013  0.5930189E+02  0.7816164E-02  0.1266605E+00
        -11   -1    0    0    0    0  0.00000000000E+00  0.00000000000E+00  0.45593999997E+02  0.45594000000E+02  0.51100000000E-03 0.  1.
         11   -1    0    0    0    0 -0.00000000000E+00 -0.00000000000E+00 -0.45593999997E+02  0.45594000000E+02  0.51100000000E-03 0. -1.
    9900012    2    1    2    0    0 -0.17363555512E+02  0.83856105135E+01  0.25395124845E+02  0.59301891902E+02  0.49999904936E+02 0.  0.
        -12    1    1    2    0    0  0.17363555512E+02 -0.83856105135E+01 -0.25395124845E+02  0.31886108098E+02  0.00000000000E+00 0.  1.
         11    1    3    3    0    0  0.43722860257E+01 -0.14359406365E+01 -0.79773194577E+01  0.92095839534E+01  0.51100000000E-03 0. -1.
        -11    1    3    3    0    0  0.15760055332E+01 -0.74421547971E+01  0.32474987411E+01  0.82713789539E+01  0.51100000000E-03 0.  1.
         12    1    3    3    0    0 -0.23311847071E+02  0.17263705947E+02  0.30124945562E+02  0.41820928995E+02  0.00000000000E+00 0. -1.
</event>
<event>
 7    1  0.7313719E-013  0.5930195E+02  0.7816164E-02  0.1266605E+00
        -11   -1    0    0    0    0  0.00000000000E+00  0.00000000000E+00  0.45593999997E+02  0.45594000000E+02  0.51100000000E-03 0.  1.
         11   -1    0    0    0    0 -0.00000000000E+00 -0.00000000000E+00 -0.45593999997E+02  0.45594000000E+02  0.51100000000E-03 0. -1.
    9900012    2    1    2    0    0 -0.87255860544E+01 -0.28160088422E+02  0.12148818454E+02  0.59301949417E+02  0.50000009829E+02 0.  0.
        -12    1    1    2    0    0  0.87255860544E+01  0.28160088422E+02 -0.12148818454E+02  0.31886050583E+02  0.00000000000E+00 0.  1.
         11    1    3    3    0    0 -0.40835552275E+01  0.75982221898E+01 -0.18473417477E+01  0.88216254475E+01  0.51100000000E-03 0. -1.
        -11    1    3    3    0    0 -0.15466014565E+02 -0.19562690763E+02  0.17792166753E+02  0.30634256551E+02  0.51100000000E-03 0.  1.
        -12    1    3    3    0    0  0.10823983738E+02 -0.16195619849E+02 -0.37960065511E+01  0.19846067419E+02  0.00000000000E+00 0.  1.
</event>
<event>
 7    1  0.7313719E-013  0.5930194E+02  0.7816164E-02  0.1266605E+00
        -11   -1    0    0    0    0  0.00000000000E+00  0.00000000000E+00  0.45593999997E+02  0.45594000000E+02  0.51100000000E-03 0.  1.
         11   -1    0    0    0    0 -0.00000000000E+00 -0.00000000000E+00 -0.45593999997E+02  0.45594000000E+02  0.51100000000E-03 0. -1.
    9900012    2    1    2    0    0  0.11958479785E+02 -0.28974968578E+02 -0.58452298526E+01  0.59301941057E+02  0.49999994582E+02 0.  0.
        -12    1    1    2    0    0 -0.11958479785E+02  0.28974968578E+02  0.58452298526E+01  0.31886058943E+02  0.00000000000E+00 0.  1.
         11    1    3    3    0    0  0.19015090554E+02  0.28373564125E+00 -0.90402437745E+01  0.21056594750E+02  0.51100000000E-03 0. -1.
        -11    1    3    3    0    0  0.54454337210E+01 -0.45831786800E+01  0.73980350931E+01  0.10265924153E+02  0.51100000000E-03 0.  1.
         12    1    3    3    0    0 -0.12502044490E+02 -0.24675525540E+02 -0.42030211712E+01  0.27979422154E+02  0.00000000000E+00 0. -1.
</event>
<event>
 7    1  0.7313719E-013  0.5930184E+02  0.7816164E-02  0.1266605E+00
        -11   -1    0    0    0    0  0.00000000000E+00  0.00000000000E+00  0.45593999997E+02  0.45594000000E+02  0.51100000000E-03 0.  1.
         11   -1    0    0    0    0 -0.00000000000E+00 -0.00000000000E+00 -0.45593999997E+02  0.45594000000E+02  0.51100000000E-03 0. -1.
    9900012    2    1    2    0    0  0.43567987284E-02 -0.20939464608E+02 -0.24047167865E+02  0.59301835612E+02  0.49999802276E+02 0.  0.
        -12    1    1    2    0    0 -0.43567987284E-02  0.20939464608E+02  0.24047167865E+02  0.31886164388E+02  0.00000000000E+00 0.  1.
         11    1    3    3    0    0 -0.14038241624E+02 -0.12916628357E+02 -0.27688067989E+02  0.33623512981E+02  0.51100000000E-03 0. -1.
        -11    1    3    3    0    0 -0.27682412497E+01  0.15579477403E+01 -0.37953718931E+01  0.49492634650E+01  0.51100000000E-03 0.  1.
        -12    1    3    3    0    0  0.16810839672E+02 -0.95807839917E+01  0.74362720174E+01  0.20729059166E+02  0.00000000000E+00 0.  1.
</event>
<event>
 7    1  0.7313719E-013  0.5930195E+02  0.7816164E-02  0.1266605E+00
        -11   -1    0    0    0    0  0.00000000000E+00  0.00000000000E+00  0.45593999997E+02  0.45594000000E+02  0.51100000000E-03 0.  1.
         11   -1    0    0    0    0 -0.00000000000E+00 -0.00000000000E+00 -0.45593999997E+02  0.45594000000E+02  0.51100000000E-03 0. -1.
    9900012    2    1    2    0    0  0.24677619182E+02  0.18244855020E+02 -0.86521863142E+01  0.59301953660E+02  0.50000017567E+02 0.  0.
        -12    1    1    2    0    0 -0.24677619182E+02 -0.18244855020E+02  0.86521863142E+01  0.31886046340E+02  0.00000000000E+00 0.  1.
         11    1    3    3    0    0  0.38606010385E+01  0.17601399014E+02 -0.11973619228E+02  0.21635180732E+02  0.51100000000E-03 0. -1.
        -11    1    3    3    0    0 -0.12568502172E+01  0.11064621903E+02  0.67426470140E+01  0.13018019025E+02  0.51100000000E-03 0.  1.
         12    1    3    3    0    0  0.22073868361E+02 -0.10421165897E+02 -0.34212141003E+01  0.24648753903E+02  0.00000000000E+00 0. -1.
</event>
<event>
 7    1  0.7767038E-013  0.5930196E+02  0.7816164E-02  0.1266605E+00
        -11   -1    0    0    0    0  0.00000000000E+00  0.00000000000E+00  0.45593999997E+02  0.45594000000E+02  0.51100000000E-03 0.  1.
         11   -1    0    0    0    0 -0.00000000000E+00 -0.00000000000E+00 -0.45593999997E+02  0.45594000000E+02  0.51100000000E-03 0. -1.
    9900012    2    1    2    0    0 -0.26086354780E+02  0.13515568899E+02 -0.12391577853E+02  0.59301957441E+02  0.50000024463E+02 0.  0.
        -12    1    1    2    0    0  0.26086354780E+02 -0.13515568899E+02  0.12391577853E+02  0.31886042559E+02  0.00000000000E+00 0.  1.
         11    1    3    3    0    0 -0.33761924723E+01  0.11554915969E+02  0.89627724436E+01  0.15008199386E+02  0.51100000000E-03 0. -1.
        -11    1    3    3    0    0 -0.78915513776E+01 -0.12629733917E+02 -0.58699360269E+00  0.14904070709E+02  0.51100000000E-03 0.  1.
         12    1    3    3    0    0 -0.14818610930E+02  0.14590386846E+02 -0.20767356694E+02  0.29389687346E+02  0.00000000000E+00 0. -1.
</event>
<event>
 7    1  0.7313719E-013  0.5930194E+02  0.7816164E-02  0.1266605E+00
        -11   -1    0    0    0    0  0.00000000000E+00  0.00000000000E+00  0.45593999997E+02  0.45594000000E+02  0.51100000000E-03 0. -1.
         11   -1    0    0    0    0 -0.00000000000E+00 -0.00000000000E+00 -0.45593999997E+02  0.45594000000E+02  0.51100000000E-03 0.  1.
    9900012    2    1    2    0    0  0.20651019510E+02  0.16272804230E+02  0.18040290826E+02  0.59301939450E+02  0.49999991652E+02 0.  0.
        -12    1    1    2    0    0 -0.20651019510E+02 -0.16272804230E+02 -0.18040290826E+02  0.31886060550E+02  0.00000000000E+00 0.  1.
         11    1    3    3    0    0  0.22881034721E+02  0.50849788836E+01  0.37058513719E+01  0.23730404439E+02  0.51100000000E-03 0. -1.
        -11    1    3    3    0    0  0.13457515001E+02  0.47326469428E+00  0.46343751972E+01  0.14241001481E+02  0.51100000000E-03 0.  1.
        -12    1    3    3    0    0 -0.15687530212E+02  0.10714560652E+02  0.97000642566E+01  0.21330533530E+02  0.00000000000E+00 0.  1.
</event>
<event>
 7    1  0.7313719E-013  0.5930194E+02  0.7816164E-02  0.1266605E+00
        -11   -1    0    0    0    0  0.00000000000E+00  0.00000000000E+00  0.45593999997E+02  0.45594000000E+02  0.51100000000E-03 0.  1.
         11   -1    0    0    0    0 -0.00000000000E+00 -0.00000000000E+00 -0.45593999997E+02  0.45594000000E+02  0.51100000000E-03 0. -1.
    9900012    2    1    2    0    0  0.42846742516E+01  0.29407334860E+02 -0.11557285206E+02  0.59301943198E+02  0.49999998487E+02 0.  0.
        -12    1    1    2    0    0 -0.42846742516E+01 -0.29407334860E+02  0.11557285206E+02  0.31886056802E+02  0.00000000000E+00 0.  1.
         11    1    3    3    0    0 -0.16996315205E+01  0.57601600357E+00 -0.16359187200E+02  0.16457325052E+02  0.51100000000E-03 0. -1.
        -11    1    3    3    0    0 -0.10546466640E+02  0.15951155001E+01  0.20889761874E+01  0.10869046592E+02  0.51100000000E-03 0.  1.
         12    1    3    3    0    0  0.16530772412E+02  0.27236203356E+02  0.27129258067E+01  0.31975571555E+02  0.00000000000E+00 0. -1.
</event>
<event>
 7    1  0.7313719E-013  0.5930193E+02  0.7816164E-02  0.1266605E+00
        -11   -1    0    0    0    0  0.00000000000E+00  0.00000000000E+00  0.45593999997E+02  0.45594000000E+02  0.51100000000E-03 0. -1.
         11   -1    0    0    0    0 -0.00000000000E+00 -0.00000000000E+00 -0.45593999997E+02  0.45594000000E+02  0.51100000000E-03 0.  1.
    9900012    2    1    2    0    0 -0.31617035449E+02  0.46864342919E+00  0.41066904366E+01  0.59301929945E+02  0.49999974316E+02 0.  0.
        -12    1    1    2    0    0  0.31617035449E+02 -0.46864342919E+00 -0.41066904366E+01  0.31886070055E+02  0.00000000000E+00 0.  1.
         11    1    3    3    0    0  0.73537892417E+01 -0.22356512367E+01 -0.44097366961E-02  0.76861155580E+01  0.51100000000E-03 0.  1.
        -11    1    3    3    0    0 -0.14891436144E+02 -0.80052963798E+01 -0.11995507563E+02  0.20729974494E+02  0.51100000000E-03 0. -1.
         12    1    3    3    0    0 -0.24079388546E+02  0.10709591046E+02  0.16106607736E+02  0.30885839893E+02  0.00000000000E+00 0. -1.
</event>
<event>
 7    1  0.7313719E-013  0.5930193E+02  0.7816164E-02  0.1266605E+00
        -11   -1    0    0    0    0  0.00000000000E+00  0.00000000000E+00  0.45593999997E+02  0.45594000000E+02  0.51100000000E-03 0.  1.
         11   -1    0    0    0    0 -0.00000000000E+00 -0.00000000000E+00 -0.45593999997E+02  0.45594000000E+02  0.51100000000E-03 0. -1.
    9900012    2    1    2    0    0  0.88083339817E+01 -0.21219337396E+02 -0.22110510145E+02  0.59301926458E+02  0.49999967958E+02 0.  0.
        -12    1    1    2    0    0 -0.88083339817E+01  0.21219337396E+02  0.22110510145E+02  0.31886073542E+02  0.00000000000E+00 0.  1.
         11    1    3    3    0    0 -0.91072799879E+01 -0.59482603314E+01 -0.26200212887E+01  0.11188782845E+02  0.51100000000E-03 0. -1.
        -11    1    3    3    0    0 -0.93264124731E+01 -0.13737177753E+02 -0.58160932162E+01  0.17593151020E+02  0.51100000000E-03 0.  1.
         12    1    3    3    0    0  0.27242026443E+02 -0.15338993112E+01 -0.13674395640E+02  0.30519992594E+02  0.00000000000E+00 0. -1.
</event>
<event>
 7    1  0.7313719E-013  0.5930192E+02  0.7816164E-02  0.1266605E+00
        -11   -1    0    0    0    0  0.00000000000E+00  0.00000000000E+00  0.45593999997E+02  0.45594000000E+02  0.51100000000E-03 0.  1.
         11   -1    0    0    0    0 -0.00000000000E+00 -0.00000000000E+00 -0.45593999997E+02  0.45594000000E+02  0.51100000000E-03 0. -1.
    9900012    2    1    2    0    0 -0.31617260351E+02 -0.39247347432E+01 -0.12912561287E+01  0.59301920948E+02  0.49999957908E+02 0.  0.
        -12    1    1    2    0    0  0.31617260351E+02  0.39247347432E+01  0.12912561287E+01  0.31886079052E+02  0.00000000000E+00 0.  1.
         11    1    3    3    0    0 -0.30471290355E+02 -0.10475395292E+02  0.10769246720E+02  0.33973668003E+02  0.51100000000E-03 0. -1.
        -11    1    3    3    0    0 -0.68260112459E+01 -0.16651295783E+01  0.26821701053E+01  0.75207129168E+01  0.51100000000E-03 0.  1.
        -12    1    3    3    0    0  0.56800412499E+01  0.82157901266E+01 -0.14742672954E+02  0.17807540028E+02  0.00000000000E+00 0.  1.
</event>
<event>
 7    1  0.7313719E-013  0.5930197E+02  0.7816164E-02  0.1266605E+00
        -11   -1    0    0    0    0  0.00000000000E+00  0.00000000000E+00  0.45593999997E+02  0.45594000000E+02  0.51100000000E-03 0. -1.
         11   -1    0    0    0    0 -0.00000000000E+00 -0.00000000000E+00 -0.45593999997E+02  0.45594000000E+02  0.51100000000E-03 0.  1.
    9900012    2    1    2    0    0  0.31500255252E+02 -0.13928910108E+01  0.47447853812E+01  0.59301965210E+02  0.50000038631E+02 0.  0.
        -12    1    1    2    0    0 -0.31500255252E+02  0.13928910108E+01 -0.47447853812E+01  0.31886034790E+02  0.00000000000E+00 0.  1.
         11    1    3    3    0    0  0.45183043723E+00 -0.92296295568E+00  0.24210000684E+01  0.26300671006E+01  0.51100000000E-03 0. -1.
        -11    1    3    3    0    0 -0.83315314473E+00  0.17678415379E+02  0.82237239715E+01  0.19515382412E+02  0.51100000000E-03 0.  1.
        -12    1    3    3    0    0  0.31881577960E+02 -0.18148343434E+02 -0.58999386587E+01  0.37156515697E+02  0.00000000000E+00 0.  1.
</event>
<event>
 7    1  0.7313719E-013  0.5930190E+02  0.7816164E-02  0.1266605E+00
        -11   -1    0    0    0    0  0.00000000000E+00  0.00000000000E+00  0.45593999997E+02  0.45594000000E+02  0.51100000000E-03 0. -1.
         11   -1    0    0    0    0 -0.00000000000E+00 -0.00000000000E+00 -0.45593999997E+02  0.45594000000E+02  0.51100000000E-03 0.  1.
    9900012    2    1    2    0    0  0.78950964071E+01 -0.23190276471E+02  0.20410822832E+02  0.59301903363E+02  0.49999925837E+02 0.  0.
        -12    1    1    2    0    0 -0.78950964071E+01  0.23190276471E+02 -0.20410822832E+02  0.31886096637E+02  0.00000000000E+00 0.  1.
         11    1    3    3    0    0 -0.38834110256E+01 -0.17324007243E+02  0.62388867500E+01  0.18818230956E+02  0.51100000000E-03 0. -1.
        -11    1    3    3    0    0  0.86589322879E+01 -0.12043795750E+02  0.24149307869E+02  0.28341121983E+02  0.51100000000E-03 0.  1.
        -12    1    3    3    0    0  0.31195751448E+01  0.61775265227E+01 -0.99773717873E+01  0.12142550424E+02  0.00000000000E+00 0.  1.
</event>
<event>
 7    1  0.7313719E-013  0.5930194E+02  0.7816164E-02  0.1266605E+00
        -11   -1    0    0    0    0  0.00000000000E+00  0.00000000000E+00  0.45593999997E+02  0.45594000000E+02  0.51100000000E-03 0. -1.
         11   -1    0    0    0    0 -0.00000000000E+00 -0.00000000000E+00 -0.45593999997E+02  0.45594000000E+02  0.51100000000E-03 0.  1.
    9900012    2    1    2    0    0  0.69897360565E+01 -0.79783108916E+00  0.31100283181E+02  0.59301944137E+02  0.50000000198E+02 0.  0.
        -12    1    1    2    0    0 -0.69897360565E+01  0.79783108916E+00 -0.31100283181E+02  0.31886055863E+02  0.00000000000E+00 0.  1.
         11    1    3    3    0    0  0.36827493905E+01  0.20100914599E+01  0.86842621007E+00  0.42845390761E+01  0.51100000000E-03 0. -1.
        -11    1    3    3    0    0  0.22579495919E+02 -0.10842279896E+02  0.15357592029E+02  0.29381019425E+02  0.51100000000E-03 0.  1.
         12    1    3    3    0    0 -0.19272509253E+02  0.80343573467E+01  0.14874264942E+02  0.25636385635E+02  0.00000000000E+00 0. -1.
</event>
<event>
 7    1  0.7313719E-013  0.5930200E+02  0.7816164E-02  0.1266605E+00
        -11   -1    0    0    0    0  0.00000000000E+00  0.00000000000E+00  0.45593999997E+02  0.45594000000E+02  0.51100000000E-03 0.  1.
         11   -1    0    0    0    0 -0.00000000000E+00 -0.00000000000E+00 -0.45593999997E+02  0.45594000000E+02  0.51100000000E-03 0. -1.
    9900012    2    1    2    0    0  0.24973423058E+02 -0.17569303122E+02 -0.91850150744E+01  0.59302003491E+02  0.50000108447E+02 0.  0.
        -12    1    1    2    0    0 -0.24973423058E+02  0.17569303122E+02  0.91850150744E+01  0.31885996509E+02  0.00000000000E+00 0.  1.
         11    1    3    3    0    0  0.17880812004E+02 -0.37251930467E+01 -0.66992526520E+01  0.19454574977E+02  0.51100000000E-03 0. -1.
        -11    1    3    3    0    0  0.61581641423E+01  0.60552889014E+01  0.12306581766E+02  0.15034675397E+02  0.51100000000E-03 0.  1.
         12    1    3    3    0    0  0.93444691166E+00 -0.19899398977E+02 -0.14792344188E+02  0.24812753117E+02  0.00000000000E+00 0. -1.
</event>
<event>
 7    1  0.7313719E-013  0.5930194E+02  0.7816164E-02  0.1266605E+00
        -11   -1    0    0    0    0  0.00000000000E+00  0.00000000000E+00  0.45593999997E+02  0.45594000000E+02  0.51100000000E-03 0.  1.
         11   -1    0    0    0    0 -0.00000000000E+00 -0.00000000000E+00 -0.45593999997E+02  0.45594000000E+02  0.51100000000E-03 0. -1.
    9900012    2    1    2    0    0  0.38232894085E+01  0.12441903529E+02 -0.29108459166E+02  0.59301938777E+02  0.49999990424E+02 0.  0.
        -12    1    1    2    0    0 -0.38232894085E+01 -0.12441903529E+02  0.29108459166E+02  0.31886061223E+02  0.00000000000E+00 0.  1.
         11    1    3    3    0    0 -0.12106262075E+01  0.22446628050E+01  0.46376675509E+01  0.52926446599E+01  0.51100000000E-03 0. -1.
        -11    1    3    3    0    0  0.93430482802E+01 -0.35250038843E+01  0.60624484050E+01  0.11682101030E+02  0.51100000000E-03 0.  1.
         12    1    3    3    0    0 -0.43091326642E+01  0.13722244609E+02 -0.39808575121E+02  0.42327193087E+02  0.00000000000E+00 0. -1.
</event>
<event>
 7    1  0.7313719E-013  0.5930192E+02  0.7816164E-02  0.1266605E+00
        -11   -1    0    0    0    0  0.00000000000E+00  0.00000000000E+00  0.45593999997E+02  0.45594000000E+02  0.51100000000E-03 0.  1.
         11   -1    0    0    0    0 -0.00000000000E+00 -0.00000000000E+00 -0.45593999997E+02  0.45594000000E+02  0.51100000000E-03 0. -1.
    9900012    2    1    2    0    0 -0.13107187324E+02 -0.18296546697E+01 -0.29009929120E+02  0.59301921795E+02  0.49999959452E+02 0.  0.
        -12    1    1    2    0    0  0.13107187324E+02  0.18296546697E+01  0.29009929120E+02  0.31886078205E+02  0.00000000000E+00 0.  1.
         11    1    3    3    0    0 -0.11962660494E+02  0.15858151394E+02 -0.15201425923E+02  0.25013387657E+02  0.51100000000E-03 0. -1.
        -11    1    3    3    0    0 -0.10402017986E+01  0.67775840632E+01 -0.21423533846E+01  0.71838251511E+01  0.51100000000E-03 0.  1.
         12    1    3    3    0    0 -0.10432503170E+00 -0.24465390127E+02 -0.11666149812E+02  0.27104708986E+02  0.00000000000E+00 0. -1.
</event>
<event>
 7    1  0.7313719E-013  0.5930195E+02  0.7816164E-02  0.1266605E+00
        -11   -1    0    0    0    0  0.00000000000E+00  0.00000000000E+00  0.45593999997E+02  0.45594000000E+02  0.51100000000E-03 0. -1.
         11   -1    0    0    0    0 -0.00000000000E+00 -0.00000000000E+00 -0.45593999997E+02  0.45594000000E+02  0.51100000000E-03 0.  1.
    9900012    2    1    2    0    0 -0.15549589352E+01  0.26183323696E+02 -0.18131067903E+02  0.59301953517E+02  0.50000017305E+02 0.  0.
        -12    1    1    2    0    0  0.15549589352E+01 -0.26183323696E+02  0.18131067903E+02  0.31886046483E+02  0.00000000000E+00 0.  1.
         11    1    3    3    0    0 -0.15872137508E+02  0.74795234668E+00 -0.79330349341E+01  0.17759989451E+02  0.51100000000E-03 0. -1.
        -11    1    3    3    0    0 -0.17468615416E+01 -0.35671799407E+00  0.65901072615E+01  0.68270262159E+01  0.51100000000E-03 0.  1.
        -12    1    3    3    0    0  0.16064040114E+02  0.25792089343E+02 -0.16788140230E+02  0.34714937849E+02  0.00000000000E+00 0.  1.
</event>
<event>
 7    1  0.7313719E-013  0.5930194E+02  0.7816164E-02  0.1266605E+00
        -11   -1    0    0    0    0  0.00000000000E+00  0.00000000000E+00  0.45593999997E+02  0.45594000000E+02  0.51100000000E-03 0. -1.
         11   -1    0    0    0    0 -0.00000000000E+00 -0.00000000000E+00 -0.45593999997E+02  0.45594000000E+02  0.51100000000E-03 0.  1.
    9900012    2    1    2    0    0  0.43407931077E+01 -0.25897755500E+02  0.18088240117E+02  0.59301942619E+02  0.49999997431E+02 0.  0.
        -12    1    1    2    0    0 -0.43407931077E+01  0.25897755500E+02 -0.18088240117E+02  0.31886057381E+02  0.00000000000E+00 0.  1.
         11    1    3    3    0    0  0.23219502112E+01 -0.34648486005E+01  0.51267321675E+01  0.66090855333E+01  0.51100000000E-03 0. -1.
        -11    1    3    3    0    0  0.17147035722E+02 -0.79387902356E+01 -0.10190639654E+02  0.21468450370E+02  0.51100000000E-03 0.  1.
         12    1    3    3    0    0 -0.15128192826E+02 -0.14494116664E+02  0.23152147604E+02  0.31224406716E+02  0.00000000000E+00 0. -1.
</event>
<event>
 7    1  0.7313719E-013  0.5930192E+02  0.7816164E-02  0.1266605E+00
        -11   -1    0    0    0    0  0.00000000000E+00  0.00000000000E+00  0.45593999997E+02  0.45594000000E+02  0.51100000000E-03 0. -1.
         11   -1    0    0    0    0 -0.00000000000E+00 -0.00000000000E+00 -0.45593999997E+02  0.45594000000E+02  0.51100000000E-03 0.  1.
    9900012    2    1    2    0    0  0.87285414767E+01  0.28769296769E+02  0.10623653887E+02  0.59301923183E+02  0.49999961984E+02 0.  0.
        -12    1    1    2    0    0 -0.87285414767E+01 -0.28769296769E+02 -0.10623653887E+02  0.31886076817E+02  0.00000000000E+00 0.  1.
         11    1    3    3    0    0  0.11357859797E+01  0.29285172219E+02  0.12522299349E+02  0.31870351472E+02  0.51100000000E-03 0. -1.
        -11    1    3    3    0    0  0.11818137063E+02  0.95349737414E+01 -0.51822582205E+01  0.16044933419E+02  0.51100000000E-03 0.  1.
         12    1    3    3    0    0 -0.42253815659E+01 -0.10050849192E+02  0.32836127591E+01  0.11386638292E+02  0.00000000000E+00 0. -1.
</event>
<event>
 7    1  0.7313719E-013  0.5930194E+02  0.7816164E-02  0.1266605E+00
        -11   -1    0    0    0    0  0.00000000000E+00  0.00000000000E+00  0.45593999997E+02  0.45594000000E+02  0.51100000000E-03 0.  1.
         11   -1    0    0    0    0 -0.00000000000E+00 -0.00000000000E+00 -0.45593999997E+02  0.45594000000E+02  0.51100000000E-03 0. -1.
    9900012    2    1    2    0    0 -0.79276062308E+01 -0.39637879749E+01 -0.30629430328E+02  0.59301944147E+02  0.50000000217E+02 0.  0.
        -12    1    1    2    0    0  0.79276062308E+01  0.39637879749E+01  0.30629430328E+02  0.31886055853E+02  0.00000000000E+00 0.  1.
         11    1    3    3    0    0  0.19431046099E+01  0.84945331927E+01  0.66064862098E+01  0.10935191356E+02  0.51100000000E-03 0. -1.
        -11    1    3    3    0    0 -0.65339424618E+01 -0.43457273039E+00  0.22749642986E+01  0.69322954620E+01  0.51100000000E-03 0.  1.
         12    1    3    3    0    0 -0.33367683790E+01 -0.12023748437E+02 -0.39510880836E+02  0.41434457329E+02  0.00000000000E+00 0. -1.
</event>
<event>
 7    1  0.7313719E-013  0.5930192E+02  0.7816164E-02  0.1266605E+00
        -11   -1    0    0    0    0  0.00000000000E+00  0.00000000000E+00  0.45593999997E+02  0.45594000000E+02  0.51100000000E-03 0.  1.
         11   -1    0    0    0    0 -0.00000000000E+00 -0.00000000000E+00 -0.45593999997E+02  0.45594000000E+02  0.51100000000E-03 0. -1.
    9900012    2    1    2    0    0  0.18426894817E+02 -0.26000633756E+02 -0.10672325355E+01  0.59301915361E+02  0.49999947719E+02 0.  0.
        -12    1    1    2    0    0 -0.18426894817E+02  0.26000633756E+02  0.10672325355E+01  0.31886084639E+02  0.00000000000E+00 0.  1.
         11    1    3    3    0    0  0.54324226455E+01 -0.25599552778E+02 -0.91814605613E+01  0.27733509272E+02  0.51100000000E-03 0. -1.
        -11    1    3    3    0    0  0.43716720723E+01 -0.13796136571E+02  0.25564690888E+01  0.14696272842E+02  0.51100000000E-03 0.  1.
        -12    1    3    3    0    0  0.86228000993E+01  0.13395055593E+02  0.55577589371E+01  0.16872133247E+02  0.00000000000E+00 0.  1.
</event>
<event>
 7    1  0.7313719E-013  0.5930194E+02  0.7816164E-02  0.1266605E+00
        -11   -1    0    0    0    0  0.00000000000E+00  0.00000000000E+00  0.45593999997E+02  0.45594000000E+02  0.51100000000E-03 0. -1.
         11   -1    0    0    0    0 -0.00000000000E+00 -0.00000000000E+00 -0.45593999997E+02  0.45594000000E+02  0.51100000000E-03 0.  1.
    9900012    2    1    2    0    0  0.24500031135E+02 -0.62028451887E+01  0.19442069746E+02  0.59301938938E+02  0.49999990718E+02 0.  0.
        -12    1    1    2    0    0 -0.24500031135E+02  0.62028451887E+01 -0.19442069746E+02  0.31886061062E+02  0.00000000000E+00 0.  1.
         11    1    3    3    0    0 -0.21311664117E+01 -0.73063829863E+01  0.13064416401E+02  0.15119658686E+02  0.51100000000E-03 0. -1.
        -11    1    3    3    0    0 -0.40032599151E+01 -0.10016997542E+02  0.40006351356E+01  0.11505277548E+02  0.51100000000E-03 0.  1.
        -12    1    3    3    0    0  0.30634457462E+02  0.11120535339E+02  0.23770182093E+01  0.32677002705E+02  0.00000000000E+00 0.  1.
</event>
<event>
 7    1  0.7313719E-013  0.5930194E+02  0.7816164E-02  0.1266605E+00
        -11   -1    0    0    0    0  0.00000000000E+00  0.00000000000E+00  0.45593999997E+02  0.45594000000E+02  0.51100000000E-03 0. -1.
         11   -1    0    0    0    0 -0.00000000000E+00 -0.00000000000E+00 -0.45593999997E+02  0.45594000000E+02  0.51100000000E-03 0.  1.
    9900012    2    1    2    0    0 -0.28982891479E+02  0.13164131295E+02 -0.18489664543E+01  0.59301936772E+02  0.49999986768E+02 0.  0.
        -12    1    1    2    0    0  0.28982891479E+02 -0.13164131295E+02  0.18489664543E+01  0.31886063228E+02  0.00000000000E+00 0.  1.
         11    1    3    3    0    0  0.90567660543E+00 -0.44041423484E+01  0.56947528149E+01  0.72558204101E+01  0.51100000000E-03 0.  1.
        -11    1    3    3    0    0  0.28110526755E+01 -0.61450135484E+01 -0.94393055270E+01  0.11608776755E+02  0.51100000000E-03 0. -1.
         12    1    3    3    0    0 -0.32699620760E+02  0.23713287192E+02  0.18955862578E+01  0.40437339607E+02  0.00000000000E+00 0. -1.
</event>
<event>
 7    1  0.7313719E-013  0.5930194E+02  0.7816164E-02  0.1266605E+00
        -11   -1    0    0    0    0  0.00000000000E+00  0.00000000000E+00  0.45593999997E+02  0.45594000000E+02  0.51100000000E-03 0. -1.
         11   -1    0    0    0    0 -0.00000000000E+00 -0.00000000000E+00 -0.45593999997E+02  0.45594000000E+02  0.51100000000E-03 0.  1.
    9900012    2    1    2    0    0  0.21784539916E+02 -0.22986677401E+02  0.37104367599E+01  0.59301939437E+02  0.49999991627E+02 0.  0.
        -12    1    1    2    0    0 -0.21784539916E+02  0.22986677401E+02 -0.37104367599E+01  0.31886060563E+02  0.00000000000E+00 0.  1.
         11    1    3    3    0    0 -0.79395936143E+01 -0.15265423666E+02  0.56990165374E+01  0.18125923321E+02  0.51100000000E-03 0. -1.
        -11    1    3    3    0    0  0.15098422218E+02 -0.15152142869E+02 -0.91633560829E+01  0.23270515292E+02  0.51100000000E-03 0.  1.
        -12    1    3    3    0    0  0.14625711312E+02  0.74308891343E+01  0.71747763054E+01  0.17905500824E+02  0.00000000000E+00 0.  1.
</event>
<event>
 7    1  0.7313719E-013  0.5930195E+02  0.7816164E-02  0.1266605E+00
        -11   -1    0    0    0    0  0.00000000000E+00  0.00000000000E+00  0.45593999997E+02  0.45594000000E+02  0.51100000000E-03 0. -1.
         11   -1    0    0    0    0 -0.00000000000E+00 -0.00000000000E+00 -0.45593999997E+02  0.45594000000E+02  0.51100000000E-03 0.  1.
    9900012    2    1    2    0    0 -0.12781539485E+02  0.23432932098E+02  0.17442759346E+02  0.59301954276E+02  0.50000018690E+02 0.  0.
        -12    1    1    2    0    0  0.12781539485E+02 -0.23432932098E+02 -0.17442759346E+02  0.31886045724E+02  0.00000000000E+00 0.  1.
         11    1    3    3    0    0 -0.58522351255E+01 -0.34502537701E+01  0.10802359605E+02  0.12761029752E+02  0.51100000000E-03 0. -1.
        -11    1    3    3    0    0  0.34284615973E+01 -0.39008127718E+01 -0.90772928993E+01  0.10457912595E+02  0.51100000000E-03 0.  1.
        -12    1    3    3    0    0 -0.10357765957E+02  0.30783998640E+02  0.15717692641E+02  0.36083011929E+02  0.00000000000E+00 0.  1.
</event>
<event>
 7    1  0.7313719E-013  0.5930190E+02  0.7816164E-02  0.1266605E+00
        -11   -1    0    0    0    0  0.00000000000E+00  0.00000000000E+00  0.45593999997E+02  0.45594000000E+02  0.51100000000E-03 0.  1.
         11   -1    0    0    0    0 -0.00000000000E+00 -0.00000000000E+00 -0.45593999997E+02  0.45594000000E+02  0.51100000000E-03 0. -1.
    9900012    2    1    2    0    0 -0.41714610074E+01 -0.30971446383E+02  0.63318063338E+01  0.59301900373E+02  0.49999920384E+02 0.  0.
        -12    1    1    2    0    0  0.41714610074E+01  0.30971446383E+02 -0.63318063338E+01  0.31886099627E+02  0.00000000000E+00 0.  1.
         11    1    3    3    0    0 -0.41450207153E+01 -0.78229153464E+01  0.68541067585E+01  0.11196337837E+02  0.51100000000E-03 0. -1.
        -11    1    3    3    0    0 -0.13184171255E+01 -0.21326605529E+02  0.18917247041E+02  0.28538124728E+02  0.51100000000E-03 0.  1.
         12    1    3    3    0    0  0.12919768334E+01 -0.18219255073E+01 -0.19439547466E+02  0.19567437808E+02  0.00000000000E+00 0. -1.
</event>
<event>
 7    1  0.7313719E-013  0.5930193E+02  0.7816164E-02  0.1266605E+00
        -11   -1    0    0    0    0  0.00000000000E+00  0.00000000000E+00  0.45593999997E+02  0.45594000000E+02  0.51100000000E-03 0. -1.
         11   -1    0    0    0    0 -0.00000000000E+00 -0.00000000000E+00 -0.45593999997E+02  0.45594000000E+02  0.51100000000E-03 0.  1.
    9900012    2    1    2    0    0  0.31169752733E+02 -0.64983473421E+01  0.17144864333E+01  0.59301929886E+02  0.49999974208E+02 0.  0.
        -12    1    1    2    0    0 -0.31169752733E+02  0.64983473421E+01 -0.17144864333E+01  0.31886070114E+02  0.00000000000E+00 0.  1.
         11    1    3    3    0    0 -0.61325801609E+01 -0.14905285603E+01  0.72438297615E+01  0.96074598461E+01  0.51100000000E-03 0. -1.
        -11    1    3    3    0    0 -0.84870490228E+00  0.24944548501E+01  0.80808157151E+01  0.84995404518E+01  0.51100000000E-03 0.  1.
         12    1    3    3    0    0  0.38151037796E+02 -0.75022736319E+01 -0.13610159043E+02  0.41194929588E+02  0.00000000000E+00 0. -1.
</event>
<event>
 7    1  0.7313719E-013  0.5930195E+02  0.7816164E-02  0.1266605E+00
        -11   -1    0    0    0    0  0.00000000000E+00  0.00000000000E+00  0.45593999997E+02  0.45594000000E+02  0.51100000000E-03 0.  1.
         11   -1    0    0    0    0 -0.00000000000E+00 -0.00000000000E+00 -0.45593999997E+02  0.45594000000E+02  0.51100000000E-03 0. -1.
    9900012    2    1    2    0    0  0.26317244751E+02  0.17966935272E+02  0.11455622415E+01  0.59301945882E+02  0.50000003382E+02 0.  0.
        -12    1    1    2    0    0 -0.26317244751E+02 -0.17966935272E+02 -0.11455622415E+01  0.31886054118E+02  0.00000000000E+00 0.  1.
         11    1    3    3    0    0  0.20051124591E+02  0.11093304643E+02 -0.22839125854E+02  0.32353279204E+02  0.51100000000E-03 0. -1.
        -11    1    3    3    0    0  0.56706896617E+01  0.11879218935E+01  0.73495309740E+01  0.93586048888E+01  0.51100000000E-03 0.  1.
        -12    1    3    3    0    0  0.59543049912E+00  0.56857087351E+01  0.16635157121E+02  0.17590061789E+02  0.00000000000E+00 0.  1.
</event>
<event>
 7    1  0.7313719E-013  0.5930194E+02  0.7816164E-02  0.1266605E+00
        -11   -1    0    0    0    0  0.00000000000E+00  0.00000000000E+00  0.45593999997E+02  0.45594000000E+02  0.51100000000E-03 0.  1.
         11   -1    0    0    0    0 -0.00000000000E+00 -0.00000000000E+00 -0.45593999997E+02  0.45594000000E+02  0.51100000000E-03 0. -1.
    9900012    2    1    2    0    0  0.16659662043E+01  0.14876492217E+02 -0.28153783744E+02  0.59301937165E+02  0.49999987483E+02 0.  0.
        -12    1    1    2    0    0 -0.16659662043E+01 -0.14876492217E+02  0.28153783744E+02  0.31886062835E+02  0.00000000000E+00 0.  1.
         11    1    3    3    0    0 -0.71822623494E+01  0.17170187248E+01 -0.18457671170E+02  0.19880107420E+02  0.51100000000E-03 0. -1.
        -11    1    3    3    0    0 -0.95562990673E+01  0.16856294822E+02 -0.38028546288E+01  0.19746372593E+02  0.51100000000E-03 0.  1.
         12    1    3    3    0    0  0.18404527621E+02 -0.36968213307E+01 -0.58932579450E+01  0.19675457151E+02  0.00000000000E+00 0. -1.
</event>
<event>
 7    1  0.7313719E-013  0.5930196E+02  0.7816164E-02  0.1266605E+00
        -11   -1    0    0    0    0  0.00000000000E+00  0.00000000000E+00  0.45593999997E+02  0.45594000000E+02  0.51100000000E-03 0.  1.
         11   -1    0    0    0    0 -0.00000000000E+00 -0.00000000000E+00 -0.45593999997E+02  0.45594000000E+02  0.51100000000E-03 0. -1.
    9900012    2    1    2    0    0 -0.20957569033E+02 -0.92485351837E+00 -0.24013427923E+02  0.59301956432E+02  0.50000022622E+02 0.  0.
        -12    1    1    2    0    0  0.20957569033E+02  0.92485351837E+00  0.24013427923E+02  0.31886043568E+02  0.00000000000E+00 0.  1.
         11    1    3    3    0    0  0.12599385995E+01  0.95072885269E+00 -0.44335143867E+00  0.16394789981E+01  0.51100000000E-03 0. -1.
        -11    1    3    3    0    0  0.74999680189E+01  0.12819809367E+02  0.30292487575E+01  0.15158277632E+02  0.51100000000E-03 0.  1.
         12    1    3    3    0    0 -0.29717475652E+02 -0.14695391738E+02 -0.26599325242E+02  0.42504199801E+02  0.00000000000E+00 0. -1.
</event>
<event>
 7    1  0.7313719E-013  0.5930195E+02  0.7816164E-02  0.1266605E+00
        -11   -1    0    0    0    0  0.00000000000E+00  0.00000000000E+00  0.45593999997E+02  0.45594000000E+02  0.51100000000E-03 0.  1.
         11   -1    0    0    0    0 -0.00000000000E+00 -0.00000000000E+00 -0.45593999997E+02  0.45594000000E+02  0.51100000000E-03 0. -1.
    9900012    2    1    2    0    0 -0.37655610723E+00  0.19881918100E+02 -0.24925642872E+02  0.59301950787E+02  0.50000012328E+02 0.  0.
        -12    1    1    2    0    0  0.37655610723E+00 -0.19881918100E+02  0.24925642872E+02  0.31886049213E+02  0.00000000000E+00 0.  1.
         11    1    3    3    0    0 -0.13870815160E+02  0.17287150844E+02 -0.19190426273E+02  0.29317529880E+02  0.51100000000E-03 0. -1.
        -11    1    3    3    0    0  0.91685435812E+01 -0.48185073498E+01 -0.14432913705E+02  0.17764830502E+02  0.51100000000E-03 0.  1.
        -12    1    3    3    0    0  0.43257154714E+01  0.74132746055E+01  0.86976971063E+01  0.12219590405E+02  0.00000000000E+00 0.  1.
</event>
<event>
 7    1  0.7313719E-013  0.5930193E+02  0.7816164E-02  0.1266605E+00
        -11   -1    0    0    0    0  0.00000000000E+00  0.00000000000E+00  0.45593999997E+02  0.45594000000E+02  0.51100000000E-03 0. -1.
         11   -1    0    0    0    0 -0.00000000000E+00 -0.00000000000E+00 -0.45593999997E+02  0.45594000000E+02  0.51100000000E-03 0.  1.
    9900012    2    1    2    0    0 -0.23525279213E+02  0.87404540627E+01  0.19669441140E+02  0.59301933858E+02  0.49999981452E+02 0.  0.
        -12    1    1    2    0    0  0.23525279213E+02 -0.87404540627E+01 -0.19669441140E+02  0.31886066142E+02  0.00000000000E+00 0.  1.
         11    1    3    3    0    0 -0.14891940038E+01 -0.78813988696E+01  0.77513154776E+01  0.11154238603E+02  0.51100000000E-03 0. -1.
        -11    1    3    3    0    0  0.15253821920E+01  0.30654799637E+01 -0.11667046482E+02  0.12159109019E+02  0.51100000000E-03 0.  1.
         12    1    3    3    0    0 -0.23561467401E+02  0.13556372969E+02  0.23585172145E+02  0.35988586236E+02  0.00000000000E+00 0. -1.
</event>
<event>
 7    1  0.7313719E-013  0.5930194E+02  0.7816164E-02  0.1266605E+00
        -11   -1    0    0    0    0  0.00000000000E+00  0.00000000000E+00  0.45593999997E+02  0.45594000000E+02  0.51100000000E-03 0.  1.
         11   -1    0    0    0    0 -0.00000000000E+00 -0.00000000000E+00 -0.45593999997E+02  0.45594000000E+02  0.51100000000E-03 0. -1.
    9900012    2    1    2    0    0  0.14318071152E+02 -0.28095559111E+02  0.47279418551E+01  0.59301936626E+02  0.49999986502E+02 0.  0.
        -12    1    1    2    0    0 -0.14318071152E+02  0.28095559111E+02 -0.47279418551E+01  0.31886063374E+02  0.00000000000E+00 0.  1.
         11    1    3    3    0    0  0.37446430479E+01 -0.18313454317E+02  0.55417228269E+01  0.19496554894E+02  0.51100000000E-03 0. -1.
        -11    1    3    3    0    0  0.60428510235E+01  0.13678089673E+01  0.17120508603E+02  0.18207107539E+02  0.51100000000E-03 0.  1.
         12    1    3    3    0    0  0.45305770802E+01 -0.11149913762E+02 -0.17934289575E+02  0.21598274193E+02  0.00000000000E+00 0. -1.
</event>
<event>
 7    1  0.7313719E-013  0.5930194E+02  0.7816164E-02  0.1266605E+00
        -11   -1    0    0    0    0  0.00000000000E+00  0.00000000000E+00  0.45593999997E+02  0.45594000000E+02  0.51100000000E-03 0.  1.
         11   -1    0    0    0    0 -0.00000000000E+00 -0.00000000000E+00 -0.45593999997E+02  0.45594000000E+02  0.51100000000E-03 0. -1.
    9900012    2    1    2    0    0 -0.28742423717E+02 -0.12580997276E+02 -0.56843967979E+01  0.59301940655E+02  0.49999993849E+02 0.  0.
        -12    1    1    2    0    0  0.28742423717E+02  0.12580997276E+02  0.56843967979E+01  0.31886059345E+02  0.00000000000E+00 0.  1.
         11    1    3    3    0    0 -0.11387425260E+02 -0.32505123547E+01 -0.12522896575E+02  0.17235493132E+02  0.51100000000E-03 0. -1.
        -11    1    3    3    0    0 -0.14779655313E+02 -0.77481420797E+01  0.21432390448E+02  0.27162828966E+02  0.51100000000E-03 0.  1.
         12    1    3    3    0    0 -0.25753431433E+01 -0.15823428414E+01 -0.14593890671E+02  0.14903618557E+02  0.00000000000E+00 0. -1.
</event>
<event>
 7    1  0.8147600E-013  0.5930196E+02  0.7816164E-02  0.1266605E+00
        -11   -1    0    0    0    0  0.00000000000E+00  0.00000000000E+00  0.45593999997E+02  0.45594000000E+02  0.51100000000E-03 0.  1.
         11   -1    0    0    0    0 -0.00000000000E+00 -0.00000000000E+00 -0.45593999997E+02  0.45594000000E+02  0.51100000000E-03 0. -1.
    9900012    2    1    2    0    0  0.30326835608E+02  0.74686279003E+01 -0.64204738547E+01  0.59301955322E+02  0.50000020598E+02 0.  0.
        -12    1    1    2    0    0 -0.30326835608E+02 -0.74686279003E+01  0.64204738547E+01  0.31886044678E+02  0.00000000000E+00 0.  1.
         11    1    3    3    0    0 -0.54084067793E+01 -0.54337263315E+01 -0.46719604348E+01  0.89779429883E+01  0.51100000000E-03 0. -1.
        -11    1    3    3    0    0  0.17678603835E+02  0.99613362779E+01  0.15224758788E+02  0.25368376661E+02  0.51100000000E-03 0.  1.
         12    1    3    3    0    0  0.18056638552E+02  0.29410179539E+01 -0.16973272207E+02  0.24955635673E+02  0.00000000000E+00 0. -1.
</event>
<event>
 7    1  0.7313719E-013  0.5930194E+02  0.7816164E-02  0.1266605E+00
        -11   -1    0    0    0    0  0.00000000000E+00  0.00000000000E+00  0.45593999997E+02  0.45594000000E+02  0.51100000000E-03 0.  1.
         11   -1    0    0    0    0 -0.00000000000E+00 -0.00000000000E+00 -0.45593999997E+02  0.45594000000E+02  0.51100000000E-03 0. -1.
    9900012    2    1    2    0    0 -0.23983215126E+02  0.15051781532E+01 -0.20958549288E+02  0.59301937884E+02  0.49999988795E+02 0.  0.
        -12    1    1    2    0    0  0.23983215126E+02 -0.15051781532E+01  0.20958549288E+02  0.31886062116E+02  0.00000000000E+00 0.  1.
         11    1    3    3    0    0 -0.10041717373E+02  0.12128319016E+02 -0.17485906280E+01  0.15842656955E+02  0.51100000000E-03 0. -1.
        -11    1    3    3    0    0 -0.83141730806E+01  0.66079230936E+01  0.61611650626E+01  0.12278032286E+02  0.51100000000E-03 0.  1.
         12    1    3    3    0    0 -0.56273246722E+01 -0.17231063956E+02 -0.25371123722E+02  0.31181248643E+02  0.00000000000E+00 0. -1.
</event>
<event>
 7    1  0.7313719E-013  0.5930199E+02  0.7816164E-02  0.1266605E+00
        -11   -1    0    0    0    0  0.00000000000E+00  0.00000000000E+00  0.45593999997E+02  0.45594000000E+02  0.51100000000E-03 0. -1.
         11   -1    0    0    0    0 -0.00000000000E+00 -0.00000000000E+00 -0.45593999997E+02  0.45594000000E+02  0.51100000000E-03 0.  1.
    9900012    2    1    2    0    0 -0.31485216776E+02 -0.40026398548E+01 -0.30622988737E+01  0.59301989343E+02  0.50000082644E+02 0.  0.
        -12    1    1    2    0    0  0.31485216776E+02  0.40026398548E+01  0.30622988737E+01  0.31886010657E+02  0.00000000000E+00 0.  1.
         11    1    3    3    0    0  0.44533278748E+00  0.53582679664E+01  0.76800173030E+01  0.93750745558E+01  0.51100000000E-03 0. -1.
        -11    1    3    3    0    0 -0.13773006689E+02  0.13166409903E+02  0.26489990282E-01  0.19053891071E+02  0.51100000000E-03 0.  1.
         12    1    3    3    0    0 -0.18157542875E+02 -0.22527317724E+02 -0.10768806167E+02  0.30873023716E+02  0.00000000000E+00 0. -1.
</event>
<event>
 7    1  0.8372979E-013  0.5930192E+02  0.7816164E-02  0.1266605E+00
        -11   -1    0    0    0    0  0.00000000000E+00  0.00000000000E+00  0.45593999997E+02  0.45594000000E+02  0.51100000000E-03 0.  1.
         11   -1    0    0    0    0 -0.00000000000E+00 -0.00000000000E+00 -0.45593999997E+02  0.45594000000E+02  0.51100000000E-03 0. -1.
    9900012    2    1    2    0    0 -0.24738981606E+02 -0.14899578772E+02 -0.13516930084E+02  0.59301920633E+02  0.49999957334E+02 0.  0.
        -12    1    1    2    0    0  0.24738981606E+02  0.14899578772E+02  0.13516930084E+02  0.31886079367E+02  0.00000000000E+00 0.  1.
         11    1    3    3    0    0 -0.11805979653E+02  0.62926940418E+01  0.25054037100E+01  0.13610885419E+02  0.51100000000E-03 0. -1.
        -11    1    3    3    0    0  0.10381517844E+02 -0.15400437511E+02 -0.48417863797E+01  0.19193547975E+02  0.51100000000E-03 0.  1.
         12    1    3    3    0    0 -0.23314519797E+02 -0.57918353034E+01 -0.11180547414E+02  0.26497487240E+02  0.00000000000E+00 0. -1.
</event>
<event>
 7    1  0.7313719E-013  0.5930198E+02  0.7816164E-02  0.1266605E+00
        -11   -1    0    0    0    0  0.00000000000E+00  0.00000000000E+00  0.45593999997E+02  0.45594000000E+02  0.51100000000E-03 0. -1.
         11   -1    0    0    0    0 -0.00000000000E+00 -0.00000000000E+00 -0.45593999997E+02  0.45594000000E+02  0.51100000000E-03 0.  1.
    9900012    2    1    2    0    0  0.14467083070E+02 -0.13666866832E+02 -0.24912620024E+02  0.59301978329E+02  0.50000062557E+02 0.  0.
        -12    1    1    2    0    0 -0.14467083070E+02  0.13666866832E+02  0.24912620024E+02  0.31886021671E+02  0.00000000000E+00 0.  1.
         11    1    3    3    0    0  0.62523492094E+01 -0.24388510474E+02 -0.58242001472E+01  0.25842070765E+02  0.51100000000E-03 0. -1.
        -11    1    3    3    0    0  0.84084488596E+01  0.88891670708E+01  0.19070721466E+01  0.12383708163E+02  0.51100000000E-03 0.  1.
        -12    1    3    3    0    0 -0.19371499938E+00  0.18324765713E+01 -0.20995492023E+02  0.21076199401E+02  0.00000000000E+00 0.  1.
</event>
<event>
 7    1  0.7313719E-013  0.5930193E+02  0.7816164E-02  0.1266605E+00
        -11   -1    0    0    0    0  0.00000000000E+00  0.00000000000E+00  0.45593999997E+02  0.45594000000E+02  0.51100000000E-03 0. -1.
         11   -1    0    0    0    0 -0.00000000000E+00 -0.00000000000E+00 -0.45593999997E+02  0.45594000000E+02  0.51100000000E-03 0.  1.
    9900012    2    1    2    0    0 -0.17870171688E+02 -0.11517724116E+02  0.23763847995E+02  0.59301929742E+02  0.49999973947E+02 0.  0.
        -12    1    1    2    0    0  0.17870171688E+02  0.11517724116E+02 -0.23763847995E+02  0.31886070258E+02  0.00000000000E+00 0.  1.
         11    1    3    3    0    0  0.83057770782E+01 -0.17648740376E+02  0.21795916264E+02  0.29249374964E+02  0.51100000000E-03 0. -1.
        -11    1    3    3    0    0  0.13464637541E+01 -0.77628138203E+00  0.52300240337E+00  0.16398503591E+01  0.51100000000E-03 0.  1.
        -12    1    3    3    0    0 -0.27522412521E+02  0.69072976421E+01  0.14449293277E+01  0.28412704419E+02  0.00000000000E+00 0.  1.
</event>
<event>
 7    1  0.7313719E-013  0.5930197E+02  0.7816164E-02  0.1266605E+00
        -11   -1    0    0    0    0  0.00000000000E+00  0.00000000000E+00  0.45593999997E+02  0.45594000000E+02  0.51100000000E-03 0. -1.
         11   -1    0    0    0    0 -0.00000000000E+00 -0.00000000000E+00 -0.45593999997E+02  0.45594000000E+02  0.51100000000E-03 0.  1.
    9900012    2    1    2    0    0  0.31724105906E+02  0.32092923700E+01 -0.12349638073E-01  0.59301974761E+02  0.50000056050E+02 0.  0.
        -12    1    1    2    0    0 -0.31724105906E+02 -0.32092923700E+01  0.12349638073E-01  0.31886025239E+02  0.00000000000E+00 0.  1.
         11    1    3    3    0    0 -0.63331572862E+01  0.87160055104E+01 -0.92541420237E+01  0.14202703198E+02  0.51100000000E-03 0. -1.
        -11    1    3    3    0    0  0.53980896373E+01  0.53797192384E+01  0.74024578156E+01  0.10624365053E+02  0.51100000000E-03 0.  1.
        -12    1    3    3    0    0  0.32659173554E+02 -0.10886432379E+02  0.18393345700E+01  0.34474906510E+02  0.00000000000E+00 0.  1.
</event>
<event>
 7    1  0.7734521E-013  0.5930191E+02  0.7816164E-02  0.1266605E+00
        -11   -1    0    0    0    0  0.00000000000E+00  0.00000000000E+00  0.45593999997E+02  0.45594000000E+02  0.51100000000E-03 0.  1.
         11   -1    0    0    0    0 -0.00000000000E+00 -0.00000000000E+00 -0.45593999997E+02  0.45594000000E+02  0.51100000000E-03 0. -1.
    9900012    2    1    2    0    0 -0.10456420074E+02  0.21616902223E+02  0.20978458965E+02  0.59301907059E+02  0.49999932578E+02 0.  0.
        -12    1    1    2    0    0  0.10456420074E+02 -0.21616902223E+02 -0.20978458965E+02  0.31886092941E+02  0.00000000000E+00 0.  1.
         11    1    3    3    0    0 -0.45035243465E+01  0.11641543815E+02  0.15736328936E+02  0.20085799028E+02  0.51100000000E-03 0. -1.
        -11    1    3    3    0    0 -0.12875884059E+02 -0.10531217099E+02  0.56532556350E+01  0.17568557807E+02  0.51100000000E-03 0.  1.
         12    1    3    3    0    0  0.69229883320E+01  0.20506575507E+02 -0.41112560548E+00  0.21647550224E+02  0.00000000000E+00 0. -1.
</event>
<event>
 7    1  0.7313719E-013  0.5930196E+02  0.7816164E-02  0.1266605E+00
        -11   -1    0    0    0    0  0.00000000000E+00  0.00000000000E+00  0.45593999997E+02  0.45594000000E+02  0.51100000000E-03 0.  1.
         11   -1    0    0    0    0 -0.00000000000E+00 -0.00000000000E+00 -0.45593999997E+02  0.45594000000E+02  0.51100000000E-03 0. -1.
    9900012    2    1    2    0    0 -0.88586066173E+01 -0.97842486210E+01 -0.29026071619E+02  0.59301964406E+02  0.50000037165E+02 0.  0.
        -12    1    1    2    0    0  0.88586066173E+01  0.97842486210E+01  0.29026071619E+02  0.31886035594E+02  0.00000000000E+00 0.  1.
         11    1    3    3    0    0 -0.33987555648E+01 -0.22761437649E+02 -0.11549952271E+02  0.25749485062E+02  0.51100000000E-03 0. -1.
        -11    1    3    3    0    0  0.75506323970E+01  0.16954061222E+01 -0.13982305159E+02  0.15980967096E+02  0.51100000000E-03 0.  1.
         12    1    3    3    0    0 -0.13010483450E+02  0.11281782905E+02 -0.34938141896E+01  0.17571512249E+02  0.00000000000E+00 0. -1.
</event>
<event>
 7    1  0.7313719E-013  0.5930192E+02  0.7816164E-02  0.1266605E+00
        -11   -1    0    0    0    0  0.00000000000E+00  0.00000000000E+00  0.45593999997E+02  0.45594000000E+02  0.51100000000E-03 0.  1.
         11   -1    0    0    0    0 -0.00000000000E+00 -0.00000000000E+00 -0.45593999997E+02  0.45594000000E+02  0.51100000000E-03 0. -1.
    9900012    2    1    2    0    0 -0.93782963832E+01  0.10932223055E+02  0.28447428599E+02  0.59301919371E+02  0.49999955033E+02 0.  0.
        -12    1    1    2    0    0  0.93782963832E+01 -0.10932223055E+02 -0.28447428599E+02  0.31886080629E+02  0.00000000000E+00 0.  1.
         11    1    3    3    0    0 -0.13016570984E+01  0.16359768944E+02  0.42014116797E+00  0.16416847139E+02  0.51100000000E-03 0. -1.
        -11    1    3    3    0    0  0.65422421922E+01  0.95194211001E+01  0.10130763528E+02  0.15364006017E+02  0.51100000000E-03 0.  1.
         12    1    3    3    0    0 -0.14618881477E+02 -0.14946966990E+02  0.17896523903E+02  0.27521066215E+02  0.00000000000E+00 0. -1.
</event>
<event>
 7    1  0.7711687E-013  0.5930192E+02  0.7816164E-02  0.1266605E+00
        -11   -1    0    0    0    0  0.00000000000E+00  0.00000000000E+00  0.45593999997E+02  0.45594000000E+02  0.51100000000E-03 0.  1.
         11   -1    0    0    0    0 -0.00000000000E+00 -0.00000000000E+00 -0.45593999997E+02  0.45594000000E+02  0.51100000000E-03 0. -1.
    9900012    2    1    2    0    0 -0.10232379873E+02 -0.21751787750E+02  0.20949469403E+02  0.59301919394E+02  0.49999955073E+02 0.  0.
        -12    1    1    2    0    0  0.10232379873E+02  0.21751787750E+02 -0.20949469403E+02  0.31886080606E+02  0.00000000000E+00 0.  1.
         11    1    3    3    0    0 -0.27095340608E+01 -0.90013230523E+01  0.55042602900E+01  0.10893221430E+02  0.51100000000E-03 0. -1.
        -11    1    3    3    0    0  0.88151625710E+01 -0.90134984505E+01 -0.11244228856E+02  0.16893280566E+02  0.51100000000E-03 0.  1.
         12    1    3    3    0    0 -0.16338008383E+02 -0.37369662473E+01  0.26689437969E+02  0.31515417397E+02  0.00000000000E+00 0. -1.
</event>
<event>
 7    1  0.7313719E-013  0.5930191E+02  0.7816164E-02  0.1266605E+00
        -11   -1    0    0    0    0  0.00000000000E+00  0.00000000000E+00  0.45593999997E+02  0.45594000000E+02  0.51100000000E-03 0.  1.
         11   -1    0    0    0    0 -0.00000000000E+00 -0.00000000000E+00 -0.45593999997E+02  0.45594000000E+02  0.51100000000E-03 0. -1.
    9900012    2    1    2    0    0  0.78410105383E+01  0.19501027312E+02 -0.23978142243E+02  0.59301908708E+02  0.49999935585E+02 0.  0.
        -12    1    1    2    0    0 -0.78410105383E+01 -0.19501027312E+02  0.23978142243E+02  0.31886091292E+02  0.00000000000E+00 0.  1.
         11    1    3    3    0    0  0.45061790561E+01  0.14306403865E+02 -0.35675909109E+02  0.38700766559E+02  0.51100000000E-03 0. -1.
        -11    1    3    3    0    0  0.27780757029E+01 -0.46566928758E+01  0.16704635313E+00  0.54249790687E+01  0.51100000000E-03 0.  1.
        -12    1    3    3    0    0  0.55675577932E+00  0.98513163227E+01  0.11530720513E+02  0.15176163080E+02  0.00000000000E+00 0.  1.
</event>
<event>
 7    1  0.7313719E-013  0.5930194E+02  0.7816164E-02  0.1266605E+00
        -11   -1    0    0    0    0  0.00000000000E+00  0.00000000000E+00  0.45593999997E+02  0.45594000000E+02  0.51100000000E-03 0. -1.
         11   -1    0    0    0    0 -0.00000000000E+00 -0.00000000000E+00 -0.45593999997E+02  0.45594000000E+02  0.51100000000E-03 0.  1.
    9900012    2    1    2    0    0  0.13091474460E+02 -0.13779146571E+02  0.25602134824E+02  0.59301938918E+02  0.49999990681E+02 0.  0.
        -12    1    1    2    0    0 -0.13091474460E+02  0.13779146571E+02 -0.25602134824E+02  0.31886061082E+02  0.00000000000E+00 0.  1.
         11    1    3    3    0    0 -0.50850710646E+01 -0.65417933955E+01 -0.39693747052E+01  0.91874340473E+01  0.51100000000E-03 0.  1.
        -11    1    3    3    0    0  0.11020019604E+01 -0.62393706802E+01  0.32193459069E+02  0.32811018910E+02  0.51100000000E-03 0. -1.
         12    1    3    3    0    0  0.17074543565E+02 -0.99798249488E+00 -0.26219495398E+01  0.17303485961E+02  0.00000000000E+00 0. -1.
</event>
<event>
 7    1  0.7313719E-013  0.5930212E+02  0.7816164E-02  0.1266604E+00
        -11   -1    0    0    0    0  0.00000000000E+00  0.00000000000E+00  0.45593999997E+02  0.45594000000E+02  0.51100000000E-03 0. -1.
         11   -1    0    0    0    0 -0.00000000000E+00 -0.00000000000E+00 -0.45593999997E+02  0.45594000000E+02  0.51100000000E-03 0.  1.
    9900012    2    1    2    0    0 -0.37855327898E+01  0.30748646996E+02 -0.75432147541E+01  0.59302115358E+02  0.50000312465E+02 0.  0.
        -12    1    1    2    0    0  0.37855327898E+01 -0.30748646996E+02  0.75432147541E+01  0.31885884642E+02  0.00000000000E+00 0.  1.
         11    1    3    3    0    0  0.48132200708E+01  0.25533181646E+01 -0.22119179028E+01  0.58803998308E+01  0.51100000000E-03 0.  1.
        -11    1    3    3    0    0 -0.25237751026E+02  0.26230670753E+02 -0.36490872886E+01  0.36582892222E+02  0.51100000000E-03 0. -1.
         12    1    3    3    0    0  0.16638998165E+02  0.19646580775E+01 -0.16822095627E+01  0.16838823306E+02  0.00000000000E+00 0. -1.
</event>
<event>
 7    1  0.7313719E-013  0.5930192E+02  0.7816164E-02  0.1266605E+00
        -11   -1    0    0    0    0  0.00000000000E+00  0.00000000000E+00  0.45593999997E+02  0.45594000000E+02  0.51100000000E-03 0.  1.
         11   -1    0    0    0    0 -0.00000000000E+00 -0.00000000000E+00 -0.45593999997E+02  0.45594000000E+02  0.51100000000E-03 0. -1.
    9900012    2    1    2    0    0 -0.22463263769E+02 -0.19135798127E+02 -0.12080761765E+02  0.59301924764E+02  0.49999964868E+02 0.  0.
        -12    1    1    2    0    0  0.22463263769E+02  0.19135798127E+02  0.12080761765E+02  0.31886075236E+02  0.00000000000E+00 0.  1.
         11    1    3    3    0    0 -0.64463167191E+01 -0.37999909259E+01  0.70181537327E+01  0.10259113624E+02  0.51100000000E-03 0. -1.
        -11    1    3    3    0    0 -0.15766274703E+02 -0.46873035792E+01  0.91714267139E+01  0.18832453400E+02  0.51100000000E-03 0.  1.
         12    1    3    3    0    0 -0.25067234723E+00 -0.10648503622E+02 -0.28270342211E+02  0.30210357740E+02  0.00000000000E+00 0. -1.
</event>
<event>
 7    1  0.7313719E-013  0.5930194E+02  0.7816164E-02  0.1266605E+00
        -11   -1    0    0    0    0  0.00000000000E+00  0.00000000000E+00  0.45593999997E+02  0.45594000000E+02  0.51100000000E-03 0.  1.
         11   -1    0    0    0    0 -0.00000000000E+00 -0.00000000000E+00 -0.45593999997E+02  0.45594000000E+02  0.51100000000E-03 0. -1.
    9900012    2    1    2    0    0 -0.13091352229E+02  0.16741295553E+02 -0.23771120034E+02  0.59301943053E+02  0.49999998222E+02 0.  0.
        -12    1    1    2    0    0  0.13091352229E+02 -0.16741295553E+02  0.23771120034E+02  0.31886056947E+02  0.00000000000E+00 0.  1.
         11    1    3    3    0    0 -0.12413000474E+02  0.25707620909E+02  0.15525991198E+01  0.28589769461E+02  0.51100000000E-03 0. -1.
        -11    1    3    3    0    0 -0.35806354245E+01  0.28557889066E+01 -0.36607757426E+01  0.58632550363E+01  0.51100000000E-03 0.  1.
        -12    1    3    3    0    0  0.29022836699E+01 -0.11822114262E+02 -0.21662943411E+02  0.24848918555E+02  0.00000000000E+00 0.  1.
</event>
<event>
 7    1  0.7313719E-013  0.5930197E+02  0.7816164E-02  0.1266605E+00
        -11   -1    0    0    0    0  0.00000000000E+00  0.00000000000E+00  0.45593999997E+02  0.45594000000E+02  0.51100000000E-03 0.  1.
         11   -1    0    0    0    0 -0.00000000000E+00 -0.00000000000E+00 -0.45593999997E+02  0.45594000000E+02  0.51100000000E-03 0. -1.
    9900012    2    1    2    0    0  0.67732088539E+01 -0.15552190957E+02 -0.26999479139E+02  0.59301970527E+02  0.50000048329E+02 0.  0.
        -12    1    1    2    0    0 -0.67732088539E+01  0.15552190957E+02  0.26999479139E+02  0.31886029473E+02  0.00000000000E+00 0.  1.
         11    1    3    3    0    0  0.12131971558E+02 -0.11857097227E+02 -0.10426701935E+01  0.16995959812E+02  0.51100000000E-03 0. -1.
        -11    1    3    3    0    0 -0.82884133395E-01  0.98290817927E+01  0.26900595475E+01  0.10190885109E+02  0.51100000000E-03 0.  1.
         12    1    3    3    0    0 -0.52758785711E+01 -0.13524175523E+02 -0.28646868493E+02  0.32115125607E+02  0.00000000000E+00 0. -1.
</event>
<event>
 7    1  0.7313719E-013  0.5930193E+02  0.7816164E-02  0.1266605E+00
        -11   -1    0    0    0    0  0.00000000000E+00  0.00000000000E+00  0.45593999997E+02  0.45594000000E+02  0.51100000000E-03 0.  1.
         11   -1    0    0    0    0 -0.00000000000E+00 -0.00000000000E+00 -0.45593999997E+02  0.45594000000E+02  0.51100000000E-03 0. -1.
    9900012    2    1    2    0    0  0.49463532356E+01  0.26141600530E+02 -0.17574742982E+02  0.59301932832E+02  0.49999979581E+02 0.  0.
        -12    1    1    2    0    0 -0.49463532356E+01 -0.26141600530E+02  0.17574742982E+02  0.31886067168E+02  0.00000000000E+00 0.  1.
         11    1    3    3    0    0 -0.20605079696E+01  0.12892250507E+02 -0.42681976599E+01  0.13735840991E+02  0.51100000000E-03 0.  1.
        -11    1    3    3    0    0  0.30474328195E+01  0.14018626116E+02 -0.27388291914E+02  0.30918073342E+02  0.51100000000E-03 0. -1.
        -12    1    3    3    0    0  0.39594283857E+01 -0.76927609341E+00  0.14081746591E+02  0.14648018498E+02  0.00000000000E+00 0.  1.
</event>
<event>
 7    1  0.7313719E-013  0.5930189E+02  0.7816164E-02  0.1266605E+00
        -11   -1    0    0    0    0  0.00000000000E+00  0.00000000000E+00  0.45593999997E+02  0.45594000000E+02  0.51100000000E-03 0.  1.
         11   -1    0    0    0    0 -0.00000000000E+00 -0.00000000000E+00 -0.45593999997E+02  0.45594000000E+02  0.51100000000E-03 0. -1.
    9900012    2    1    2    0    0  0.24509866873E+02 -0.14720403605E+02 -0.14117370322E+02  0.59301890152E+02  0.49999901744E+02 0.  0.
        -12    1    1    2    0    0 -0.24509866873E+02  0.14720403605E+02  0.14117370322E+02  0.31886109848E+02  0.00000000000E+00 0.  1.
         11    1    3    3    0    0 -0.70459802131E+00 -0.19544551756E+02 -0.11198117768E+02  0.22536277499E+02  0.51100000000E-03 0. -1.
        -11    1    3    3    0    0  0.22369058102E+01 -0.75758223158E+01  0.51589421841E+01  0.94345914636E+01  0.51100000000E-03 0.  1.
        -12    1    3    3    0    0  0.22977559084E+02  0.12399970467E+02 -0.80781947380E+01  0.27331021190E+02  0.00000000000E+00 0.  1.
</event>
<event>
 7    1  0.7313719E-013  0.5930195E+02  0.7816164E-02  0.1266605E+00
        -11   -1    0    0    0    0  0.00000000000E+00  0.00000000000E+00  0.45593999997E+02  0.45594000000E+02  0.51100000000E-03 0. -1.
         11   -1    0    0    0    0 -0.00000000000E+00 -0.00000000000E+00 -0.45593999997E+02  0.45594000000E+02  0.51100000000E-03 0.  1.
    9900012    2    1    2    0    0 -0.69849385823E+01  0.26949072935E+02  0.15546012847E+02  0.59301946395E+02  0.50000004317E+02 0.  0.
        -12    1    1    2    0    0  0.69849385823E+01 -0.26949072935E+02 -0.15546012847E+02  0.31886053605E+02  0.00000000000E+00 0.  1.
         11    1    3    3    0    0  0.10379344746E+02  0.14752627847E+01  0.83232747395E+01  0.13385966543E+02  0.51100000000E-03 0. -1.
        -11    1    3    3    0    0  0.97788840013E+01  0.33840453940E+01  0.17498274226E+01  0.10494771642E+02  0.51100000000E-03 0.  1.
         12    1    3    3    0    0 -0.27143167330E+02  0.22089764757E+02  0.54729106851E+01  0.35421208210E+02  0.00000000000E+00 0. -1.
</event>
<event>
 7    1  0.7313719E-013  0.5930195E+02  0.7816164E-02  0.1266605E+00
        -11   -1    0    0    0    0  0.00000000000E+00  0.00000000000E+00  0.45593999997E+02  0.45594000000E+02  0.51100000000E-03 0. -1.
         11   -1    0    0    0    0 -0.00000000000E+00 -0.00000000000E+00 -0.45593999997E+02  0.45594000000E+02  0.51100000000E-03 0.  1.
    9900012    2    1    2    0    0  0.15228839325E+02  0.48703177779E+01  0.27587722786E+02  0.59301953037E+02  0.50000016430E+02 0.  0.
        -12    1    1    2    0    0 -0.15228839325E+02 -0.48703177779E+01 -0.27587722786E+02  0.31886046963E+02  0.00000000000E+00 0.  1.
         11    1    3    3    0    0  0.27561051240E+02  0.11868765330E+02  0.22802334775E+02  0.37688534164E+02  0.51100000000E-03 0. -1.
        -11    1    3    3    0    0 -0.15445624653E+01 -0.18207031665E+01  0.87014133592E+01  0.90230387308E+01  0.51100000000E-03 0.  1.
        -12    1    3    3    0    0 -0.10787649451E+02 -0.51777443857E+01 -0.39160253485E+01  0.12590380142E+02  0.00000000000E+00 0.  1.
</event>
<event>
 7    1  0.7313719E-013  0.5930194E+02  0.7816164E-02  0.1266605E+00
        -11   -1    0    0    0    0  0.00000000000E+00  0.00000000000E+00  0.45593999997E+02  0.45594000000E+02  0.51100000000E-03 0. -1.
         11   -1    0    0    0    0 -0.00000000000E+00 -0.00000000000E+00 -0.45593999997E+02  0.45594000000E+02  0.51100000000E-03 0.  1.
    9900012    2    1    2    0    0 -0.24057315958E+02 -0.20641346983E+02 -0.34497612234E+01  0.59301944915E+02  0.50000001618E+02 0.  0.
        -12    1    1    2    0    0  0.24057315958E+02  0.20641346983E+02  0.34497612234E+01  0.31886055085E+02  0.00000000000E+00 0.  1.
         11    1    3    3    0    0 -0.12232461000E+02 -0.90463591223E+01 -0.13257161912E+02  0.20179743747E+02  0.51100000000E-03 0. -1.
        -11    1    3    3    0    0  0.68182190081E+01  0.73526196533E+00 -0.80051878158E+01  0.10540955973E+02  0.51100000000E-03 0.  1.
        -12    1    3    3    0    0 -0.18643073966E+02 -0.12330249826E+02  0.17812588504E+02  0.28581245195E+02  0.00000000000E+00 0.  1.
</event>
<event>
 7    1  0.7313719E-013  0.5930196E+02  0.7816164E-02  0.1266605E+00
        -11   -1    0    0    0    0  0.00000000000E+00  0.00000000000E+00  0.45593999997E+02  0.45594000000E+02  0.51100000000E-03 0. -1.
         11   -1    0    0    0    0 -0.00000000000E+00 -0.00000000000E+00 -0.45593999997E+02  0.45594000000E+02  0.51100000000E-03 0.  1.
    9900012    2    1    2    0    0  0.10356442659E+02  0.28545316556E+02  0.97277362498E+01  0.59301955178E+02  0.50000020336E+02 0.  0.
        -12    1    1    2    0    0 -0.10356442659E+02 -0.28545316556E+02 -0.97277362498E+01  0.31886044822E+02  0.00000000000E+00 0.  1.
         11    1    3    3    0    0  0.11768364939E+02  0.20349138383E+02 -0.18977432598E+01  0.23583538242E+02  0.51100000000E-03 0. -1.
        -11    1    3    3    0    0 -0.44641387084E+01 -0.11907819927E+01  0.21360663398E+02  0.21854620501E+02  0.51100000000E-03 0.  1.
         12    1    3    3    0    0  0.30522164276E+01  0.93869601659E+01 -0.97351838884E+01  0.13863796436E+02  0.00000000000E+00 0. -1.
</event>
<event>
 7    1  0.7313719E-013  0.5930192E+02  0.7816164E-02  0.1266605E+00
        -11   -1    0    0    0    0  0.00000000000E+00  0.00000000000E+00  0.45593999997E+02  0.45594000000E+02  0.51100000000E-03 0.  1.
         11   -1    0    0    0    0 -0.00000000000E+00 -0.00000000000E+00 -0.45593999997E+02  0.45594000000E+02  0.51100000000E-03 0. -1.
    9900012    2    1    2    0    0  0.75582444420E+01 -0.30194945180E+02 -0.69181313310E+01  0.59301916600E+02  0.49999949978E+02 0.  0.
        -12    1    1    2    0    0 -0.75582444420E+01  0.30194945180E+02  0.69181313310E+01  0.31886083400E+02  0.00000000000E+00 0.  1.
         11    1    3    3    0    0  0.37755915908E+01 -0.23650073222E+02  0.96705444153E+01  0.25828288461E+02  0.51100000000E-03 0. -1.
        -11    1    3    3    0    0 -0.66894003596E+01 -0.40034733898E+01  0.50580457405E+01  0.92929921623E+01  0.51100000000E-03 0.  1.
         12    1    3    3    0    0  0.10472053211E+02 -0.25413985686E+01 -0.21646721487E+02  0.24180635977E+02  0.00000000000E+00 0. -1.
</event>
<event>
 7    1  0.7313719E-013  0.5930199E+02  0.7816164E-02  0.1266605E+00
        -11   -1    0    0    0    0  0.00000000000E+00  0.00000000000E+00  0.45593999997E+02  0.45594000000E+02  0.51100000000E-03 0. -1.
         11   -1    0    0    0    0 -0.00000000000E+00 -0.00000000000E+00 -0.45593999997E+02  0.45594000000E+02  0.51100000000E-03 0.  1.
    9900012    2    1    2    0    0 -0.18016996706E+02  0.20912916717E+02  0.15961066127E+02  0.59301986015E+02  0.50000076574E+02 0.  0.
        -12    1    1    2    0    0  0.18016996706E+02 -0.20912916717E+02 -0.15961066127E+02  0.31886013985E+02  0.00000000000E+00 0.  1.
         11    1    3    3    0    0 -0.10185212591E+01  0.93444133438E+00  0.26796215540E+02  0.26831841787E+02  0.51100000000E-03 0. -1.
        -11    1    3    3    0    0 -0.99019717527E+01  0.19804984220E+02 -0.37816319858E+01  0.22463018169E+02  0.51100000000E-03 0.  1.
        -12    1    3    3    0    0 -0.70965036946E+01  0.17349116308E+00 -0.70535174263E+01  0.10007126059E+02  0.00000000000E+00 0.  1.
</event>
<event>
 7    1  0.7313719E-013  0.5930194E+02  0.7816164E-02  0.1266605E+00
        -11   -1    0    0    0    0  0.00000000000E+00  0.00000000000E+00  0.45593999997E+02  0.45594000000E+02  0.51100000000E-03 0. -1.
         11   -1    0    0    0    0 -0.00000000000E+00 -0.00000000000E+00 -0.45593999997E+02  0.45594000000E+02  0.51100000000E-03 0.  1.
    9900012    2    1    2    0    0 -0.29048039019E+02 -0.92610633996E+01  0.93362157030E+01  0.59301940510E+02  0.49999993585E+02 0.  0.
        -12    1    1    2    0    0  0.29048039019E+02  0.92610633996E+01 -0.93362157030E+01  0.31886059490E+02  0.00000000000E+00 0.  1.
         11    1    3    3    0    0 -0.28492875390E+02  0.98738786505E+00  0.71337435286E+00  0.28518902258E+02  0.51100000000E-03 0. -1.
        -11    1    3    3    0    0  0.64067658318E+01 -0.25122992369E+01  0.16403528578E+02  0.17788593141E+02  0.51100000000E-03 0.  1.
         12    1    3    3    0    0 -0.69619294611E+01 -0.77361520277E+01 -0.77806872275E+01  0.12994445111E+02  0.00000000000E+00 0. -1.
</event>
<event>
 7    1  0.7313719E-013  0.5930189E+02  0.7816164E-02  0.1266605E+00
        -11   -1    0    0    0    0  0.00000000000E+00  0.00000000000E+00  0.45593999997E+02  0.45594000000E+02  0.51100000000E-03 0.  1.
         11   -1    0    0    0    0 -0.00000000000E+00 -0.00000000000E+00 -0.45593999997E+02  0.45594000000E+02  0.51100000000E-03 0. -1.
    9900012    2    1    2    0    0  0.19195336246E+02 -0.42226037611E+01 -0.25108417907E+02  0.59301890706E+02  0.49999902753E+02 0.  0.
        -12    1    1    2    0    0 -0.19195336246E+02  0.42226037611E+01  0.25108417907E+02  0.31886109294E+02  0.00000000000E+00 0.  1.
         11    1    3    3    0    0  0.18782951630E+02  0.34417825271E+01 -0.27267759302E+01  0.19289386878E+02  0.51100000000E-03 0. -1.
        -11    1    3    3    0    0 -0.44407969795E+01  0.12060538559E+02 -0.88800902815E+01  0.15621564321E+02  0.51100000000E-03 0.  1.
         12    1    3    3    0    0  0.48531815955E+01 -0.19724924848E+02 -0.13501551696E+02  0.24390939507E+02  0.00000000000E+00 0. -1.
</event>
<event>
 7    1  0.7313719E-013  0.5930195E+02  0.7816164E-02  0.1266605E+00
        -11   -1    0    0    0    0  0.00000000000E+00  0.00000000000E+00  0.45593999997E+02  0.45594000000E+02  0.51100000000E-03 0.  1.
         11   -1    0    0    0    0 -0.00000000000E+00 -0.00000000000E+00 -0.45593999997E+02  0.45594000000E+02  0.51100000000E-03 0. -1.
    9900012    2    1    2    0    0  0.23565713937E+01  0.93996565922E+01 -0.30377837508E+02  0.59301953139E+02  0.50000016616E+02 0.  0.
        -12    1    1    2    0    0 -0.23565713937E+01 -0.93996565922E+01  0.30377837508E+02  0.31886046861E+02  0.00000000000E+00 0.  1.
         11    1    3    3    0    0  0.31845387365E+01 -0.46207403323E+01  0.57563220473E+01  0.80391400010E+01  0.51100000000E-03 0. -1.
        -11    1    3    3    0    0 -0.13442863392E+02  0.15270355627E+01 -0.29237289512E+02  0.32215858084E+02  0.51100000000E-03 0.  1.
         12    1    3    3    0    0  0.12614896049E+02  0.12493361362E+02 -0.68968700430E+01  0.19046955054E+02  0.00000000000E+00 0. -1.
</event>
<event>
 7    1  0.7313719E-013  0.5930195E+02  0.7816164E-02  0.1266605E+00
        -11   -1    0    0    0    0  0.00000000000E+00  0.00000000000E+00  0.45593999997E+02  0.45594000000E+02  0.51100000000E-03 0.  1.
         11   -1    0    0    0    0 -0.00000000000E+00 -0.00000000000E+00 -0.45593999997E+02  0.45594000000E+02  0.51100000000E-03 0. -1.
    9900012    2    1    2    0    0 -0.71849369987E+01 -0.21025088943E+01 -0.30994782152E+02  0.59301946873E+02  0.50000005190E+02 0.  0.
        -12    1    1    2    0    0  0.71849369987E+01  0.21025088943E+01  0.30994782152E+02  0.31886053127E+02  0.00000000000E+00 0.  1.
         11    1    3    3    0    0 -0.65940232226E+01  0.18590053493E+02 -0.25937832143E+02  0.32585922845E+02  0.51100000000E-03 0. -1.
        -11    1    3    3    0    0 -0.19493026826E+01  0.83963278232E+00 -0.46788139162E+01  0.51377100036E+01  0.51100000000E-03 0.  1.
        -12    1    3    3    0    0  0.13583889066E+01 -0.21532195170E+02 -0.37813609321E+00  0.21578314025E+02  0.00000000000E+00 0.  1.
</event>
<event>
 7    1  0.7313719E-013  0.5930198E+02  0.7816164E-02  0.1266605E+00
        -11   -1    0    0    0    0  0.00000000000E+00  0.00000000000E+00  0.45593999997E+02  0.45594000000E+02  0.51100000000E-03 0. -1.
         11   -1    0    0    0    0 -0.00000000000E+00 -0.00000000000E+00 -0.45593999997E+02  0.45594000000E+02  0.51100000000E-03 0.  1.
    9900012    2    1    2    0    0  0.27523314608E+02 -0.48439696368E+01  0.15353229613E+02  0.59301975657E+02  0.50000057684E+02 0.  0.
        -12    1    1    2    0    0 -0.27523314608E+02  0.48439696368E+01 -0.15353229613E+02  0.31886024343E+02  0.00000000000E+00 0.  1.
         11    1    3    3    0    0  0.33477502174E+00  0.30717734099E+01 -0.10078918008E+01  0.32501865085E+01  0.51100000000E-03 0. -1.
        -11    1    3    3    0    0 -0.87434320022E+01  0.77232016900E+01 -0.34165673129E+01  0.12156001809E+02  0.51100000000E-03 0.  1.
         12    1    3    3    0    0  0.35931971589E+02 -0.15638944737E+02  0.19777688727E+02  0.43895787339E+02  0.00000000000E+00 0. -1.
</event>
<event>
 7    1  0.7313719E-013  0.5930187E+02  0.7816164E-02  0.1266605E+00
        -11   -1    0    0    0    0  0.00000000000E+00  0.00000000000E+00  0.45593999997E+02  0.45594000000E+02  0.51100000000E-03 0. -1.
         11   -1    0    0    0    0 -0.00000000000E+00 -0.00000000000E+00 -0.45593999997E+02  0.45594000000E+02  0.51100000000E-03 0.  1.
    9900012    2    1    2    0    0  0.76846488454E+01  0.75495324173E+01  0.30011266076E+02  0.59301868860E+02  0.49999862913E+02 0.  0.
        -12    1    1    2    0    0 -0.76846488454E+01 -0.75495324173E+01 -0.30011266076E+02  0.31886131140E+02  0.00000000000E+00 0.  1.
         11    1    3    3    0    0  0.77678621104E+01  0.37860382668E+01  0.64495381927E+01  0.10782871171E+02  0.51100000000E-03 0. -1.
        -11    1    3    3    0    0  0.13425999587E+02 -0.25798083509E-01 -0.68163875442E+01  0.15057266347E+02  0.51100000000E-03 0.  1.
        -12    1    3    3    0    0 -0.13509212852E+02  0.37892922340E+01  0.30378115427E+02  0.33461731342E+02  0.00000000000E+00 0.  1.
</event>
<event>
 7    1  0.7313719E-013  0.5930194E+02  0.7816164E-02  0.1266605E+00
        -11   -1    0    0    0    0  0.00000000000E+00  0.00000000000E+00  0.45593999997E+02  0.45594000000E+02  0.51100000000E-03 0.  1.
         11   -1    0    0    0    0 -0.00000000000E+00 -0.00000000000E+00 -0.45593999997E+02  0.45594000000E+02  0.51100000000E-03 0. -1.
    9900012    2    1    2    0    0 -0.20269488203E+02  0.20820427540E+02 -0.13129296554E+02  0.59301940617E+02  0.49999993780E+02 0.  0.
        -12    1    1    2    0    0  0.20269488203E+02 -0.20820427540E+02  0.13129296554E+02  0.31886059383E+02  0.00000000000E+00 0.  1.
         11    1    3    3    0    0 -0.31397791061E+01  0.28960164165E+02 -0.15517512200E+02  0.33005189084E+02  0.51100000000E-03 0. -1.
        -11    1    3    3    0    0  0.10627673872E+01  0.18342372080E+01 -0.40519481828E+01  0.45729842545E+01  0.51100000000E-03 0.  1.
        -12    1    3    3    0    0 -0.18192476484E+02 -0.99739738336E+01  0.64401638290E+01  0.21723767279E+02  0.00000000000E+00 0.  1.
</event>
<event>
 7    1  0.7313719E-013  0.5930194E+02  0.7816164E-02  0.1266605E+00
        -11   -1    0    0    0    0  0.00000000000E+00  0.00000000000E+00  0.45593999997E+02  0.45594000000E+02  0.51100000000E-03 0.  1.
         11   -1    0    0    0    0 -0.00000000000E+00 -0.00000000000E+00 -0.45593999997E+02  0.45594000000E+02  0.51100000000E-03 0. -1.
    9900012    2    1    2    0    0  0.18578136015E+02  0.23496756743E+02 -0.10930508253E+02  0.59301941512E+02  0.49999995411E+02 0.  0.
        -12    1    1    2    0    0 -0.18578136015E+02 -0.23496756743E+02  0.10930508253E+02  0.31886058488E+02  0.00000000000E+00 0.  1.
         11    1    3    3    0    0  0.99374761236E-01  0.36117903044E+01  0.29436814677E+01  0.46604898230E+01  0.51100000000E-03 0. -1.
        -11    1    3    3    0    0  0.13203195965E+02  0.29674362921E+02  0.48745385568E+01  0.32842858050E+02  0.51100000000E-03 0.  1.
         12    1    3    3    0    0  0.52755652895E+01 -0.97893964824E+01 -0.18748728278E+02  0.21798593639E+02  0.00000000000E+00 0. -1.
</event>
<event>
 7    1  0.7313719E-013  0.5930192E+02  0.7816164E-02  0.1266605E+00
        -11   -1    0    0    0    0  0.00000000000E+00  0.00000000000E+00  0.45593999997E+02  0.45594000000E+02  0.51100000000E-03 0.  1.
         11   -1    0    0    0    0 -0.00000000000E+00 -0.00000000000E+00 -0.45593999997E+02  0.45594000000E+02  0.51100000000E-03 0. -1.
    9900012    2    1    2    0    0 -0.80642213949E+01  0.29211446487E+02 -0.99187486208E+01  0.59301923936E+02  0.49999963358E+02 0.  0.
        -12    1    1    2    0    0  0.80642213949E+01 -0.29211446487E+02  0.99187486208E+01  0.31886076064E+02  0.00000000000E+00 0.  1.
         11    1    3    3    0    0  0.71039667655E+00  0.18861985263E+02  0.21516853214E+01  0.18997602519E+02  0.51100000000E-03 0. -1.
        -11    1    3    3    0    0 -0.11038920031E+02  0.22906797388E+02 -0.57727460034E+01  0.26074963446E+02  0.51100000000E-03 0.  1.
        -12    1    3    3    0    0  0.22643019594E+01 -0.12557336164E+02 -0.62976879388E+01  0.14229357971E+02  0.00000000000E+00 0.  1.
</event>
<event>
 7    1  0.7313719E-013  0.5930194E+02  0.7816164E-02  0.1266605E+00
        -11   -1    0    0    0    0  0.00000000000E+00  0.00000000000E+00  0.45593999997E+02  0.45594000000E+02  0.51100000000E-03 0.  1.
         11   -1    0    0    0    0 -0.00000000000E+00 -0.00000000000E+00 -0.45593999997E+02  0.45594000000E+02  0.51100000000E-03 0. -1.
    9900012    2    1    2    0    0 -0.69163237046E+01 -0.17666543626E+02 -0.25627695901E+02  0.59301935733E+02  0.49999984872E+02 0.  0.
        -12    1    1    2    0    0  0.69163237046E+01  0.17666543626E+02  0.25627695901E+02  0.31886064267E+02  0.00000000000E+00 0.  1.
         11    1    3    3    0    0  0.90317110676E+01 -0.23707476910E+00 -0.11622764447E+02  0.14721299634E+02  0.51100000000E-03 0.  1.
        -11    1    3    3    0    0 -0.27122984327E+02 -0.14418890377E+02 -0.10950877209E+02  0.32611077725E+02  0.51100000000E-03 0. -1.
         12    1    3    3    0    0  0.11174949555E+02 -0.30105784798E+01 -0.30540542450E+01  0.11969558374E+02  0.00000000000E+00 0. -1.
</event>
<event>
 7    1  0.7313719E-013  0.5930195E+02  0.7816164E-02  0.1266605E+00
        -11   -1    0    0    0    0  0.00000000000E+00  0.00000000000E+00  0.45593999997E+02  0.45594000000E+02  0.51100000000E-03 0. -1.
         11   -1    0    0    0    0 -0.00000000000E+00 -0.00000000000E+00 -0.45593999997E+02  0.45594000000E+02  0.51100000000E-03 0.  1.
    9900012    2    1    2    0    0  0.30794203034E+02 -0.81482315493E+01  0.14294543955E+01  0.59301953558E+02  0.50000017380E+02 0.  0.
        -12    1    1    2    0    0 -0.30794203034E+02  0.81482315493E+01 -0.14294543955E+01  0.31886046442E+02  0.00000000000E+00 0.  1.
         11    1    3    3    0    0  0.16587607998E+02  0.63869958741E+01 -0.18283656944E+01  0.17868558329E+02  0.51100000000E-03 0. -1.
        -11    1    3    3    0    0  0.10323926789E+02 -0.53616531838E+01  0.19308885936E+02  0.22542490226E+02  0.51100000000E-03 0.  1.
        -12    1    3    3    0    0  0.38826682465E+01 -0.91735742397E+01 -0.16051065846E+02  0.18890905003E+02  0.00000000000E+00 0.  1.
</event>
<event>
 7    1  0.7313719E-013  0.5930194E+02  0.7816164E-02  0.1266605E+00
        -11   -1    0    0    0    0  0.00000000000E+00  0.00000000000E+00  0.45593999997E+02  0.45594000000E+02  0.51100000000E-03 0. -1.
         11   -1    0    0    0    0 -0.00000000000E+00 -0.00000000000E+00 -0.45593999997E+02  0.45594000000E+02  0.51100000000E-03 0.  1.
    9900012    2    1    2    0    0 -0.26606179530E+02  0.13602248619E+01  0.17520893672E+02  0.59301941668E+02  0.49999995697E+02 0.  0.
        -12    1    1    2    0    0  0.26606179530E+02 -0.13602248619E+01 -0.17520893672E+02  0.31886058332E+02  0.00000000000E+00 0.  1.
         11    1    3    3    0    0 -0.28848747727E+01  0.16672914680E+02  0.97914198199E+01  0.19549437043E+02  0.51100000000E-03 0. -1.
        -11    1    3    3    0    0 -0.67394284422E+01  0.56032880265E+01  0.92818977444E+01  0.12765984429E+02  0.51100000000E-03 0.  1.
        -12    1    3    3    0    0 -0.16981876315E+02 -0.20915977844E+02 -0.15524238925E+01  0.26986520196E+02  0.00000000000E+00 0.  1.
</event>
<event>
 7    1  0.7313719E-013  0.5930194E+02  0.7816164E-02  0.1266605E+00
        -11   -1    0    0    0    0  0.00000000000E+00  0.00000000000E+00  0.45593999997E+02  0.45594000000E+02  0.51100000000E-03 0. -1.
         11   -1    0    0    0    0 -0.00000000000E+00 -0.00000000000E+00 -0.45593999997E+02  0.45594000000E+02  0.51100000000E-03 0.  1.
    9900012    2    1    2    0    0 -0.19641632492E+02  0.22954586199E+02  0.10198733980E+02  0.59301938322E+02  0.49999989595E+02 0.  0.
        -12    1    1    2    0    0  0.19641632492E+02 -0.22954586199E+02 -0.10198733980E+02  0.31886061678E+02  0.00000000000E+00 0.  1.
         11    1    3    3    0    0  0.39035307692E+01  0.16331944593E+02 -0.18794422984E+01  0.16896812430E+02  0.51100000000E-03 0. -1.
        -11    1    3    3    0    0  0.36111918152E+01  0.76534184256E+00 -0.75403191361E+01  0.83954075182E+01  0.51100000000E-03 0.  1.
         12    1    3    3    0    0 -0.27156355077E+02  0.58572997627E+01  0.19618495415E+02  0.34009718375E+02  0.00000000000E+00 0. -1.
</event>
<event>
 7    1  0.7313719E-013  0.5930198E+02  0.7816164E-02  0.1266605E+00
        -11   -1    0    0    0    0  0.00000000000E+00  0.00000000000E+00  0.45593999997E+02  0.45594000000E+02  0.51100000000E-03 0.  1.
         11   -1    0    0    0    0 -0.00000000000E+00 -0.00000000000E+00 -0.45593999997E+02  0.45594000000E+02  0.51100000000E-03 0. -1.
    9900012    2    1    2    0    0  0.20895803202E+01 -0.18941246000E+01 -0.31761051781E+02  0.59301976978E+02  0.50000060094E+02 0.  0.
        -12    1    1    2    0    0 -0.20895803202E+01  0.18941246000E+01  0.31761051781E+02  0.31886023022E+02  0.00000000000E+00 0.  1.
         11    1    3    3    0    0  0.10834171196E+02  0.45594794731E+01 -0.73882654929E+01  0.13883608530E+02  0.51100000000E-03 0. -1.
        -11    1    3    3    0    0  0.10935862045E+02  0.81641356879E+01 -0.67426556557E+01  0.15222010240E+02  0.51100000000E-03 0.  1.
         12    1    3    3    0    0 -0.19680452921E+02 -0.14617739761E+02 -0.17630130632E+02  0.30196358208E+02  0.00000000000E+00 0. -1.
</event>
<event>
 7    1  0.7313719E-013  0.5930195E+02  0.7816164E-02  0.1266605E+00
        -11   -1    0    0    0    0  0.00000000000E+00  0.00000000000E+00  0.45593999997E+02  0.45594000000E+02  0.51100000000E-03 0. -1.
         11   -1    0    0    0    0 -0.00000000000E+00 -0.00000000000E+00 -0.45593999997E+02  0.45594000000E+02  0.51100000000E-03 0.  1.
    9900012    2    1    2    0    0  0.53287724885E+01  0.25587064883E+02  0.18265446943E+02  0.59301948855E+02  0.50000008804E+02 0.  0.
        -12    1    1    2    0    0 -0.53287724885E+01 -0.25587064883E+02 -0.18265446943E+02  0.31886051145E+02  0.00000000000E+00 0.  1.
         11    1    3    3    0    0  0.58452656477E+01  0.14374032235E+02  0.19106100155E+02  0.24613471851E+02  0.51100000000E-03 0. -1.
        -11    1    3    3    0    0  0.93437153206E+01  0.11219584021E+02 -0.12639712698E+02  0.19311820704E+02  0.51100000000E-03 0.  1.
         12    1    3    3    0    0 -0.98602084798E+01 -0.65513728454E-02  0.11799059486E+02  0.15376656299E+02  0.00000000000E+00 0. -1.
</event>
<event>
 7    1  0.7313719E-013  0.5930198E+02  0.7816164E-02  0.1266605E+00
        -11   -1    0    0    0    0  0.00000000000E+00  0.00000000000E+00  0.45593999997E+02  0.45594000000E+02  0.51100000000E-03 0.  1.
         11   -1    0    0    0    0 -0.00000000000E+00 -0.00000000000E+00 -0.45593999997E+02  0.45594000000E+02  0.51100000000E-03 0. -1.
    9900012    2    1    2    0    0 -0.31310327565E+02  0.57513514504E+01 -0.18175293708E+01  0.59301983178E+02  0.50000071401E+02 0.  0.
        -12    1    1    2    0    0  0.31310327565E+02 -0.57513514504E+01  0.18175293708E+01  0.31886016822E+02  0.00000000000E+00 0.  1.
         11    1    3    3    0    0 -0.10618240131E+01 -0.25936985574E+01  0.99822666216E+01  0.10368239465E+02  0.51100000000E-03 0. -1.
        -11    1    3    3    0    0  0.20144127934E+00 -0.36694838191E+01  0.92921791221E+01  0.99925113553E+01  0.51100000000E-03 0.  1.
         12    1    3    3    0    0 -0.30449944831E+02  0.12014533827E+02 -0.21091975114E+02  0.38941232358E+02  0.00000000000E+00 0. -1.
</event>
<event>
 7    1  0.7313719E-013  0.5930197E+02  0.7816164E-02  0.1266605E+00
        -11   -1    0    0    0    0  0.00000000000E+00  0.00000000000E+00  0.45593999997E+02  0.45594000000E+02  0.51100000000E-03 0.  1.
         11   -1    0    0    0    0 -0.00000000000E+00 -0.00000000000E+00 -0.45593999997E+02  0.45594000000E+02  0.51100000000E-03 0. -1.
    9900012    2    1    2    0    0 -0.17927384044E+02 -0.15376748490E+02 -0.21421563932E+02  0.59301970236E+02  0.50000047798E+02 0.  0.
        -12    1    1    2    0    0  0.17927384044E+02  0.15376748490E+02  0.21421563932E+02  0.31886029764E+02  0.00000000000E+00 0.  1.
         11    1    3    3    0    0 -0.18388318143E+02  0.60692574074E+01 -0.18920401752E+02  0.27073007449E+02  0.51100000000E-03 0. -1.
        -11    1    3    3    0    0  0.91791814167E+01 -0.75694635926E+01 -0.86666574841E+01  0.14719548321E+02  0.51100000000E-03 0.  1.
        -12    1    3    3    0    0 -0.87182473174E+01 -0.13876542305E+02  0.61654953036E+01  0.17509414467E+02  0.00000000000E+00 0.  1.
</event>
<event>
 7    1  0.7313719E-013  0.5930192E+02  0.7816164E-02  0.1266605E+00
        -11   -1    0    0    0    0  0.00000000000E+00  0.00000000000E+00  0.45593999997E+02  0.45594000000E+02  0.51100000000E-03 0. -1.
         11   -1    0    0    0    0 -0.00000000000E+00 -0.00000000000E+00 -0.45593999997E+02  0.45594000000E+02  0.51100000000E-03 0.  1.
    9900012    2    1    2    0    0  0.23803033600E+02 -0.21011156038E+02 -0.29443611863E+01  0.59301916054E+02  0.49999948983E+02 0.  0.
        -12    1    1    2    0    0 -0.23803033600E+02  0.21011156038E+02  0.29443611863E+01  0.31886083946E+02  0.00000000000E+00 0.  1.
         11    1    3    3    0    0  0.90597084302E+01 -0.92944788984E+01 -0.17342315954E+02  0.21661522979E+02  0.51100000000E-03 0. -1.
        -11    1    3    3    0    0  0.69538454552E+01  0.91194005480E+01  0.64199539679E+00  0.11486147802E+02  0.51100000000E-03 0.  1.
        -12    1    3    3    0    0  0.77894797144E+01 -0.20836077688E+02  0.13755959371E+02  0.26154245274E+02  0.00000000000E+00 0.  1.
</event>
<event>
 7    1  0.7313719E-013  0.5930194E+02  0.7816164E-02  0.1266605E+00
        -11   -1    0    0    0    0  0.00000000000E+00  0.00000000000E+00  0.45593999997E+02  0.45594000000E+02  0.51100000000E-03 0. -1.
         11   -1    0    0    0    0 -0.00000000000E+00 -0.00000000000E+00 -0.45593999997E+02  0.45594000000E+02  0.51100000000E-03 0.  1.
    9900012    2    1    2    0    0 -0.58883415107E+01 -0.28259180492E+02  0.13545007969E+02  0.59301935822E+02  0.49999985035E+02 0.  0.
        -12    1    1    2    0    0  0.58883415107E+01  0.28259180492E+02 -0.13545007969E+02  0.31886064178E+02  0.00000000000E+00 0.  1.
         11    1    3    3    0    0 -0.13876298035E+02 -0.12716706894E+02  0.21497368156E+02  0.28572768842E+02  0.51100000000E-03 0. -1.
        -11    1    3    3    0    0 -0.78903446204E+01 -0.26523783853E+01  0.10378044858E+01  0.83886642404E+01  0.51100000000E-03 0.  1.
        -12    1    3    3    0    0  0.15878301145E+02 -0.12890095213E+02 -0.89901646727E+01  0.22340502740E+02  0.00000000000E+00 0.  1.
</event>
<event>
 7    1  0.7313719E-013  0.5930194E+02  0.7816164E-02  0.1266605E+00
        -11   -1    0    0    0    0  0.00000000000E+00  0.00000000000E+00  0.45593999997E+02  0.45594000000E+02  0.51100000000E-03 0. -1.
         11   -1    0    0    0    0 -0.00000000000E+00 -0.00000000000E+00 -0.45593999997E+02  0.45594000000E+02  0.51100000000E-03 0.  1.
    9900012    2    1    2    0    0  0.18668464687E+02  0.24009756293E+02  0.95781450841E+01  0.59301939813E+02  0.49999992313E+02 0.  0.
        -12    1    1    2    0    0 -0.18668464687E+02 -0.24009756293E+02 -0.95781450841E+01  0.31886060187E+02  0.00000000000E+00 0.  1.
         11    1    3    3    0    0  0.20864621420E+02  0.71532433507E+01  0.12935461138E+02  0.25570050304E+02  0.51100000000E-03 0. -1.
        -11    1    3    3    0    0  0.79808800449E+01  0.99499372042E+01  0.95263706744E+01  0.15920032511E+02  0.51100000000E-03 0.  1.
        -12    1    3    3    0    0 -0.10177036778E+02  0.69065757382E+01 -0.12883686728E+02  0.17811856998E+02  0.00000000000E+00 0.  1.
</event>
<event>
 7    1  0.7313719E-013  0.5930196E+02  0.7816164E-02  0.1266605E+00
        -11   -1    0    0    0    0  0.00000000000E+00  0.00000000000E+00  0.45593999997E+02  0.45594000000E+02  0.51100000000E-03 0.  1.
         11   -1    0    0    0    0 -0.00000000000E+00 -0.00000000000E+00 -0.45593999997E+02  0.45594000000E+02  0.51100000000E-03 0. -1.
    9900012    2    1    2    0    0 -0.94317808978E+01  0.14434176039E+02 -0.26821920013E+02  0.59301963526E+02  0.50000035561E+02 0.  0.
        -12    1    1    2    0    0  0.94317808978E+01 -0.14434176039E+02  0.26821920013E+02  0.31886036474E+02  0.00000000000E+00 0.  1.
         11    1    3    3    0    0  0.11931127499E+02 -0.39028829175E+01 -0.49616893740E+01  0.13498246559E+02  0.51100000000E-03 0. -1.
        -11    1    3    3    0    0 -0.43606133573E+01 -0.72874999354E+01 -0.79734914934E+00  0.85298517037E+01  0.51100000000E-03 0.  1.
         12    1    3    3    0    0 -0.17002295040E+02  0.25624558892E+02 -0.21062881489E+02  0.37273865263E+02  0.00000000000E+00 0. -1.
</event>
<event>
 7    1  0.7313719E-013  0.5930196E+02  0.7816164E-02  0.1266605E+00
        -11   -1    0    0    0    0  0.00000000000E+00  0.00000000000E+00  0.45593999997E+02  0.45594000000E+02  0.51100000000E-03 0. -1.
         11   -1    0    0    0    0 -0.00000000000E+00 -0.00000000000E+00 -0.45593999997E+02  0.45594000000E+02  0.51100000000E-03 0.  1.
    9900012    2    1    2    0    0  0.56030500244E+01 -0.12570025108E+02  0.28763167032E+02  0.59301961073E+02  0.50000031086E+02 0.  0.
        -12    1    1    2    0    0 -0.56030500244E+01  0.12570025108E+02 -0.28763167032E+02  0.31886038927E+02  0.00000000000E+00 0.  1.
         11    1    3    3    0    0  0.13395613691E+02  0.69343277295E+01  0.68701796575E+01  0.16574882685E+02  0.51100000000E-03 0. -1.
        -11    1    3    3    0    0  0.78779825162E+01  0.36846639644E+01  0.55586592653E+01  0.10321727091E+02  0.51100000000E-03 0.  1.
         12    1    3    3    0    0 -0.15670546183E+02 -0.23189016802E+02  0.16334328109E+02  0.32405351297E+02  0.00000000000E+00 0. -1.
</event>
<event>
 7    1  0.8234282E-013  0.5930190E+02  0.7816164E-02  0.1266605E+00
        -11   -1    0    0    0    0  0.00000000000E+00  0.00000000000E+00  0.45593999997E+02  0.45594000000E+02  0.51100000000E-03 0. -1.
         11   -1    0    0    0    0 -0.00000000000E+00 -0.00000000000E+00 -0.45593999997E+02  0.45594000000E+02  0.51100000000E-03 0.  1.
    9900012    2    1    2    0    0  0.14565092342E+02  0.15439552764E+02  0.23794989030E+02  0.59301902599E+02  0.49999924445E+02 0.  0.
        -12    1    1    2    0    0 -0.14565092342E+02 -0.15439552764E+02 -0.23794989030E+02  0.31886097401E+02  0.00000000000E+00 0.  1.
         11    1    3    3    0    0  0.14911695504E+02  0.15879494232E+02  0.19598413727E+02  0.29302129969E+02  0.51100000000E-03 0. -1.
        -11    1    3    3    0    0  0.12642656643E+02 -0.26718718568E+00 -0.54996729461E+01  0.13789654048E+02  0.51100000000E-03 0.  1.
         12    1    3    3    0    0 -0.12989259805E+02 -0.17275428196E+00  0.96962482491E+01  0.16210118582E+02  0.00000000000E+00 0. -1.
</event>
<event>
 7    1  0.7813165E-013  0.5930218E+02  0.7816164E-02  0.1266604E+00
        -11   -1    0    0    0    0  0.00000000000E+00  0.00000000000E+00  0.45593999997E+02  0.45594000000E+02  0.51100000000E-03 0.  1.
         11   -1    0    0    0    0 -0.00000000000E+00 -0.00000000000E+00 -0.45593999997E+02  0.45594000000E+02  0.51100000000E-03 0. -1.
    9900012    2    1    2    0    0  0.75060261754E+01  0.28867943157E+02 -0.11269730676E+02  0.59302181826E+02  0.50000433686E+02 0.  0.
        -12    1    1    2    0    0 -0.75060261754E+01 -0.28867943157E+02  0.11269730676E+02  0.31885818174E+02  0.00000000000E+00 0.  1.
         11    1    3    3    0    0 -0.97411828795E+00  0.14656899683E+02  0.10050836584E+02  0.17798677789E+02  0.51100000000E-03 0. -1.
        -11    1    3    3    0    0  0.15739402852E+02  0.58867544322E+01  0.75273380954E+00  0.16821096525E+02  0.51100000000E-03 0.  1.
         12    1    3    3    0    0 -0.72592583882E+01  0.83242890426E+01 -0.22073301070E+02  0.24682407511E+02  0.00000000000E+00 0. -1.
</event>
<event>
 7    1  0.7313719E-013  0.5930180E+02  0.7816164E-02  0.1266605E+00
        -11   -1    0    0    0    0  0.00000000000E+00  0.00000000000E+00  0.45593999997E+02  0.45594000000E+02  0.51100000000E-03 0.  1.
         11   -1    0    0    0    0 -0.00000000000E+00 -0.00000000000E+00 -0.45593999997E+02  0.45594000000E+02  0.51100000000E-03 0. -1.
    9900012    2    1    2    0    0 -0.22178294907E+01 -0.89271549668E+01 -0.30530590901E+02  0.59301798530E+02  0.49999734646E+02 0.  0.
        -12    1    1    2    0    0  0.22178294907E+01  0.89271549668E+01  0.30530590901E+02  0.31886201470E+02  0.00000000000E+00 0.  1.
         11    1    3    3    0    0 -0.58892965945E+01  0.52242258327E+01  0.49213240356E+01  0.92841682693E+01  0.51100000000E-03 0. -1.
        -11    1    3    3    0    0 -0.90257500809E+01 -0.43496743527E+01  0.11211029654E+01  0.10081701425E+02  0.51100000000E-03 0.  1.
         12    1    3    3    0    0  0.12697217185E+02 -0.98017064467E+01 -0.36573017902E+02  0.39935928836E+02  0.00000000000E+00 0. -1.
</event>
<event>
 7    1  0.7313719E-013  0.5930197E+02  0.7816164E-02  0.1266605E+00
        -11   -1    0    0    0    0  0.00000000000E+00  0.00000000000E+00  0.45593999997E+02  0.45594000000E+02  0.51100000000E-03 0.  1.
         11   -1    0    0    0    0 -0.00000000000E+00 -0.00000000000E+00 -0.45593999997E+02  0.45594000000E+02  0.51100000000E-03 0. -1.
    9900012    2    1    2    0    0 -0.20244752690E+02  0.19798749808E+02  0.14658737352E+02  0.59301967224E+02  0.50000042304E+02 0.  0.
        -12    1    1    2    0    0  0.20244752690E+02 -0.19798749808E+02 -0.14658737352E+02  0.31886032776E+02  0.00000000000E+00 0.  1.
         11    1    3    3    0    0  0.17960660509E+01 -0.21446208508E+01  0.15213205514E+02  0.15468253751E+02  0.51100000000E-03 0. -1.
        -11    1    3    3    0    0 -0.64436825007E+01 -0.35079183126E+00 -0.12539475697E+02  0.14102572464E+02  0.51100000000E-03 0.  1.
         12    1    3    3    0    0 -0.15597136240E+02  0.22294162490E+02  0.11985007536E+02  0.29731141008E+02  0.00000000000E+00 0. -1.
</event>
<event>
 7    1  0.7313719E-013  0.5930194E+02  0.7816164E-02  0.1266605E+00
        -11   -1    0    0    0    0  0.00000000000E+00  0.00000000000E+00  0.45593999997E+02  0.45594000000E+02  0.51100000000E-03 0.  1.
         11   -1    0    0    0    0 -0.00000000000E+00 -0.00000000000E+00 -0.45593999997E+02  0.45594000000E+02  0.51100000000E-03 0. -1.
    9900012    2    1    2    0    0 -0.11481770695E+02 -0.24301871981E+02 -0.17155426930E+02  0.59301941711E+02  0.49999995775E+02 0.  0.
        -12    1    1    2    0    0  0.11481770695E+02  0.24301871981E+02  0.17155426930E+02  0.31886058289E+02  0.00000000000E+00 0.  1.
         11    1    3    3    0    0 -0.43736958624E+01 -0.75947101480E+01 -0.24799924859E+01  0.91081941526E+01  0.51100000000E-03 0. -1.
        -11    1    3    3    0    0 -0.21317173885E+02  0.17098839246E+01  0.21379625818E+01  0.21492242548E+02  0.51100000000E-03 0.  1.
         12    1    3    3    0    0  0.14209099053E+02 -0.18417045757E+02 -0.16813397026E+02  0.28701505010E+02  0.00000000000E+00 0. -1.
</event>
<event>
 7    1  0.7313719E-013  0.5930194E+02  0.7816164E-02  0.1266605E+00
        -11   -1    0    0    0    0  0.00000000000E+00  0.00000000000E+00  0.45593999997E+02  0.45594000000E+02  0.51100000000E-03 0.  1.
         11   -1    0    0    0    0 -0.00000000000E+00 -0.00000000000E+00 -0.45593999997E+02  0.45594000000E+02  0.51100000000E-03 0. -1.
    9900012    2    1    2    0    0  0.12620368078E+02  0.21084370643E+02 -0.20319845769E+02  0.59301944930E+02  0.50000001646E+02 0.  0.
        -12    1    1    2    0    0 -0.12620368078E+02 -0.21084370643E+02  0.20319845769E+02  0.31886055070E+02  0.00000000000E+00 0.  1.
         11    1    3    3    0    0 -0.85429019811E+01  0.42469519474E+01 -0.75369571808E+01  0.12158268746E+02  0.51100000000E-03 0. -1.
        -11    1    3    3    0    0  0.10132588387E+02 -0.81691363218E+01 -0.14835114128E+02  0.19735367924E+02  0.51100000000E-03 0.  1.
        -12    1    3    3    0    0  0.11030681672E+02  0.25006555018E+02  0.20522255399E+01  0.27408308260E+02  0.00000000000E+00 0.  1.
</event>
<event>
 7    1  0.7313719E-013  0.5930191E+02  0.7816164E-02  0.1266605E+00
        -11   -1    0    0    0    0  0.00000000000E+00  0.00000000000E+00  0.45593999997E+02  0.45594000000E+02  0.51100000000E-03 0. -1.
         11   -1    0    0    0    0 -0.00000000000E+00 -0.00000000000E+00 -0.45593999997E+02  0.45594000000E+02  0.51100000000E-03 0.  1.
    9900012    2    1    2    0    0 -0.11620226940E+02 -0.13384468566E+02  0.26505639834E+02  0.59301911875E+02  0.49999941361E+02 0.  0.
        -12    1    1    2    0    0  0.11620226940E+02  0.13384468566E+02 -0.26505639834E+02  0.31886088125E+02  0.00000000000E+00 0.  1.
         11    1    3    3    0    0 -0.15281474035E+01 -0.18073102541E+02  0.70766580949E+01  0.19469241383E+02  0.51100000000E-03 0. -1.
        -11    1    3    3    0    0 -0.17396137893E+02 -0.26652202627E+01  0.22918607540E+02  0.28896220937E+02  0.51100000000E-03 0.  1.
        -12    1    3    3    0    0  0.73040583564E+01  0.73538542383E+01 -0.34896258011E+01  0.10936449555E+02  0.00000000000E+00 0.  1.
</event>
<event>
 7    1  0.7313719E-013  0.5930193E+02  0.7816164E-02  0.1266605E+00
        -11   -1    0    0    0    0  0.00000000000E+00  0.00000000000E+00  0.45593999997E+02  0.45594000000E+02  0.51100000000E-03 0. -1.
         11   -1    0    0    0    0 -0.00000000000E+00 -0.00000000000E+00 -0.45593999997E+02  0.45594000000E+02  0.51100000000E-03 0.  1.
    9900012    2    1    2    0    0 -0.25904749587E+01 -0.20750779786E+00  0.31779992959E+02  0.59301928237E+02  0.49999971202E+02 0.  0.
        -12    1    1    2    0    0  0.25904749587E+01  0.20750779786E+00 -0.31779992959E+02  0.31886071763E+02  0.00000000000E+00 0.  1.
         11    1    3    3    0    0  0.50470893720E+01  0.91768362103E+01  0.41422809755E+01  0.11262589662E+02  0.51100000000E-03 0. -1.
        -11    1    3    3    0    0  0.33174802593E+01  0.44705790043E+01 -0.71278707931E+01  0.90442409415E+01  0.51100000000E-03 0.  1.
         12    1    3    3    0    0 -0.10955044590E+02 -0.13854923012E+02  0.34765582776E+02  0.38995097633E+02  0.00000000000E+00 0. -1.
</event>
<event>
 7    1  0.7313719E-013  0.5930188E+02  0.7816164E-02  0.1266605E+00
        -11   -1    0    0    0    0  0.00000000000E+00  0.00000000000E+00  0.45593999997E+02  0.45594000000E+02  0.51100000000E-03 0.  1.
         11   -1    0    0    0    0 -0.00000000000E+00 -0.00000000000E+00 -0.45593999997E+02  0.45594000000E+02  0.51100000000E-03 0. -1.
    9900012    2    1    2    0    0  0.13413516925E+02 -0.17116407434E+02 -0.23320175127E+02  0.59301883778E+02  0.49999890120E+02 0.  0.
        -12    1    1    2    0    0 -0.13413516925E+02  0.17116407434E+02  0.23320175127E+02  0.31886116222E+02  0.00000000000E+00 0.  1.
         11    1    3    3    0    0 -0.59636222343E+01 -0.85388064085E+01 -0.26070623458E+01  0.10736516165E+02  0.51100000000E-03 0. -1.
        -11    1    3    3    0    0  0.15194624498E+02  0.10266910571E+02 -0.22675577388E+02  0.29162782385E+02  0.51100000000E-03 0.  1.
         12    1    3    3    0    0  0.41825146611E+01 -0.18844511597E+02  0.19624646064E+01  0.19402585228E+02  0.00000000000E+00 0. -1.
</event>
<event>
 7    1  0.7313719E-013  0.5930194E+02  0.7816164E-02  0.1266605E+00
        -11   -1    0    0    0    0  0.00000000000E+00  0.00000000000E+00  0.45593999997E+02  0.45594000000E+02  0.51100000000E-03 0.  1.
         11   -1    0    0    0    0 -0.00000000000E+00 -0.00000000000E+00 -0.45593999997E+02  0.45594000000E+02  0.51100000000E-03 0. -1.
    9900012    2    1    2    0    0 -0.23474591798E+02  0.48785087303E+01 -0.21020578110E+02  0.59301937032E+02  0.49999987241E+02 0.  0.
        -12    1    1    2    0    0  0.23474591798E+02 -0.48785087303E+01  0.21020578110E+02  0.31886062968E+02  0.00000000000E+00 0.  1.
         11    1    3    3    0    0 -0.19781594778E+02  0.16507996319E+02 -0.10098277231E+02  0.27673103146E+02  0.51100000000E-03 0. -1.
        -11    1    3    3    0    0 -0.24154193517E+01  0.85546274076E+00  0.82920467707E+01  0.86789461949E+01  0.51100000000E-03 0.  1.
         12    1    3    3    0    0 -0.12775776682E+01 -0.12484950329E+02 -0.19214347650E+02  0.22949887691E+02  0.00000000000E+00 0. -1.
</event>
<event>
 7    1  0.7313719E-013  0.5930198E+02  0.7816164E-02  0.1266605E+00
        -11   -1    0    0    0    0  0.00000000000E+00  0.00000000000E+00  0.45593999997E+02  0.45594000000E+02  0.51100000000E-03 0.  1.
         11   -1    0    0    0    0 -0.00000000000E+00 -0.00000000000E+00 -0.45593999997E+02  0.45594000000E+02  0.51100000000E-03 0. -1.
    9900012    2    1    2    0    0 -0.90382236462E+00  0.31831298502E+02  0.16339535736E+01  0.59301980124E+02  0.50000065832E+02 0.  0.
        -12    1    1    2    0    0  0.90382236462E+00 -0.31831298502E+02 -0.16339535736E+01  0.31886019876E+02  0.00000000000E+00 0.  1.
         11    1    3    3    0    0 -0.94504857757E+01  0.16745245359E+02 -0.29650615130E+00  0.19230258441E+02  0.51100000000E-03 0. -1.
        -11    1    3    3    0    0 -0.77667077794E+01 -0.75469193392E+01  0.51416857990E+01  0.11988105537E+02  0.51100000000E-03 0.  1.
         12    1    3    3    0    0  0.16313371191E+02  0.22632972482E+02 -0.32112260741E+01  0.28083616147E+02  0.00000000000E+00 0. -1.
</event>
<event>
 7    1  0.7313719E-013  0.5930194E+02  0.7816164E-02  0.1266605E+00
        -11   -1    0    0    0    0  0.00000000000E+00  0.00000000000E+00  0.45593999997E+02  0.45594000000E+02  0.51100000000E-03 0.  1.
         11   -1    0    0    0    0 -0.00000000000E+00 -0.00000000000E+00 -0.45593999997E+02  0.45594000000E+02  0.51100000000E-03 0. -1.
    9900012    2    1    2    0    0  0.13645226917E+02  0.55114100408E+01 -0.28286978254E+02  0.59301937261E+02  0.49999987659E+02 0.  0.
        -12    1    1    2    0    0 -0.13645226917E+02 -0.55114100408E+01  0.28286978254E+02  0.31886062739E+02  0.00000000000E+00 0.  1.
         11    1    3    3    0    0  0.19309781873E+02  0.15258738771E+02 -0.14268503334E+02  0.28447969567E+02  0.51100000000E-03 0. -1.
        -11    1    3    3    0    0  0.63310534947E+01  0.48401630009E+01 -0.12752809166E+01  0.80706727047E+01  0.51100000000E-03 0.  1.
        -12    1    3    3    0    0 -0.11995608451E+02 -0.14587491732E+02 -0.12743194004E+02  0.22783294989E+02  0.00000000000E+00 0.  1.
</event>
<event>
 7    1  0.7313719E-013  0.5930195E+02  0.7816164E-02  0.1266605E+00
        -11   -1    0    0    0    0  0.00000000000E+00  0.00000000000E+00  0.45593999997E+02  0.45594000000E+02  0.51100000000E-03 0.  1.
         11   -1    0    0    0    0 -0.00000000000E+00 -0.00000000000E+00 -0.45593999997E+02  0.45594000000E+02  0.51100000000E-03 0. -1.
    9900012    2    1    2    0    0  0.30335836456E+01 -0.82563277842E+01 -0.30648822867E+02  0.59301954128E+02  0.50000018421E+02 0.  0.
        -12    1    1    2    0    0 -0.30335836456E+01  0.82563277842E+01  0.30648822867E+02  0.31886045872E+02  0.00000000000E+00 0.  1.
         11    1    3    3    0    0  0.94841402323E+01 -0.13686039591E+02 -0.12775489563E+02  0.20987370713E+02  0.51100000000E-03 0. -1.
        -11    1    3    3    0    0  0.96656474264E+01 -0.66468655172E+01 -0.53904245025E+00  0.11742918223E+02  0.51100000000E-03 0.  1.
        -12    1    3    3    0    0 -0.16116204013E+02  0.12076577324E+02 -0.17334290854E+02  0.26571665192E+02  0.00000000000E+00 0.  1.
</event>
<event>
 7    1  0.7313719E-013  0.5930191E+02  0.7816164E-02  0.1266605E+00
        -11   -1    0    0    0    0  0.00000000000E+00  0.00000000000E+00  0.45593999997E+02  0.45594000000E+02  0.51100000000E-03 0.  1.
         11   -1    0    0    0    0 -0.00000000000E+00 -0.00000000000E+00 -0.45593999997E+02  0.45594000000E+02  0.51100000000E-03 0. -1.
    9900012    2    1    2    0    0  0.14249373314E+02 -0.28501086211E+02 -0.11687989268E+01  0.59301911404E+02  0.49999940502E+02 0.  0.
        -12    1    1    2    0    0 -0.14249373314E+02  0.28501086211E+02  0.11687989268E+01  0.31886088596E+02  0.00000000000E+00 0.  1.
         11    1    3    3    0    0 -0.74219111503E+01 -0.20353358656E+02 -0.16684042344E+02  0.27344126296E+02  0.51100000000E-03 0. -1.
        -11    1    3    3    0    0  0.21530609551E+01  0.33144287808E+01 -0.82940614109E+00  0.40384433174E+01  0.51100000000E-03 0.  1.
        -12    1    3    3    0    0  0.19518223509E+02 -0.11462156336E+02  0.16344649558E+02  0.27919341790E+02  0.00000000000E+00 0.  1.
</event>
<event>
 7    1  0.7313719E-013  0.5930189E+02  0.7816164E-02  0.1266605E+00
        -11   -1    0    0    0    0  0.00000000000E+00  0.00000000000E+00  0.45593999997E+02  0.45594000000E+02  0.51100000000E-03 0.  1.
         11   -1    0    0    0    0 -0.00000000000E+00 -0.00000000000E+00 -0.45593999997E+02  0.45594000000E+02  0.51100000000E-03 0. -1.
    9900012    2    1    2    0    0  0.17092979277E+02  0.10800682932E+02 -0.24655615799E+02  0.59301888873E+02  0.49999899411E+02 0.  0.
        -12    1    1    2    0    0 -0.17092979277E+02 -0.10800682932E+02  0.24655615799E+02  0.31886111127E+02  0.00000000000E+00 0.  1.
         11    1    3    3    0    0  0.46735164024E+01 -0.96765755787E+01 -0.47823853840E+01  0.11762188602E+02  0.51100000000E-03 0. -1.
        -11    1    3    3    0    0 -0.52432739810E+01 -0.79757587480E+01 -0.27875363183E+01  0.99435913348E+01  0.51100000000E-03 0.  1.
         12    1    3    3    0    0  0.17662736855E+02  0.28453017259E+02 -0.17085694097E+02  0.37596108936E+02  0.00000000000E+00 0. -1.
</event>
<event>
 7    1  0.7313719E-013  0.5930193E+02  0.7816164E-02  0.1266605E+00
        -11   -1    0    0    0    0  0.00000000000E+00  0.00000000000E+00  0.45593999997E+02  0.45594000000E+02  0.51100000000E-03 0.  1.
         11   -1    0    0    0    0 -0.00000000000E+00 -0.00000000000E+00 -0.45593999997E+02  0.45594000000E+02  0.51100000000E-03 0. -1.
    9900012    2    1    2    0    0  0.17319023843E+02 -0.22784830132E+02 -0.14057898413E+02  0.59301928137E+02  0.49999971020E+02 0.  0.
        -12    1    1    2    0    0 -0.17319023843E+02  0.22784830132E+02  0.14057898413E+02  0.31886071863E+02  0.00000000000E+00 0.  1.
         11    1    3    3    0    0  0.71678517894E+01  0.42777834109E+01 -0.21972288599E+02  0.23504446318E+02  0.51100000000E-03 0. -1.
        -11    1    3    3    0    0  0.27254200813E+01 -0.21272208611E+02 -0.26917632494E+01  0.21614355495E+02  0.51100000000E-03 0.  1.
        -12    1    3    3    0    0  0.74257519728E+01 -0.57904049323E+01  0.10606153435E+02  0.14183126324E+02  0.00000000000E+00 0.  1.
</event>
<event>
 7    1  0.7313719E-013  0.5930197E+02  0.7816164E-02  0.1266605E+00
        -11   -1    0    0    0    0  0.00000000000E+00  0.00000000000E+00  0.45593999997E+02  0.45594000000E+02  0.51100000000E-03 0. -1.
         11   -1    0    0    0    0 -0.00000000000E+00 -0.00000000000E+00 -0.45593999997E+02  0.45594000000E+02  0.51100000000E-03 0.  1.
    9900012    2    1    2    0    0  0.16406033734E+02 -0.53251398904E+00  0.27336376391E+02  0.59301968760E+02  0.50000045107E+02 0.  0.
        -12    1    1    2    0    0 -0.16406033734E+02  0.53251398904E+00 -0.27336376391E+02  0.31886031240E+02  0.00000000000E+00 0.  1.
         11    1    3    3    0    0  0.21850281366E+01  0.89773089180E+01  0.13558337325E+02  0.16407161079E+02  0.51100000000E-03 0. -1.
        -11    1    3    3    0    0  0.67731365153E+01  0.57429322134E+01  0.22226282403E+02  0.23934583313E+02  0.51100000000E-03 0.  1.
        -12    1    3    3    0    0  0.74478690817E+01 -0.15252755120E+02 -0.84482433374E+01  0.18960224369E+02  0.00000000000E+00 0.  1.
</event>
<event>
 7    1  0.7313719E-013  0.5930196E+02  0.7816164E-02  0.1266605E+00
        -11   -1    0    0    0    0  0.00000000000E+00  0.00000000000E+00  0.45593999997E+02  0.45594000000E+02  0.51100000000E-03 0. -1.
         11   -1    0    0    0    0 -0.00000000000E+00 -0.00000000000E+00 -0.45593999997E+02  0.45594000000E+02  0.51100000000E-03 0.  1.
    9900012    2    1    2    0    0  0.20310485768E+02 -0.66715410516E+01  0.23657853085E+02  0.59301963797E+02  0.50000036055E+02 0.  0.
        -12    1    1    2    0    0 -0.20310485768E+02  0.66715410516E+01 -0.23657853085E+02  0.31886036203E+02  0.00000000000E+00 0.  1.
         11    1    3    3    0    0  0.12601881230E+01 -0.12076680947E+02  0.24166972911E+02  0.27045829193E+02  0.51100000000E-03 0. -1.
        -11    1    3    3    0    0  0.94539736560E+01  0.10498561365E+02  0.98674428302E+01  0.17232638709E+02  0.51100000000E-03 0.  1.
        -12    1    3    3    0    0  0.95963239887E+01 -0.50934214700E+01 -0.10376562656E+02  0.15023495895E+02  0.00000000000E+00 0.  1.
</event>
<event>
 7    1  0.7313719E-013  0.5930192E+02  0.7816164E-02  0.1266605E+00
        -11   -1    0    0    0    0  0.00000000000E+00  0.00000000000E+00  0.45593999997E+02  0.45594000000E+02  0.51100000000E-03 0. -1.
         11   -1    0    0    0    0 -0.00000000000E+00 -0.00000000000E+00 -0.45593999997E+02  0.45594000000E+02  0.51100000000E-03 0.  1.
    9900012    2    1    2    0    0 -0.13486794362E+02 -0.28815117564E+02  0.21254744341E+01  0.59301917394E+02  0.49999951426E+02 0.  0.
        -12    1    1    2    0    0  0.13486794362E+02  0.28815117564E+02 -0.21254744341E+01  0.31886082606E+02  0.00000000000E+00 0.  1.
         11    1    3    3    0    0  0.67793155528E+01 -0.11038005326E+02 -0.18641518588E+02  0.22700284061E+02  0.51100000000E-03 0.  1.
        -11    1    3    3    0    0 -0.27129306958E+01 -0.89510401282E+01  0.22863204226E+01  0.96285187683E+01  0.51100000000E-03 0. -1.
        -12    1    3    3    0    0 -0.17553179219E+02 -0.88260721095E+01  0.18480672599E+02  0.26973114564E+02  0.00000000000E+00 0.  1.
</event>
<event>
 7    1  0.7313719E-013  0.5930194E+02  0.7816164E-02  0.1266605E+00
        -11   -1    0    0    0    0  0.00000000000E+00  0.00000000000E+00  0.45593999997E+02  0.45594000000E+02  0.51100000000E-03 0.  1.
         11   -1    0    0    0    0 -0.00000000000E+00 -0.00000000000E+00 -0.45593999997E+02  0.45594000000E+02  0.51100000000E-03 0. -1.
    9900012    2    1    2    0    0  0.20568090662E+01 -0.24040328583E+02 -0.20845940202E+02  0.59301935884E+02  0.49999985148E+02 0.  0.
        -12    1    1    2    0    0 -0.20568090662E+01  0.24040328583E+02  0.20845940202E+02  0.31886064116E+02  0.00000000000E+00 0.  1.
         11    1    3    3    0    0 -0.13513343894E+02 -0.24096086052E+02  0.22752602568E+01  0.27720184627E+02  0.51100000000E-03 0. -1.
        -11    1    3    3    0    0 -0.14104496746E+01  0.21129075658E+01  0.32314842045E+00  0.25608927796E+01  0.51100000000E-03 0.  1.
         12    1    3    3    0    0  0.16980602635E+02 -0.20571500961E+01 -0.23444348879E+02  0.29020858477E+02  0.00000000000E+00 0. -1.
</event>
<event>
 7    1  0.1026956E-012  0.5930193E+02  0.7816164E-02  0.1266605E+00
        -11   -1    0    0    0    0  0.00000000000E+00  0.00000000000E+00  0.45593999997E+02  0.45594000000E+02  0.51100000000E-03 0. -1.
         11   -1    0    0    0    0 -0.00000000000E+00 -0.00000000000E+00 -0.45593999997E+02  0.45594000000E+02  0.51100000000E-03 0.  1.
    9900012    2    1    2    0    0  0.18519679607E+02 -0.95948679918E+01 -0.24118067494E+02  0.59301934013E+02  0.49999981735E+02 0.  0.
        -12    1    1    2    0    0 -0.18519679607E+02  0.95948679918E+01  0.24118067494E+02  0.31886065987E+02  0.00000000000E+00 0.  1.
         11    1    3    3    0    0  0.28802772622E+00  0.46366126085E+01 -0.14640120838E+02  0.15359501127E+02  0.51100000000E-03 0.  1.
        -11    1    3    3    0    0 -0.99084916088E+01 -0.10068312154E+02 -0.58483146666E+00  0.14138286448E+02  0.51100000000E-03 0. -1.
         12    1    3    3    0    0  0.28140143489E+02 -0.41631684467E+01 -0.88931151892E+01  0.29804146438E+02  0.00000000000E+00 0. -1.
</event>
<event>
 7    1  0.7313719E-013  0.5930193E+02  0.7816164E-02  0.1266605E+00
        -11   -1    0    0    0    0  0.00000000000E+00  0.00000000000E+00  0.45593999997E+02  0.45594000000E+02  0.51100000000E-03 0. -1.
         11   -1    0    0    0    0 -0.00000000000E+00 -0.00000000000E+00 -0.45593999997E+02  0.45594000000E+02  0.51100000000E-03 0.  1.
    9900012    2    1    2    0    0  0.25090263364E+02  0.17321941173E+02  0.93354431037E+01  0.59301930006E+02  0.49999974428E+02 0.  0.
        -12    1    1    2    0    0 -0.25090263364E+02 -0.17321941173E+02 -0.93354431037E+01  0.31886069994E+02  0.00000000000E+00 0.  1.
         11    1    3    3    0    0  0.51213137516E+00  0.17052477941E+02 -0.11667730456E+02  0.20668459467E+02  0.51100000000E-03 0. -1.
        -11    1    3    3    0    0  0.22656015664E+01 -0.38811115252E+01 -0.31519466933E+01  0.54891479618E+01  0.51100000000E-03 0.  1.
        -12    1    3    3    0    0  0.22312530423E+02  0.41505747576E+01  0.24155120253E+02  0.33144322578E+02  0.00000000000E+00 0.  1.
</event>
<event>
 7    1  0.7313719E-013  0.5930186E+02  0.7816164E-02  0.1266605E+00
        -11   -1    0    0    0    0  0.00000000000E+00  0.00000000000E+00  0.45593999997E+02  0.45594000000E+02  0.51100000000E-03 0.  1.
         11   -1    0    0    0    0 -0.00000000000E+00 -0.00000000000E+00 -0.45593999997E+02  0.45594000000E+02  0.51100000000E-03 0. -1.
    9900012    2    1    2    0    0 -0.10511857177E+02 -0.28905411239E+01 -0.29964505698E+02  0.59301859264E+02  0.49999845411E+02 0.  0.
        -12    1    1    2    0    0  0.10511857177E+02  0.28905411239E+01  0.29964505698E+02  0.31886140736E+02  0.00000000000E+00 0.  1.
         11    1    3    3    0    0  0.15430040809E+01 -0.37044521574E+00 -0.99641969621E+01  0.10089762763E+02  0.51100000000E-03 0. -1.
        -11    1    3    3    0    0  0.14473091354E+01 -0.21556882136E+02 -0.10352473195E+02  0.23957620346E+02  0.51100000000E-03 0.  1.
        -12    1    3    3    0    0 -0.13502170394E+02  0.19036786227E+02 -0.96478355414E+01  0.25254476155E+02  0.00000000000E+00 0.  1.
</event>
<event>
 7    1  0.7313719E-013  0.5930194E+02  0.7816164E-02  0.1266605E+00
        -11   -1    0    0    0    0  0.00000000000E+00  0.00000000000E+00  0.45593999997E+02  0.45594000000E+02  0.51100000000E-03 0. -1.
         11   -1    0    0    0    0 -0.00000000000E+00 -0.00000000000E+00 -0.45593999997E+02  0.45594000000E+02  0.51100000000E-03 0.  1.
    9900012    2    1    2    0    0  0.30539243254E+02  0.71663542120E+01  0.57200512795E+01  0.59301937247E+02  0.49999987634E+02 0.  0.
        -12    1    1    2    0    0 -0.30539243254E+02 -0.71663542120E+01 -0.57200512795E+01  0.31886062753E+02  0.00000000000E+00 0.  1.
         11    1    3    3    0    0  0.17098091969E+02  0.22455052696E+01  0.52574072913E+01  0.18028515596E+02  0.51100000000E-03 0. -1.
        -11    1    3    3    0    0  0.50847964544E+01  0.20517339962E+02 -0.67149818569E+01  0.22178985002E+02  0.51100000000E-03 0.  1.
         12    1    3    3    0    0  0.83563548308E+01 -0.15596491020E+02  0.71776258450E+01  0.19094436649E+02  0.00000000000E+00 0. -1.
</event>
<event>
 7    1  0.7313719E-013  0.5930187E+02  0.7816164E-02  0.1266605E+00
        -11   -1    0    0    0    0  0.00000000000E+00  0.00000000000E+00  0.45593999997E+02  0.45594000000E+02  0.51100000000E-03 0.  1.
         11   -1    0    0    0    0 -0.00000000000E+00 -0.00000000000E+00 -0.45593999997E+02  0.45594000000E+02  0.51100000000E-03 0. -1.
    9900012    2    1    2    0    0  0.27683477120E+02  0.76170392279E+01  0.13868342532E+02  0.59301872662E+02  0.49999869846E+02 0.  0.
        -12    1    1    2    0    0 -0.27683477120E+02 -0.76170392279E+01 -0.13868342532E+02  0.31886127338E+02  0.00000000000E+00 0.  1.
         11    1    3    3    0    0  0.11778714428E+02  0.91395095519E+01 -0.12618831319E+02  0.19532118486E+02  0.51100000000E-03 0. -1.
        -11    1    3    3    0    0  0.20248611496E+02  0.57321636616E+01  0.16930891625E+02  0.27009610497E+02  0.51100000000E-03 0.  1.
         12    1    3    3    0    0 -0.43438488041E+01 -0.72546339856E+01  0.95562822267E+01  0.12760143678E+02  0.00000000000E+00 0. -1.
</event>
<event>
 7    1  0.7313719E-013  0.5930193E+02  0.7816164E-02  0.1266605E+00
        -11   -1    0    0    0    0  0.00000000000E+00  0.00000000000E+00  0.45593999997E+02  0.45594000000E+02  0.51100000000E-03 0.  1.
         11   -1    0    0    0    0 -0.00000000000E+00 -0.00000000000E+00 -0.45593999997E+02  0.45594000000E+02  0.51100000000E-03 0. -1.
    9900012    2    1    2    0    0 -0.13175519534E+02  0.18620549195E+02 -0.22280084731E+02  0.59301931836E+02  0.49999977766E+02 0.  0.
        -12    1    1    2    0    0  0.13175519534E+02 -0.18620549195E+02  0.22280084731E+02  0.31886068164E+02  0.00000000000E+00 0.  1.
         11    1    3    3    0    0  0.84394380565E+01  0.11526105598E+02 -0.42745908048E+01  0.14911316233E+02  0.51100000000E-03 0. -1.
        -11    1    3    3    0    0 -0.20825123108E+02  0.43116028924E+01  0.44685486715E+01  0.21731166546E+02  0.51100000000E-03 0.  1.
         12    1    3    3    0    0 -0.78983448222E+00  0.27828407038E+01 -0.22474042598E+02  0.22659449058E+02  0.00000000000E+00 0. -1.
</event>
<event>
 7    1  0.7313719E-013  0.5930204E+02  0.7816164E-02  0.1266604E+00
        -11   -1    0    0    0    0  0.00000000000E+00  0.00000000000E+00  0.45593999997E+02  0.45594000000E+02  0.51100000000E-03 0.  1.
         11   -1    0    0    0    0 -0.00000000000E+00 -0.00000000000E+00 -0.45593999997E+02  0.45594000000E+02  0.51100000000E-03 0. -1.
    9900012    2    1    2    0    0  0.23122630055E+01  0.84470729779E+00 -0.31790794098E+02  0.59302036317E+02  0.50000168313E+02 0.  0.
        -12    1    1    2    0    0 -0.23122630055E+01 -0.84470729779E+00  0.31790794098E+02  0.31885963683E+02  0.00000000000E+00 0.  1.
         11    1    3    3    0    0  0.18699064314E+01  0.21523577584E+02 -0.21199368063E+02  0.30268368780E+02  0.51100000000E-03 0. -1.
        -11    1    3    3    0    0 -0.46719503915E+01 -0.14531340210E+01  0.22181918746E+01  0.53720661199E+01  0.51100000000E-03 0.  1.
        -12    1    3    3    0    0  0.51143069656E+01 -0.19225736265E+02 -0.12809617909E+02  0.23661601418E+02  0.00000000000E+00 0.  1.
</event>
<event>
 7    1  0.7313719E-013  0.5930210E+02  0.7816164E-02  0.1266604E+00
        -11   -1    0    0    0    0  0.00000000000E+00  0.00000000000E+00  0.45593999997E+02  0.45594000000E+02  0.51100000000E-03 0.  1.
         11   -1    0    0    0    0 -0.00000000000E+00 -0.00000000000E+00 -0.45593999997E+02  0.45594000000E+02  0.51100000000E-03 0. -1.
    9900012    2    1    2    0    0 -0.12753991195E+02  0.13671308846E+02 -0.25829079405E+02  0.59302104688E+02  0.50000293004E+02 0.  0.
        -12    1    1    2    0    0  0.12753991195E+02 -0.13671308846E+02  0.25829079405E+02  0.31885895312E+02  0.00000000000E+00 0.  1.
         11    1    3    3    0    0  0.11941298258E+02  0.49709431796E+01 -0.18375444471E+01  0.13064511090E+02  0.51100000000E-03 0. -1.
        -11    1    3    3    0    0  0.27355676992E+01  0.74200376988E+01  0.22836093395E+01  0.82313523776E+01  0.51100000000E-03 0.  1.
         12    1    3    3    0    0 -0.27430857152E+02  0.12803279674E+01 -0.26275144297E+02  0.38006241220E+02  0.00000000000E+00 0. -1.
</event>
<event>
 7    1  0.7313719E-013  0.5930195E+02  0.7816164E-02  0.1266605E+00
        -11   -1    0    0    0    0  0.00000000000E+00  0.00000000000E+00  0.45593999997E+02  0.45594000000E+02  0.51100000000E-03 0.  1.
         11   -1    0    0    0    0 -0.00000000000E+00 -0.00000000000E+00 -0.45593999997E+02  0.45594000000E+02  0.51100000000E-03 0. -1.
    9900012    2    1    2    0    0  0.28288047329E+01  0.11666302970E+02 -0.29540064473E+02  0.59301950224E+02  0.50000011301E+02 0.  0.
        -12    1    1    2    0    0 -0.28288047329E+01 -0.11666302970E+02  0.29540064473E+02  0.31886049776E+02  0.00000000000E+00 0.  1.
         11    1    3    3    0    0 -0.14227951325E+01  0.41536999975E+01 -0.22419081387E+02  0.22844972754E+02  0.51100000000E-03 0. -1.
        -11    1    3    3    0    0  0.12223261911E+02  0.10686827614E+02 -0.16907941740E+02  0.23441307778E+02  0.51100000000E-03 0.  1.
         12    1    3    3    0    0 -0.79716620454E+01 -0.31742246420E+01  0.97869586534E+01  0.13015669692E+02  0.00000000000E+00 0. -1.
</event>
<event>
 7    1  0.7313719E-013  0.5930207E+02  0.7816164E-02  0.1266604E+00
        -11   -1    0    0    0    0  0.00000000000E+00  0.00000000000E+00  0.45593999997E+02  0.45594000000E+02  0.51100000000E-03 0. -1.
         11   -1    0    0    0    0 -0.00000000000E+00 -0.00000000000E+00 -0.45593999997E+02  0.45594000000E+02  0.51100000000E-03 0.  1.
    9900012    2    1    2    0    0 -0.13856474905E+02  0.27491509725E+02  0.83022468779E+01  0.59302073528E+02  0.50000236177E+02 0.  0.
        -12    1    1    2    0    0  0.13856474905E+02 -0.27491509725E+02 -0.83022468779E+01  0.31885926472E+02  0.00000000000E+00 0.  1.
         11    1    3    3    0    0 -0.24630489382E+02  0.22362472334E+02  0.46511871838E+01  0.33591289326E+02  0.51100000000E-03 0. -1.
        -11    1    3    3    0    0  0.41576899102E+01 -0.17458977277E+01 -0.88807389624E+01  0.99600235464E+01  0.51100000000E-03 0.  1.
        -12    1    3    3    0    0  0.66163245668E+01  0.68749351182E+01  0.12531798657E+02  0.15750760655E+02  0.00000000000E+00 0.  1.
</event>
<event>
 7    1  0.7313719E-013  0.5930195E+02  0.7816164E-02  0.1266605E+00
        -11   -1    0    0    0    0  0.00000000000E+00  0.00000000000E+00  0.45593999997E+02  0.45594000000E+02  0.51100000000E-03 0. -1.
         11   -1    0    0    0    0 -0.00000000000E+00 -0.00000000000E+00 -0.45593999997E+02  0.45594000000E+02  0.51100000000E-03 0.  1.
    9900012    2    1    2    0    0 -0.20250970965E+02 -0.17679374360E+02  0.17148114651E+02  0.59301953853E+02  0.50000017919E+02 0.  0.
        -12    1    1    2    0    0  0.20250970965E+02  0.17679374360E+02 -0.17148114651E+02  0.31886046147E+02  0.00000000000E+00 0.  1.
         11    1    3    3    0    0  0.25307466197E+01 -0.75437677383E+01  0.10865482202E+02  0.13467435312E+02  0.51100000000E-03 0. -1.
        -11    1    3    3    0    0  0.17408884821E+01 -0.11460227402E+01  0.17345150371E+02  0.17469925657E+02  0.51100000000E-03 0.  1.
        -12    1    3    3    0    0 -0.24522606067E+02 -0.89895838817E+01 -0.11062517922E+02  0.28364592883E+02  0.00000000000E+00 0.  1.
</event>
<event>
 7    1  0.7313719E-013  0.5930196E+02  0.7816164E-02  0.1266605E+00
        -11   -1    0    0    0    0  0.00000000000E+00  0.00000000000E+00  0.45593999997E+02  0.45594000000E+02  0.51100000000E-03 0. -1.
         11   -1    0    0    0    0 -0.00000000000E+00 -0.00000000000E+00 -0.45593999997E+02  0.45594000000E+02  0.51100000000E-03 0.  1.
    9900012    2    1    2    0    0 -0.25776998547E+02  0.10796890063E+02  0.15352289451E+02  0.59301964177E+02  0.50000036747E+02 0.  0.
        -12    1    1    2    0    0  0.25776998547E+02 -0.10796890063E+02 -0.15352289451E+02  0.31886035823E+02  0.00000000000E+00 0.  1.
         11    1    3    3    0    0 -0.21514178589E+02  0.17398389028E+01 -0.37419384594E+01  0.21906369472E+02  0.51100000000E-03 0. -1.
        -11    1    3    3    0    0 -0.14480039642E+02 -0.43940468648E+01  0.10702751186E+02  0.18534510490E+02  0.51100000000E-03 0.  1.
        -12    1    3    3    0    0  0.10217219684E+02  0.13451098025E+02  0.83914767245E+01  0.18861084215E+02  0.00000000000E+00 0.  1.
</event>
<event>
 7    1  0.7313719E-013  0.5930194E+02  0.7816164E-02  0.1266605E+00
        -11   -1    0    0    0    0  0.00000000000E+00  0.00000000000E+00  0.45593999997E+02  0.45594000000E+02  0.51100000000E-03 0. -1.
         11   -1    0    0    0    0 -0.00000000000E+00 -0.00000000000E+00 -0.45593999997E+02  0.45594000000E+02  0.51100000000E-03 0.  1.
    9900012    2    1    2    0    0  0.20586662447E+02  0.20988546730E+02 -0.12344685073E+02  0.59301936993E+02  0.49999987170E+02 0.  0.
        -12    1    1    2    0    0 -0.20586662447E+02 -0.20988546730E+02  0.12344685073E+02  0.31886063007E+02  0.00000000000E+00 0.  1.
         11    1    3    3    0    0  0.11763974755E+02  0.16320921973E+02  0.91979538642E+01  0.22121617292E+02  0.51100000000E-03 0. -1.
        -11    1    3    3    0    0 -0.73082129909E+01  0.96116757174E+01 -0.37107083083E+01  0.12631850364E+02  0.51100000000E-03 0.  1.
         12    1    3    3    0    0  0.16130900684E+02 -0.49440509607E+01 -0.17831930629E+02  0.24548469336E+02  0.00000000000E+00 0. -1.
</event>
<event>
 7    1  0.7313719E-013  0.5930192E+02  0.7816164E-02  0.1266605E+00
        -11   -1    0    0    0    0  0.00000000000E+00  0.00000000000E+00  0.45593999997E+02  0.45594000000E+02  0.51100000000E-03 0.  1.
         11   -1    0    0    0    0 -0.00000000000E+00 -0.00000000000E+00 -0.45593999997E+02  0.45594000000E+02  0.51100000000E-03 0. -1.
    9900012    2    1    2    0    0  0.30991663841E+02 -0.63790862683E+00 -0.74720695406E+01  0.59301921874E+02  0.49999959597E+02 0.  0.
        -12    1    1    2    0    0 -0.30991663841E+02  0.63790862683E+00  0.74720695406E+01  0.31886078126E+02  0.00000000000E+00 0.  1.
         11    1    3    3    0    0  0.95579983000E+01 -0.18852603201E+02 -0.13522562257E+02  0.25092542104E+02  0.51100000000E-03 0. -1.
        -11    1    3    3    0    0  0.44881620007E+01 -0.29583058223E+01 -0.22809530798E+01  0.58393423171E+01  0.51100000000E-03 0.  1.
        -12    1    3    3    0    0  0.16945503540E+02  0.21173000397E+02  0.83314457967E+01  0.28370037453E+02  0.00000000000E+00 0.  1.
</event>
<event>
 7    1  0.7313719E-013  0.5930192E+02  0.7816164E-02  0.1266605E+00
        -11   -1    0    0    0    0  0.00000000000E+00  0.00000000000E+00  0.45593999997E+02  0.45594000000E+02  0.51100000000E-03 0.  1.
         11   -1    0    0    0    0 -0.00000000000E+00 -0.00000000000E+00 -0.45593999997E+02  0.45594000000E+02  0.51100000000E-03 0. -1.
    9900012    2    1    2    0    0  0.16865881513E+01 -0.77930517432E+01 -0.30873064024E+02  0.59301916558E+02  0.49999949901E+02 0.  0.
        -12    1    1    2    0    0 -0.16865881513E+01  0.77930517432E+01  0.30873064024E+02  0.31886083442E+02  0.00000000000E+00 0.  1.
         11    1    3    3    0    0  0.48558706520E+01 -0.10759349265E+02 -0.25846662055E+01  0.12084021518E+02  0.51100000000E-03 0. -1.
        -11    1    3    3    0    0 -0.15663008584E+02 -0.10474373114E+02 -0.10091890974E+02  0.21374952485E+02  0.51100000000E-03 0.  1.
        -12    1    3    3    0    0  0.12493726083E+02  0.13440670635E+02 -0.18196506844E+02  0.25842942555E+02  0.00000000000E+00 0.  1.
</event>
<event>
 7    1  0.7313719E-013  0.5930192E+02  0.7816164E-02  0.1266605E+00
        -11   -1    0    0    0    0  0.00000000000E+00  0.00000000000E+00  0.45593999997E+02  0.45594000000E+02  0.51100000000E-03 0.  1.
         11   -1    0    0    0    0 -0.00000000000E+00 -0.00000000000E+00 -0.45593999997E+02  0.45594000000E+02  0.51100000000E-03 0. -1.
    9900012    2    1    2    0    0 -0.22564975162E+02  0.13380736982E+02 -0.18124565052E+02  0.59301920207E+02  0.49999956556E+02 0.  0.
        -12    1    1    2    0    0  0.22564975162E+02 -0.13380736982E+02  0.18124565052E+02  0.31886079793E+02  0.00000000000E+00 0.  1.
         11    1    3    3    0    0 -0.29645267610E+02 -0.74177560999E+01 -0.24852190349E+01  0.30660093136E+02  0.51100000000E-03 0. -1.
        -11    1    3    3    0    0 -0.18401308199E+01  0.84732648610E+01 -0.43809160074E+01  0.97146654169E+01  0.51100000000E-03 0.  1.
        -12    1    3    3    0    0  0.89204232672E+01  0.12325228221E+02 -0.11258430010E+02  0.18927161654E+02  0.00000000000E+00 0.  1.
</event>
<event>
 7    1  0.7313719E-013  0.5930195E+02  0.7816164E-02  0.1266605E+00
        -11   -1    0    0    0    0  0.00000000000E+00  0.00000000000E+00  0.45593999997E+02  0.45594000000E+02  0.51100000000E-03 0. -1.
         11   -1    0    0    0    0 -0.00000000000E+00 -0.00000000000E+00 -0.45593999997E+02  0.45594000000E+02  0.51100000000E-03 0.  1.
    9900012    2    1    2    0    0 -0.19412887521E+02 -0.18807127416E+02 -0.16916032338E+02  0.59301946723E+02  0.50000004915E+02 0.  0.
        -12    1    1    2    0    0  0.19412887521E+02  0.18807127416E+02  0.16916032338E+02  0.31886053277E+02  0.00000000000E+00 0.  1.
         11    1    3    3    0    0 -0.27407134078E+02 -0.13584550296E+02 -0.14013378123E+02  0.33646185100E+02  0.51100000000E-03 0. -1.
        -11    1    3    3    0    0  0.45602364674E-01 -0.44518404194E+01 -0.12442227108E+02  0.13214763651E+02  0.51100000000E-03 0.  1.
        -12    1    3    3    0    0  0.79486441922E+01 -0.77073670144E+00  0.95395728931E+01  0.12440997972E+02  0.00000000000E+00 0.  1.
</event>
<event>
 7    1  0.7313719E-013  0.5930193E+02  0.7816164E-02  0.1266605E+00
        -11   -1    0    0    0    0  0.00000000000E+00  0.00000000000E+00  0.45593999997E+02  0.45594000000E+02  0.51100000000E-03 0. -1.
         11   -1    0    0    0    0 -0.00000000000E+00 -0.00000000000E+00 -0.45593999997E+02  0.45594000000E+02  0.51100000000E-03 0.  1.
    9900012    2    1    2    0    0  0.39122770309E+01 -0.30672320383E+02  0.77861416529E+01  0.59301934845E+02  0.49999983253E+02 0.  0.
        -12    1    1    2    0    0 -0.39122770309E+01  0.30672320383E+02 -0.77861416529E+01  0.31886065155E+02  0.00000000000E+00 0.  1.
         11    1    3    3    0    0 -0.55391020841E+01 -0.16581893001E+02  0.91527814749E+01  0.19733581439E+02  0.51100000000E-03 0. -1.
        -11    1    3    3    0    0 -0.11314386021E+02 -0.86418802987E+01 -0.89303996556E+01  0.16806232903E+02  0.51100000000E-03 0.  1.
        -12    1    3    3    0    0  0.20765765136E+02 -0.54485470827E+01  0.75637598336E+01  0.22762120503E+02  0.00000000000E+00 0.  1.
</event>
<event>
 7    1  0.7313719E-013  0.5930194E+02  0.7816164E-02  0.1266605E+00
        -11   -1    0    0    0    0  0.00000000000E+00  0.00000000000E+00  0.45593999997E+02  0.45594000000E+02  0.51100000000E-03 0.  1.
         11   -1    0    0    0    0 -0.00000000000E+00 -0.00000000000E+00 -0.45593999997E+02  0.45594000000E+02  0.51100000000E-03 0. -1.
    9900012    2    1    2    0    0 -0.12762578201E+02 -0.38664693157E+01 -0.28963563976E+02  0.59301936814E+02  0.49999986844E+02 0.  0.
        -12    1    1    2    0    0  0.12762578201E+02  0.38664693157E+01  0.28963563976E+02  0.31886063186E+02  0.00000000000E+00 0.  1.
         11    1    3    3    0    0 -0.10225717740E+02 -0.20604481206E+02 -0.17870219004E+02  0.29128245340E+02  0.51100000000E-03 0. -1.
        -11    1    3    3    0    0  0.90513823115E+01  0.23597802110E+01 -0.18993675616E+01  0.95448248695E+01  0.51100000000E-03 0.  1.
        -12    1    3    3    0    0 -0.11588242773E+02  0.14378231679E+02 -0.91939774105E+01  0.20628866605E+02  0.00000000000E+00 0.  1.
</event>
<event>
 7    1  0.7313719E-013  0.5930193E+02  0.7816164E-02  0.1266605E+00
        -11   -1    0    0    0    0  0.00000000000E+00  0.00000000000E+00  0.45593999997E+02  0.45594000000E+02  0.51100000000E-03 0. -1.
         11   -1    0    0    0    0 -0.00000000000E+00 -0.00000000000E+00 -0.45593999997E+02  0.45594000000E+02  0.51100000000E-03 0.  1.
    9900012    2    1    2    0    0 -0.31460596916E+02 -0.49666389516E+01  0.15116507010E+01  0.59301925474E+02  0.49999966163E+02 0.  0.
        -12    1    1    2    0    0  0.31460596916E+02  0.49666389516E+01 -0.15116507010E+01  0.31886074526E+02  0.00000000000E+00 0.  1.
         11    1    3    3    0    0  0.65038556290E+01 -0.13323640695E+02  0.35885922899E+00  0.14830654727E+02  0.51100000000E-03 0. -1.
        -11    1    3    3    0    0  0.11661254428E+01  0.46895710087E+01  0.18194405575E+01  0.51635539115E+01  0.51100000000E-03 0.  1.
        -12    1    3    3    0    0 -0.39130577988E+02  0.36674307347E+01 -0.66664908544E+00  0.39307716836E+02  0.00000000000E+00 0.  1.
</event>
<event>
 7    1  0.7313719E-013  0.5930194E+02  0.7816164E-02  0.1266605E+00
        -11   -1    0    0    0    0  0.00000000000E+00  0.00000000000E+00  0.45593999997E+02  0.45594000000E+02  0.51100000000E-03 0. -1.
         11   -1    0    0    0    0 -0.00000000000E+00 -0.00000000000E+00 -0.45593999997E+02  0.45594000000E+02  0.51100000000E-03 0.  1.
    9900012    2    1    2    0    0 -0.12331705992E+02  0.26189543874E+02  0.13370017523E+02  0.59301944277E+02  0.50000000455E+02 0.  0.
        -12    1    1    2    0    0  0.12331705992E+02 -0.26189543874E+02 -0.13370017523E+02  0.31886055723E+02  0.00000000000E+00 0.  1.
         11    1    3    3    0    0 -0.14160171592E+01 -0.34103608314E+01  0.13590673976E+01  0.39348100396E+01  0.51100000000E-03 0. -1.
        -11    1    3    3    0    0 -0.70980719575E+00  0.18294923857E+02  0.27891380205E+02  0.33363710153E+02  0.51100000000E-03 0.  1.
        -12    1    3    3    0    0 -0.10205881637E+02  0.11304980848E+02 -0.15880430079E+02  0.22003424085E+02  0.00000000000E+00 0.  1.
</event>
<event>
 7    1  0.7313719E-013  0.5930194E+02  0.7816164E-02  0.1266605E+00
        -11   -1    0    0    0    0  0.00000000000E+00  0.00000000000E+00  0.45593999997E+02  0.45594000000E+02  0.51100000000E-03 0.  1.
         11   -1    0    0    0    0 -0.00000000000E+00 -0.00000000000E+00 -0.45593999997E+02  0.45594000000E+02  0.51100000000E-03 0. -1.
    9900012    2    1    2    0    0  0.10382605312E+02  0.11595315842E+02 -0.27829318565E+02  0.59301940125E+02  0.49999992883E+02 0.  0.
        -12    1    1    2    0    0 -0.10382605312E+02 -0.11595315842E+02  0.27829318565E+02  0.31886059875E+02  0.00000000000E+00 0.  1.
         11    1    3    3    0    0  0.77940669561E+01 -0.47248838510E+01 -0.11625120836E+02  0.14772117040E+02  0.51100000000E-03 0. -1.
        -11    1    3    3    0    0  0.33441357910E+01 -0.78432120961E+01 -0.18375487717E+02  0.20257289287E+02  0.51100000000E-03 0.  1.
         12    1    3    3    0    0 -0.75559743489E+00  0.24163411789E+02  0.21712899879E+01  0.24272533798E+02  0.00000000000E+00 0. -1.
</event>
<event>
 7    1  0.7313719E-013  0.5930197E+02  0.7816164E-02  0.1266605E+00
        -11   -1    0    0    0    0  0.00000000000E+00  0.00000000000E+00  0.45593999997E+02  0.45594000000E+02  0.51100000000E-03 0.  1.
         11   -1    0    0    0    0 -0.00000000000E+00 -0.00000000000E+00 -0.45593999997E+02  0.45594000000E+02  0.51100000000E-03 0. -1.
    9900012    2    1    2    0    0 -0.23448828771E+02  0.56437106176E+01 -0.20857132310E+02  0.59301968443E+02  0.50000044527E+02 0.  0.
        -12    1    1    2    0    0  0.23448828771E+02 -0.56437106176E+01  0.20857132310E+02  0.31886031557E+02  0.00000000000E+00 0.  1.
         11    1    3    3    0    0 -0.80087620210E+01  0.51814634219E+00 -0.26376444547E+02  0.27570374897E+02  0.51100000000E-03 0. -1.
        -11    1    3    3    0    0  0.13061537454E+01 -0.59064248758E+01  0.95235433869E+01  0.11282276868E+02  0.51100000000E-03 0.  1.
         12    1    3    3    0    0 -0.16746220495E+02  0.11031989151E+02 -0.40042311498E+01  0.20449316678E+02  0.00000000000E+00 0. -1.
</event>
<event>
 7    1  0.7313719E-013  0.5930198E+02  0.7816164E-02  0.1266605E+00
        -11   -1    0    0    0    0  0.00000000000E+00  0.00000000000E+00  0.45593999997E+02  0.45594000000E+02  0.51100000000E-03 0.  1.
         11   -1    0    0    0    0 -0.00000000000E+00 -0.00000000000E+00 -0.45593999997E+02  0.45594000000E+02  0.51100000000E-03 0. -1.
    9900012    2    1    2    0    0  0.27212826919E+02 -0.12116954655E+02 -0.11373634167E+02  0.59301982796E+02  0.50000070703E+02 0.  0.
        -12    1    1    2    0    0 -0.27212826919E+02  0.12116954655E+02  0.11373634167E+02  0.31886017204E+02  0.00000000000E+00 0.  1.
         11    1    3    3    0    0 -0.61653681764E+01 -0.57185294879E+01 -0.10254203477E+02  0.13261298332E+02  0.51100000000E-03 0. -1.
        -11    1    3    3    0    0  0.10112309650E+02  0.11104652334E+02 -0.66161690162E+01  0.16411758060E+02  0.51100000000E-03 0.  1.
        -12    1    3    3    0    0  0.23265885445E+02 -0.17503077501E+02  0.54967383261E+01  0.29628926403E+02  0.00000000000E+00 0.  1.
</event>
<event>
 7    1  0.7313719E-013  0.5930195E+02  0.7816164E-02  0.1266605E+00
        -11   -1    0    0    0    0  0.00000000000E+00  0.00000000000E+00  0.45593999997E+02  0.45594000000E+02  0.51100000000E-03 0. -1.
         11   -1    0    0    0    0 -0.00000000000E+00 -0.00000000000E+00 -0.45593999997E+02  0.45594000000E+02  0.51100000000E-03 0.  1.
    9900012    2    1    2    0    0  0.16358372629E+02  0.27265746326E+02  0.23880560029E+01  0.59301951495E+02  0.50000013618E+02 0.  0.
        -12    1    1    2    0    0 -0.16358372629E+02 -0.27265746326E+02 -0.23880560029E+01  0.31886048505E+02  0.00000000000E+00 0.  1.
         11    1    3    3    0    0 -0.60596715322E+01  0.12196804441E+02 -0.57014128883E+01  0.14764408787E+02  0.51100000000E-03 0. -1.
        -11    1    3    3    0    0 -0.32179574357E+01  0.16660655044E+02 -0.16919905421E+01  0.17052727313E+02  0.51100000000E-03 0.  1.
        -12    1    3    3    0    0  0.25636001597E+02 -0.15917131587E+01  0.97814594333E+01  0.27484815395E+02  0.00000000000E+00 0.  1.
</event>
<event>
 7    1  0.7313719E-013  0.5930194E+02  0.7816164E-02  0.1266605E+00
        -11   -1    0    0    0    0  0.00000000000E+00  0.00000000000E+00  0.45593999997E+02  0.45594000000E+02  0.51100000000E-03 0. -1.
         11   -1    0    0    0    0 -0.00000000000E+00 -0.00000000000E+00 -0.45593999997E+02  0.45594000000E+02  0.51100000000E-03 0.  1.
    9900012    2    1    2    0    0  0.24215956155E+02  0.18873090349E+02 -0.86089918610E+01  0.59301940151E+02  0.49999992929E+02 0.  0.
        -12    1    1    2    0    0 -0.24215956155E+02 -0.18873090349E+02  0.86089918610E+01  0.31886059849E+02  0.00000000000E+00 0.  1.
         11    1    3    3    0    0 -0.76923715964E+01 -0.32033312582E+01  0.20651949536E+01  0.85848088147E+01  0.51100000000E-03 0.  1.
        -11    1    3    3    0    0  0.92743293136E+01  0.13860732425E+02  0.95969810050E+01  0.19241495063E+02  0.51100000000E-03 0. -1.
        -12    1    3    3    0    0  0.22633998438E+02  0.82156891825E+01 -0.20271167820E+02  0.31475636273E+02  0.00000000000E+00 0.  1.
</event>
<event>
 7    1  0.7313719E-013  0.5930189E+02  0.7816164E-02  0.1266605E+00
        -11   -1    0    0    0    0  0.00000000000E+00  0.00000000000E+00  0.45593999997E+02  0.45594000000E+02  0.51100000000E-03 0. -1.
         11   -1    0    0    0    0 -0.00000000000E+00 -0.00000000000E+00 -0.45593999997E+02  0.45594000000E+02  0.51100000000E-03 0.  1.
    9900012    2    1    2    0    0 -0.14470284772E+02 -0.28160047981E+02 -0.37876671985E+01  0.59301892265E+02  0.49999905597E+02 0.  0.
        -12    1    1    2    0    0  0.14470284772E+02  0.28160047981E+02  0.37876671985E+01  0.31886107735E+02  0.00000000000E+00 0.  1.
         11    1    3    3    0    0 -0.12791125255E+02 -0.20189008401E+02 -0.61557565143E+01  0.24679997650E+02  0.51100000000E-03 0. -1.
        -11    1    3    3    0    0 -0.40902491347E+01 -0.20682249040E+02 -0.14493934973E+01  0.21132588699E+02  0.51100000000E-03 0.  1.
        -12    1    3    3    0    0  0.24110896180E+01  0.12711209459E+02  0.38174828130E+01  0.13489305916E+02  0.00000000000E+00 0.  1.
</event>
<event>
 7    1  0.7313719E-013  0.5930197E+02  0.7816164E-02  0.1266605E+00
        -11   -1    0    0    0    0  0.00000000000E+00  0.00000000000E+00  0.45593999997E+02  0.45594000000E+02  0.51100000000E-03 0.  1.
         11   -1    0    0    0    0 -0.00000000000E+00 -0.00000000000E+00 -0.45593999997E+02  0.45594000000E+02  0.51100000000E-03 0. -1.
    9900012    2    1    2    0    0 -0.17297861983E+02  0.26703971493E+02 -0.20978713832E+01  0.59301965643E+02  0.50000039422E+02 0.  0.
        -12    1    1    2    0    0  0.17297861983E+02 -0.26703971493E+02  0.20978713832E+01  0.31886034357E+02  0.00000000000E+00 0.  1.
         11    1    3    3    0    0  0.29980403709E+01  0.26389621054E+02 -0.16552930997E+02  0.31295364997E+02  0.51100000000E-03 0. -1.
        -11    1    3    3    0    0 -0.10528530920E+02  0.42495491020E+01  0.17224781918E+01  0.11483708560E+02  0.51100000000E-03 0.  1.
        -12    1    3    3    0    0 -0.97673714335E+01 -0.39351986628E+01  0.12732581422E+02  0.16522892087E+02  0.00000000000E+00 0.  1.
</event>
<event>
 7    1  0.7313719E-013  0.5930195E+02  0.7816164E-02  0.1266605E+00
        -11   -1    0    0    0    0  0.00000000000E+00  0.00000000000E+00  0.45593999997E+02  0.45594000000E+02  0.51100000000E-03 0.  1.
         11   -1    0    0    0    0 -0.00000000000E+00 -0.00000000000E+00 -0.45593999997E+02  0.45594000000E+02  0.51100000000E-03 0. -1.
    9900012    2    1    2    0    0  0.88235439150E+01  0.12525794787E+02 -0.27963726137E+02  0.59301945968E+02  0.50000003538E+02 0.  0.
        -12    1    1    2    0    0 -0.88235439150E+01 -0.12525794787E+02  0.27963726137E+02  0.31886054032E+02  0.00000000000E+00 0.  1.
         11    1    3    3    0    0  0.42136193681E+01  0.38310971513E+01  0.75548844340E+01  0.94608758914E+01  0.51100000000E-03 0. -1.
        -11    1    3    3    0    0  0.68762763536E+01  0.16240970909E+02 -0.50143714082E+01  0.18335654705E+02  0.51100000000E-03 0.  1.
         12    1    3    3    0    0 -0.22663518066E+01 -0.75462732739E+01 -0.30504239163E+02  0.31505415372E+02  0.00000000000E+00 0. -1.
</event>
<event>
 7    1  0.7313719E-013  0.5930195E+02  0.7816164E-02  0.1266605E+00
        -11   -1    0    0    0    0  0.00000000000E+00  0.00000000000E+00  0.45593999997E+02  0.45594000000E+02  0.51100000000E-03 0.  1.
         11   -1    0    0    0    0 -0.00000000000E+00 -0.00000000000E+00 -0.45593999997E+02  0.45594000000E+02  0.51100000000E-03 0. -1.
    9900012    2    1    2    0    0  0.10709321203E+01 -0.30227297219E+02 -0.10093741558E+02  0.59301952716E+02  0.50000015845E+02 0.  0.
        -12    1    1    2    0    0 -0.10709321203E+01  0.30227297219E+02  0.10093741558E+02  0.31886047284E+02  0.00000000000E+00 0.  1.
         11    1    3    3    0    0  0.21565017753E+01 -0.72874607159E+01 -0.10303469143E+02  0.12803087918E+02  0.51100000000E-03 0. -1.
        -11    1    3    3    0    0 -0.15234680573E+02 -0.15840475214E+01  0.10838490892E+02  0.18763730541E+02  0.51100000000E-03 0.  1.
         12    1    3    3    0    0  0.14149110918E+02 -0.21355788982E+02 -0.10628763308E+02  0.27735134257E+02  0.00000000000E+00 0. -1.
</event>
<event>
 7    1  0.7313719E-013  0.5930154E+02  0.7816164E-02  0.1266606E+00
        -11   -1    0    0    0    0  0.00000000000E+00  0.00000000000E+00  0.45593999997E+02  0.45594000000E+02  0.51100000000E-03 0.  1.
         11   -1    0    0    0    0 -0.00000000000E+00 -0.00000000000E+00 -0.45593999997E+02  0.45594000000E+02  0.51100000000E-03 0. -1.
    9900012    2    1    2    0    0  0.13514005695E+02  0.21840660539E+02 -0.18897180140E+02  0.59301541747E+02  0.49999266330E+02 0.  0.
        -12    1    1    2    0    0 -0.13514005695E+02 -0.21840660539E+02  0.18897180140E+02  0.31886458253E+02  0.00000000000E+00 0.  1.
         11    1    3    3    0    0 -0.49451471081E+00  0.19872020865E+02 -0.17765000437E+02  0.26659651138E+02  0.51100000000E-03 0. -1.
        -11    1    3    3    0    0  0.15299789497E+02  0.13375866693E+02 -0.42155335900E+01  0.20754953437E+02  0.51100000000E-03 0.  1.
         12    1    3    3    0    0 -0.12912690907E+01 -0.11407227019E+02  0.30833538867E+01  0.11886937172E+02  0.00000000000E+00 0. -1.
</event>
<event>
 7    1  0.7313719E-013  0.5930201E+02  0.7816164E-02  0.1266605E+00
        -11   -1    0    0    0    0  0.00000000000E+00  0.00000000000E+00  0.45593999997E+02  0.45594000000E+02  0.51100000000E-03 0.  1.
         11   -1    0    0    0    0 -0.00000000000E+00 -0.00000000000E+00 -0.45593999997E+02  0.45594000000E+02  0.51100000000E-03 0. -1.
    9900012    2    1    2    0    0 -0.18817395049E+02  0.23877349004E+02 -0.96173946421E+01  0.59302008850E+02  0.50000118221E+02 0.  0.
        -12    1    1    2    0    0  0.18817395049E+02 -0.23877349004E+02  0.96173946421E+01  0.31885991150E+02  0.00000000000E+00 0.  1.
         11    1    3    3    0    0  0.21319240182E+01 -0.56141463435E+01 -0.11219734515E+02  0.12725807716E+02  0.51100000000E-03 0. -1.
        -11    1    3    3    0    0  0.25044254332E+01 -0.41134100064E+01 -0.24373248362E+01  0.53974847151E+01  0.51100000000E-03 0.  1.
         12    1    3    3    0    0 -0.23453744500E+02  0.33604905354E+02  0.40396647090E+01  0.41178716419E+02  0.00000000000E+00 0. -1.
</event>
<event>
 7    1  0.7313719E-013  0.5930194E+02  0.7816164E-02  0.1266605E+00
        -11   -1    0    0    0    0  0.00000000000E+00  0.00000000000E+00  0.45593999997E+02  0.45594000000E+02  0.51100000000E-03 0.  1.
         11   -1    0    0    0    0 -0.00000000000E+00 -0.00000000000E+00 -0.45593999997E+02  0.45594000000E+02  0.51100000000E-03 0. -1.
    9900012    2    1    2    0    0 -0.75807123249E+01 -0.27122369751E+02 -0.14954283763E+02  0.59301941242E+02  0.49999994919E+02 0.  0.
        -12    1    1    2    0    0  0.75807123249E+01  0.27122369751E+02  0.14954283763E+02  0.31886058758E+02  0.00000000000E+00 0.  1.
         11    1    3    3    0    0 -0.15057163316E+01 -0.10793949267E+02  0.15639870690E+01  0.11010112546E+02  0.51100000000E-03 0. -1.
        -11    1    3    3    0    0  0.33538826499E-01  0.12949846106E+02  0.20160255261E+01  0.13105876476E+02  0.51100000000E-03 0.  1.
         12    1    3    3    0    0 -0.61085348198E+01 -0.29278266590E+02 -0.18534296358E+02  0.35185952220E+02  0.00000000000E+00 0. -1.
</event>
<event>
 7    1  0.7313719E-013  0.5930196E+02  0.7816164E-02  0.1266605E+00
        -11   -1    0    0    0    0  0.00000000000E+00  0.00000000000E+00  0.45593999997E+02  0.45594000000E+02  0.51100000000E-03 0. -1.
         11   -1    0    0    0    0 -0.00000000000E+00 -0.00000000000E+00 -0.45593999997E+02  0.45594000000E+02  0.51100000000E-03 0.  1.
    9900012    2    1    2    0    0 -0.81981818097E+01  0.68976483493E+01  0.30032178426E+02  0.59301961068E+02  0.50000031078E+02 0.  0.
        -12    1    1    2    0    0  0.81981818097E+01 -0.68976483493E+01 -0.30032178426E+02  0.31886038932E+02  0.00000000000E+00 0.  1.
         11    1    3    3    0    0 -0.16612111294E+00  0.19144000477E+01  0.27641528354E+02  0.27708240900E+02  0.51100000000E-03 0. -1.
        -11    1    3    3    0    0 -0.50910448006E+01 -0.99803352847E+00  0.15794187158E+02  0.16624414466E+02  0.51100000000E-03 0.  1.
        -12    1    3    3    0    0 -0.29410158962E+01  0.59812818301E+01 -0.13403537085E+02  0.14969305703E+02  0.00000000000E+00 0.  1.
</event>
<event>
 7    1  0.7313719E-013  0.5930197E+02  0.7816164E-02  0.1266605E+00
        -11   -1    0    0    0    0  0.00000000000E+00  0.00000000000E+00  0.45593999997E+02  0.45594000000E+02  0.51100000000E-03 0.  1.
         11   -1    0    0    0    0 -0.00000000000E+00 -0.00000000000E+00 -0.45593999997E+02  0.45594000000E+02  0.51100000000E-03 0. -1.
    9900012    2    1    2    0    0  0.62486551202E+01  0.29336119370E+02  0.10819671281E+02  0.59301970502E+02  0.50000048283E+02 0.  0.
        -12    1    1    2    0    0 -0.62486551202E+01 -0.29336119370E+02 -0.10819671281E+02  0.31886029498E+02  0.00000000000E+00 0.  1.
         11    1    3    3    0    0 -0.97512503483E+01  0.17160302917E+00  0.31109856152E+01  0.10236921545E+02  0.51100000000E-03 0.  1.
        -11    1    3    3    0    0 -0.84110973245E+00  0.16197205411E+02 -0.11923896986E+02  0.20130480578E+02  0.51100000000E-03 0. -1.
         12    1    3    3    0    0  0.16841015201E+02  0.12967310930E+02  0.19632582651E+02  0.28934568379E+02  0.00000000000E+00 0. -1.
</event>
<event>
 7    1  0.7313719E-013  0.5930192E+02  0.7816164E-02  0.1266605E+00
        -11   -1    0    0    0    0  0.00000000000E+00  0.00000000000E+00  0.45593999997E+02  0.45594000000E+02  0.51100000000E-03 0.  1.
         11   -1    0    0    0    0 -0.00000000000E+00 -0.00000000000E+00 -0.45593999997E+02  0.45594000000E+02  0.51100000000E-03 0. -1.
    9900012    2    1    2    0    0  0.31266675101E+02 -0.23811857087E+01 -0.57833470895E+01  0.59301919638E+02  0.49999955519E+02 0.  0.
        -12    1    1    2    0    0 -0.31266675101E+02  0.23811857087E+01  0.57833470895E+01  0.31886080362E+02  0.00000000000E+00 0.  1.
         11    1    3    3    0    0  0.19201400833E+02 -0.15362695232E+02  0.11332283025E+01  0.24616872372E+02  0.51100000000E-03 0. -1.
        -11    1    3    3    0    0  0.18332471688E+01 -0.90969716999E+01 -0.42447886862E+01  0.10204602910E+02  0.51100000000E-03 0.  1.
        -12    1    3    3    0    0  0.10232027100E+02  0.22078481223E+02 -0.26717867058E+01  0.24480444357E+02  0.00000000000E+00 0.  1.
</event>
<event>
 7    1  0.7313719E-013  0.5930194E+02  0.7816164E-02  0.1266605E+00
        -11   -1    0    0    0    0  0.00000000000E+00  0.00000000000E+00  0.45593999997E+02  0.45594000000E+02  0.51100000000E-03 0.  1.
         11   -1    0    0    0    0 -0.00000000000E+00 -0.00000000000E+00 -0.45593999997E+02  0.45594000000E+02  0.51100000000E-03 0. -1.
    9900012    2    1    2    0    0  0.65126580495E+01 -0.30856469138E+02  0.47100117143E+01  0.59301943284E+02  0.49999998644E+02 0.  0.
        -12    1    1    2    0    0 -0.65126580495E+01  0.30856469138E+02 -0.47100117143E+01  0.31886056716E+02  0.00000000000E+00 0.  1.
         11    1    3    3    0    0 -0.13570743965E+02  0.22206874675E+01  0.22713175950E+00  0.13753113600E+02  0.51100000000E-03 0. -1.
        -11    1    3    3    0    0  0.56178834594E+01 -0.94234849687E+01  0.12553388839E+02  0.16671840184E+02  0.51100000000E-03 0.  1.
         12    1    3    3    0    0  0.14465518555E+02 -0.23653671637E+02 -0.80705088841E+01  0.28876989501E+02  0.00000000000E+00 0. -1.
</event>
<event>
 7    1  0.7313719E-013  0.5930193E+02  0.7816164E-02  0.1266605E+00
        -11   -1    0    0    0    0  0.00000000000E+00  0.00000000000E+00  0.45593999997E+02  0.45594000000E+02  0.51100000000E-03 0. -1.
         11   -1    0    0    0    0 -0.00000000000E+00 -0.00000000000E+00 -0.45593999997E+02  0.45594000000E+02  0.51100000000E-03 0.  1.
    9900012    2    1    2    0    0 -0.26862541745E+02  0.61612793844E+01  0.16036333312E+02  0.59301929393E+02  0.49999973310E+02 0.  0.
        -12    1    1    2    0    0  0.26862541745E+02 -0.61612793844E+01 -0.16036333312E+02  0.31886070607E+02  0.00000000000E+00 0.  1.
         11    1    3    3    0    0 -0.98113471559E+01  0.15696788308E+02  0.13705567044E+02  0.23032461103E+02  0.51100000000E-03 0. -1.
        -11    1    3    3    0    0 -0.22407979608E+02  0.21009518822E+01 -0.23550022444E+01  0.22629131330E+02  0.51100000000E-03 0.  1.
         12    1    3    3    0    0  0.53567850190E+01 -0.11636460806E+02  0.46857685128E+01  0.13640336960E+02  0.00000000000E+00 0. -1.
</event>
<event>
 7    1  0.7313719E-013  0.5930194E+02  0.7816164E-02  0.1266605E+00
        -11   -1    0    0    0    0  0.00000000000E+00  0.00000000000E+00  0.45593999997E+02  0.45594000000E+02  0.51100000000E-03 0.  1.
         11   -1    0    0    0    0 -0.00000000000E+00 -0.00000000000E+00 -0.45593999997E+02  0.45594000000E+02  0.51100000000E-03 0. -1.
    9900012    2    1    2    0    0 -0.19171022709E+02  0.23850868165E+02 -0.89626434085E+01  0.59301937202E+02  0.49999987551E+02 0.  0.
        -12    1    1    2    0    0  0.19171022709E+02 -0.23850868165E+02  0.89626434085E+01  0.31886062798E+02  0.00000000000E+00 0.  1.
         11    1    3    3    0    0  0.63957310829E+01  0.26905683713E+02 -0.97729409119E+01  0.29331409214E+02  0.51100000000E-03 0. -1.
        -11    1    3    3    0    0  0.94791764297E+00 -0.33058608492E+01  0.26119005455E+00  0.34489830846E+01  0.51100000000E-03 0.  1.
        -12    1    3    3    0    0 -0.26514671435E+02  0.25104530055E+00  0.54910744889E+00  0.26521544903E+02  0.00000000000E+00 0.  1.
</event>
<event>
 7    1  0.7313719E-013  0.5930196E+02  0.7816164E-02  0.1266605E+00
        -11   -1    0    0    0    0  0.00000000000E+00  0.00000000000E+00  0.45593999997E+02  0.45594000000E+02  0.51100000000E-03 0.  1.
         11   -1    0    0    0    0 -0.00000000000E+00 -0.00000000000E+00 -0.45593999997E+02  0.45594000000E+02  0.51100000000E-03 0. -1.
    9900012    2    1    2    0    0  0.21024814039E+01  0.16176585552E+02 -0.27397393913E+02  0.59301960086E+02  0.50000029287E+02 0.  0.
        -12    1    1    2    0    0 -0.21024814039E+01 -0.16176585552E+02  0.27397393913E+02  0.31886039914E+02  0.00000000000E+00 0.  1.
         11    1    3    3    0    0  0.40304104600E+01 -0.12245645913E+01  0.10519366266E+02  0.11331409172E+02  0.51100000000E-03 0. -1.
        -11    1    3    3    0    0 -0.12069247082E+02  0.84107614858E+01 -0.13118084630E+02  0.19710194787E+02  0.51100000000E-03 0.  1.
         12    1    3    3    0    0  0.10141318026E+02  0.89903886578E+01 -0.24798675548E+02  0.28260356128E+02  0.00000000000E+00 0. -1.
</event>
<event>
 7    1  0.7313719E-013  0.5930195E+02  0.7816164E-02  0.1266605E+00
        -11   -1    0    0    0    0  0.00000000000E+00  0.00000000000E+00  0.45593999997E+02  0.45594000000E+02  0.51100000000E-03 0.  1.
         11   -1    0    0    0    0 -0.00000000000E+00 -0.00000000000E+00 -0.45593999997E+02  0.45594000000E+02  0.51100000000E-03 0. -1.
    9900012    2    1    2    0    0 -0.28344741695E+02 -0.37175918530E+01 -0.14123573570E+02  0.59301949737E+02  0.50000010413E+02 0.  0.
        -12    1    1    2    0    0  0.28344741695E+02  0.37175918530E+01  0.14123573570E+02  0.31886050263E+02  0.00000000000E+00 0.  1.
         11    1    3    3    0    0 -0.24670981930E+02  0.12697762268E+02 -0.99773556388E+01  0.29486236481E+02  0.51100000000E-03 0. -1.
        -11    1    3    3    0    0  0.31818053664E+01  0.48433041990E+01 -0.47164566410E+01  0.74717096077E+01  0.51100000000E-03 0.  1.
         12    1    3    3    0    0 -0.68555651317E+01 -0.21258658320E+02  0.57023870989E+00  0.22344003649E+02  0.00000000000E+00 0. -1.
</event>
<event>
 7    1  0.7313719E-013  0.5930195E+02  0.7816164E-02  0.1266605E+00
        -11   -1    0    0    0    0  0.00000000000E+00  0.00000000000E+00  0.45593999997E+02  0.45594000000E+02  0.51100000000E-03 0.  1.
         11   -1    0    0    0    0 -0.00000000000E+00 -0.00000000000E+00 -0.45593999997E+02  0.45594000000E+02  0.51100000000E-03 0. -1.
    9900012    2    1    2    0    0 -0.28483792253E+02  0.33032999415E+01 -0.13945672741E+02  0.59301952898E+02  0.50000016177E+02 0.  0.
        -12    1    1    2    0    0  0.28483792253E+02 -0.33032999415E+01  0.13945672741E+02  0.31886047102E+02  0.00000000000E+00 0.  1.
         11    1    3    3    0    0 -0.13473687723E+02 -0.20486789135E+01 -0.57504927350E+01  0.14792076024E+02  0.51100000000E-03 0. -1.
        -11    1    3    3    0    0 -0.89237223108E+01 -0.17142058064E+02  0.12487713070E+01  0.19366011582E+02  0.51100000000E-03 0.  1.
        -12    1    3    3    0    0 -0.60863822190E+01  0.22494036919E+02 -0.94439513134E+01  0.25143865292E+02  0.00000000000E+00 0.  1.
</event>
<event>
 7    1  0.7313719E-013  0.5930193E+02  0.7816164E-02  0.1266605E+00
        -11   -1    0    0    0    0  0.00000000000E+00  0.00000000000E+00  0.45593999997E+02  0.45594000000E+02  0.51100000000E-03 0. -1.
         11   -1    0    0    0    0 -0.00000000000E+00 -0.00000000000E+00 -0.45593999997E+02  0.45594000000E+02  0.51100000000E-03 0.  1.
    9900012    2    1    2    0    0  0.18103941156E+02  0.36768095670E+01  0.25989423602E+02  0.59301925404E+02  0.49999966034E+02 0.  0.
        -12    1    1    2    0    0 -0.18103941156E+02 -0.36768095670E+01 -0.25989423602E+02  0.31886074596E+02  0.00000000000E+00 0.  1.
         11    1    3    3    0    0  0.17494141941E+02 -0.68539499610E+01  0.32099614901E+02  0.37194178434E+02  0.51100000000E-03 0. -1.
        -11    1    3    3    0    0  0.55074273746E+01 -0.32512974159E+01 -0.33621460659E+01  0.72254216211E+01  0.51100000000E-03 0.  1.
        -12    1    3    3    0    0 -0.48976281593E+01  0.13782056944E+02 -0.27480452325E+01  0.14882325349E+02  0.00000000000E+00 0.  1.
</event>
<event>
 7    1  0.7313719E-013  0.5930218E+02  0.7816164E-02  0.1266604E+00
        -11   -1    0    0    0    0  0.00000000000E+00  0.00000000000E+00  0.45593999997E+02  0.45594000000E+02  0.51100000000E-03 0.  1.
         11   -1    0    0    0    0 -0.00000000000E+00 -0.00000000000E+00 -0.45593999997E+02  0.45594000000E+02  0.51100000000E-03 0. -1.
    9900012    2    1    2    0    0  0.19227264691E+02 -0.23882766178E+02  0.87539161853E+01  0.59302183774E+02  0.50000437238E+02 0.  0.
        -12    1    1    2    0    0 -0.19227264691E+02  0.23882766178E+02 -0.87539161853E+01  0.31885816226E+02  0.00000000000E+00 0.  1.
         11    1    3    3    0    0 -0.52265381762E+01 -0.14117067965E+02 -0.21744296684E+01  0.15209748646E+02  0.51100000000E-03 0. -1.
        -11    1    3    3    0    0 -0.96268824059E+00 -0.16214064940E+02  0.65216750589E+01  0.17502997354E+02  0.51100000000E-03 0.  1.
         12    1    3    3    0    0  0.25416491107E+02  0.64483667270E+01  0.44066707948E+01  0.26589437774E+02  0.00000000000E+00 0. -1.
</event>
<event>
 7    1  0.7313719E-013  0.5930195E+02  0.7816164E-02  0.1266605E+00
        -11   -1    0    0    0    0  0.00000000000E+00  0.00000000000E+00  0.45593999997E+02  0.45594000000E+02  0.51100000000E-03 0. -1.
         11   -1    0    0    0    0 -0.00000000000E+00 -0.00000000000E+00 -0.45593999997E+02  0.45594000000E+02  0.51100000000E-03 0.  1.
    9900012    2    1    2    0    0  0.30908247253E+02 -0.47737427178E+01 -0.62138420691E+01  0.59301949742E+02  0.50000010422E+02 0.  0.
        -12    1    1    2    0    0 -0.30908247253E+02  0.47737427178E+01  0.62138420691E+01  0.31886050258E+02  0.00000000000E+00 0.  1.
         11    1    3    3    0    0  0.59858905937E+01  0.30550463103E+01  0.97169321128E+01  0.11814523440E+02  0.51100000000E-03 0. -1.
        -11    1    3    3    0    0  0.10473427448E+02 -0.28527982639E+01  0.11670307048E+02  0.15938230996E+02  0.51100000000E-03 0.  1.
        -12    1    3    3    0    0  0.14448929211E+02 -0.49759907641E+01 -0.27601081230E+02  0.31549195306E+02  0.00000000000E+00 0.  1.
</event>
<event>
 7    1  0.7313719E-013  0.5930196E+02  0.7816164E-02  0.1266605E+00
        -11   -1    0    0    0    0  0.00000000000E+00  0.00000000000E+00  0.45593999997E+02  0.45594000000E+02  0.51100000000E-03 0.  1.
         11   -1    0    0    0    0 -0.00000000000E+00 -0.00000000000E+00 -0.45593999997E+02  0.45594000000E+02  0.51100000000E-03 0. -1.
    9900012    2    1    2    0    0 -0.22346791055E+02  0.22249568179E+02 -0.47219851336E+01  0.59301960763E+02  0.50000030522E+02 0.  0.
        -12    1    1    2    0    0  0.22346791055E+02 -0.22249568179E+02  0.47219851336E+01  0.31886039237E+02  0.00000000000E+00 0.  1.
         11    1    3    3    0    0 -0.52616383455E+01 -0.35763470219E+01  0.57934809036E+01  0.86046218593E+01  0.51100000000E-03 0. -1.
        -11    1    3    3    0    0  0.12306168278E+02  0.63367110325E+01 -0.62052892099E+01  0.15169090244E+02  0.51100000000E-03 0.  1.
         12    1    3    3    0    0 -0.29391320988E+02  0.19489204168E+02 -0.43101768273E+01  0.35528248660E+02  0.00000000000E+00 0. -1.
</event>
<event>
 7    1  0.7313719E-013  0.5930167E+02  0.7816164E-02  0.1266606E+00
        -11   -1    0    0    0    0  0.00000000000E+00  0.00000000000E+00  0.45593999997E+02  0.45594000000E+02  0.51100000000E-03 0. -1.
         11   -1    0    0    0    0 -0.00000000000E+00 -0.00000000000E+00 -0.45593999997E+02  0.45594000000E+02  0.51100000000E-03 0.  1.
    9900012    2    1    2    0    0 -0.27293802820E+02  0.76007999221E+01  0.14629226865E+02  0.59301668908E+02  0.49999498245E+02 0.  0.
        -12    1    1    2    0    0  0.27293802820E+02 -0.76007999221E+01 -0.14629226865E+02  0.31886331092E+02  0.00000000000E+00 0.  1.
         11    1    3    3    0    0 -0.35722216805E+02  0.72872560979E+01  0.10082942537E+02  0.37826533086E+02  0.51100000000E-03 0. -1.
        -11    1    3    3    0    0 -0.57171258452E+01  0.31841931993E+01  0.11049256360E+01  0.66366765164E+01  0.51100000000E-03 0.  1.
         12    1    3    3    0    0  0.14145539829E+02 -0.28706493751E+01  0.34413586922E+01  0.14838459305E+02  0.00000000000E+00 0. -1.
</event>
<event>
 7    1  0.7313719E-013  0.5930192E+02  0.7816164E-02  0.1266605E+00
        -11   -1    0    0    0    0  0.00000000000E+00  0.00000000000E+00  0.45593999997E+02  0.45594000000E+02  0.51100000000E-03 0. -1.
         11   -1    0    0    0    0 -0.00000000000E+00 -0.00000000000E+00 -0.45593999997E+02  0.45594000000E+02  0.51100000000E-03 0.  1.
    9900012    2    1    2    0    0  0.10048387210E+02  0.18245965613E+02  0.24142012084E+02  0.59301920057E+02  0.49999956283E+02 0.  0.
        -12    1    1    2    0    0 -0.10048387210E+02 -0.18245965613E+02 -0.24142012084E+02  0.31886079943E+02  0.00000000000E+00 0.  1.
         11    1    3    3    0    0  0.99877524742E+01 -0.74303671104E+01  0.11470073104E+02  0.16927141878E+02  0.51100000000E-03 0. -1.
        -11    1    3    3    0    0  0.57434736487E+01  0.60492630025E+01  0.19192104887E+02  0.20926489498E+02  0.51100000000E-03 0.  1.
        -12    1    3    3    0    0 -0.56828389131E+01  0.19627069721E+02 -0.65201659069E+01  0.21448288682E+02  0.00000000000E+00 0.  1.
</event>
<event>
 7    1  0.7313719E-013  0.5930194E+02  0.7816164E-02  0.1266605E+00
        -11   -1    0    0    0    0  0.00000000000E+00  0.00000000000E+00  0.45593999997E+02  0.45594000000E+02  0.51100000000E-03 0. -1.
         11   -1    0    0    0    0 -0.00000000000E+00 -0.00000000000E+00 -0.45593999997E+02  0.45594000000E+02  0.51100000000E-03 0.  1.
    9900012    2    1    2    0    0  0.25497079825E+02  0.18989786345E+02  0.24511159279E+01  0.59301936675E+02  0.49999986591E+02 0.  0.
        -12    1    1    2    0    0 -0.25497079825E+02 -0.18989786345E+02 -0.24511159279E+01  0.31886063325E+02  0.00000000000E+00 0.  1.
         11    1    3    3    0    0  0.13913943206E+02  0.12282955318E+02  0.13907912102E+02  0.23192645950E+02  0.51100000000E-03 0. -1.
        -11    1    3    3    0    0 -0.25553647620E+01 -0.15158923952E+01  0.92538404414E+01  0.97191245489E+01  0.51100000000E-03 0.  1.
        -12    1    3    3    0    0  0.14138501381E+02  0.82227234226E+01 -0.20710636616E+02  0.26390166176E+02  0.00000000000E+00 0.  1.
</event>
<event>
 7    1  0.7313719E-013  0.5930194E+02  0.7816164E-02  0.1266605E+00
        -11   -1    0    0    0    0  0.00000000000E+00  0.00000000000E+00  0.45593999997E+02  0.45594000000E+02  0.51100000000E-03 0.  1.
         11   -1    0    0    0    0 -0.00000000000E+00 -0.00000000000E+00 -0.45593999997E+02  0.45594000000E+02  0.51100000000E-03 0. -1.
    9900012    2    1    2    0    0 -0.88539835725E+01 -0.29872997750E+02 -0.67772848718E+01  0.59301943331E+02  0.49999998729E+02 0.  0.
        -12    1    1    2    0    0  0.88539835725E+01  0.29872997750E+02  0.67772848718E+01  0.31886056669E+02  0.00000000000E+00 0.  1.
         11    1    3    3    0    0  0.56455510407E+01 -0.23284477731E+02 -0.13183120665E+02  0.27346550432E+02  0.51100000000E-03 0. -1.
        -11    1    3    3    0    0 -0.22451493039E+02 -0.47271788269E+01  0.31311270841E+01  0.23156418472E+02  0.51100000000E-03 0.  1.
         12    1    3    3    0    0  0.79519584262E+01 -0.18613411920E+01  0.32747087091E+01  0.87989744274E+01  0.00000000000E+00 0. -1.
</event>
<event>
 7    1  0.7313719E-013  0.5930195E+02  0.7816164E-02  0.1266605E+00
        -11   -1    0    0    0    0  0.00000000000E+00  0.00000000000E+00  0.45593999997E+02  0.45594000000E+02  0.51100000000E-03 0.  1.
         11   -1    0    0    0    0 -0.00000000000E+00 -0.00000000000E+00 -0.45593999997E+02  0.45594000000E+02  0.51100000000E-03 0. -1.
    9900012    2    1    2    0    0 -0.24894256350E+02  0.81278641763E+01 -0.18191587465E+02  0.59301952428E+02  0.50000015319E+02 0.  0.
        -12    1    1    2    0    0  0.24894256350E+02 -0.81278641763E+01  0.18191587465E+02  0.31886047572E+02  0.00000000000E+00 0.  1.
         11    1    3    3    0    0 -0.33588618154E+01  0.24981804925E+01  0.26904202133E+01  0.49760646754E+01  0.51100000000E-03 0.  1.
        -11    1    3    3    0    0 -0.12958725516E+02 -0.29295059752E+01  0.12850191223E+02  0.18483451706E+02  0.51100000000E-03 0. -1.
         12    1    3    3    0    0 -0.85766690193E+01  0.85591896590E+01 -0.33732198900E+02  0.35842436046E+02  0.00000000000E+00 0. -1.
</event>
<event>
 7    1  0.7313719E-013  0.5930196E+02  0.7816164E-02  0.1266605E+00
        -11   -1    0    0    0    0  0.00000000000E+00  0.00000000000E+00  0.45593999997E+02  0.45594000000E+02  0.51100000000E-03 0.  1.
         11   -1    0    0    0    0 -0.00000000000E+00 -0.00000000000E+00 -0.45593999997E+02  0.45594000000E+02  0.51100000000E-03 0. -1.
    9900012    2    1    2    0    0 -0.26905222033E+02  0.13742064388E+02  0.10197273021E+02  0.59301957860E+02  0.50000025227E+02 0.  0.
        -12    1    1    2    0    0  0.26905222033E+02 -0.13742064388E+02 -0.10197273021E+02  0.31886042140E+02  0.00000000000E+00 0.  1.
         11    1    3    3    0    0 -0.72528288341E+01 -0.33696679787E+01  0.40840948535E+01  0.89798674499E+01  0.51100000000E-03 0. -1.
        -11    1    3    3    0    0 -0.30423224465E+02  0.18762643236E+01  0.81532841023E+01  0.31552638504E+02  0.51100000000E-03 0.  1.
         12    1    3    3    0    0  0.10770831266E+02  0.15235468043E+02 -0.20401059350E+01  0.18769451906E+02  0.00000000000E+00 0. -1.
</event>
<event>
 7    1  0.7313719E-013  0.5930194E+02  0.7816164E-02  0.1266605E+00
        -11   -1    0    0    0    0  0.00000000000E+00  0.00000000000E+00  0.45593999997E+02  0.45594000000E+02  0.51100000000E-03 0.  1.
         11   -1    0    0    0    0 -0.00000000000E+00 -0.00000000000E+00 -0.45593999997E+02  0.45594000000E+02  0.51100000000E-03 0. -1.
    9900012    2    1    2    0    0 -0.31544094802E+02  0.24878046117E+01 -0.39371859865E+01  0.59301944707E+02  0.50000001239E+02 0.  0.
        -12    1    1    2    0    0  0.31544094802E+02 -0.24878046117E+01  0.39371859865E+01  0.31886055293E+02  0.00000000000E+00 0.  1.
         11    1    3    3    0    0 -0.22401190300E+02  0.10796465192E+02 -0.12109558000E+02  0.27658965684E+02  0.51100000000E-03 0. -1.
        -11    1    3    3    0    0 -0.75871463630E+01  0.71062008817E+01 -0.47868119219E+01  0.11444494289E+02  0.51100000000E-03 0.  1.
         12    1    3    3    0    0 -0.15557581391E+01 -0.15414861462E+02  0.12959183935E+02  0.20198484734E+02  0.00000000000E+00 0. -1.
</event>
<event>
 7    1  0.7313719E-013  0.5930194E+02  0.7816164E-02  0.1266605E+00
        -11   -1    0    0    0    0  0.00000000000E+00  0.00000000000E+00  0.45593999997E+02  0.45594000000E+02  0.51100000000E-03 0. -1.
         11   -1    0    0    0    0 -0.00000000000E+00 -0.00000000000E+00 -0.45593999997E+02  0.45594000000E+02  0.51100000000E-03 0.  1.
    9900012    2    1    2    0    0  0.25185974653E+02  0.61969834040E+01  0.18546837228E+02  0.59301935745E+02  0.49999984894E+02 0.  0.
        -12    1    1    2    0    0 -0.25185974653E+02 -0.61969834040E+01 -0.18546837228E+02  0.31886064255E+02  0.00000000000E+00 0.  1.
         11    1    3    3    0    0 -0.52325307661E+01  0.38371779691E+00  0.22157541610E+01  0.56952773707E+01  0.51100000000E-03 0. -1.
        -11    1    3    3    0    0 -0.51898925256E+01 -0.77892166956E+01  0.12036523034E+02  0.15247451203E+02  0.51100000000E-03 0.  1.
         12    1    3    3    0    0  0.35608397944E+02  0.13602482303E+02  0.42945600329E+01  0.38359207171E+02  0.00000000000E+00 0. -1.
</event>
<event>
 7    1  0.7313719E-013  0.5930193E+02  0.7816164E-02  0.1266605E+00
        -11   -1    0    0    0    0  0.00000000000E+00  0.00000000000E+00  0.45593999997E+02  0.45594000000E+02  0.51100000000E-03 0.  1.
         11   -1    0    0    0    0 -0.00000000000E+00 -0.00000000000E+00 -0.45593999997E+02  0.45594000000E+02  0.51100000000E-03 0. -1.
    9900012    2    1    2    0    0 -0.23733707866E+02 -0.61509442262E+01 -0.20386233206E+02  0.59301929244E+02  0.49999973038E+02 0.  0.
        -12    1    1    2    0    0  0.23733707866E+02  0.61509442262E+01  0.20386233206E+02  0.31886070756E+02  0.00000000000E+00 0.  1.
         11    1    3    3    0    0 -0.11967884645E+02 -0.91604525366E+01 -0.18765408503E+02  0.24068334178E+02  0.51100000000E-03 0. -1.
        -11    1    3    3    0    0 -0.10726179479E+02 -0.88471353286E+01 -0.12804323792E+02  0.18901678173E+02  0.51100000000E-03 0.  1.
        -12    1    3    3    0    0 -0.10396437419E+01  0.11856643639E+02  0.11183499089E+02  0.16331916892E+02  0.00000000000E+00 0.  1.
</event>
<event>
 7    1  0.7313719E-013  0.5930194E+02  0.7816164E-02  0.1266605E+00
        -11   -1    0    0    0    0  0.00000000000E+00  0.00000000000E+00  0.45593999997E+02  0.45594000000E+02  0.51100000000E-03 0.  1.
         11   -1    0    0    0    0 -0.00000000000E+00 -0.00000000000E+00 -0.45593999997E+02  0.45594000000E+02  0.51100000000E-03 0. -1.
    9900012    2    1    2    0    0 -0.24889294894E+02  0.77625712507E+01  0.18357182280E+02  0.59301942640E+02  0.49999997468E+02 0.  0.
        -12    1    1    2    0    0  0.24889294894E+02 -0.77625712507E+01 -0.18357182280E+02  0.31886057360E+02  0.00000000000E+00 0.  1.
         11    1    3    3    0    0 -0.24379889542E+02  0.16790595807E+01  0.71867749513E+01  0.25472494767E+02  0.51100000000E-03 0. -1.
        -11    1    3    3    0    0 -0.14791662621E+02 -0.28090991244E+01  0.62356270957E+01  0.16296237802E+02  0.51100000000E-03 0.  1.
        -12    1    3    3    0    0  0.14282257269E+02  0.88926107943E+01  0.49347802330E+01  0.17533210071E+02  0.00000000000E+00 0.  1.
</event>
<event>
 7    1  0.7313719E-013  0.5930199E+02  0.7816164E-02  0.1266605E+00
        -11   -1    0    0    0    0  0.00000000000E+00  0.00000000000E+00  0.45593999997E+02  0.45594000000E+02  0.51100000000E-03 0.  1.
         11   -1    0    0    0    0 -0.00000000000E+00 -0.00000000000E+00 -0.45593999997E+02  0.45594000000E+02  0.51100000000E-03 0. -1.
    9900012    2    1    2    0    0  0.28717075040E+02  0.52535375643E+01 -0.12823723190E+02  0.59301985319E+02  0.50000075305E+02 0.  0.
        -12    1    1    2    0    0 -0.28717075040E+02 -0.52535375643E+01  0.12823723190E+02  0.31886014681E+02  0.00000000000E+00 0.  1.
         11    1    3    3    0    0  0.11790137823E+01  0.51655230617E+01 -0.23773942193E+02  0.24357196671E+02  0.51100000000E-03 0. -1.
        -11    1    3    3    0    0  0.13065449487E+01 -0.54188751449E+01 -0.88642349988E+00  0.56442018409E+01  0.51100000000E-03 0.  1.
        -12    1    3    3    0    0  0.26231516309E+02  0.55068896475E+01  0.11836642503E+02  0.29300586807E+02  0.00000000000E+00 0.  1.
</event>
<event>
 7    1  0.7313719E-013  0.5930192E+02  0.7816164E-02  0.1266605E+00
        -11   -1    0    0    0    0  0.00000000000E+00  0.00000000000E+00  0.45593999997E+02  0.45594000000E+02  0.51100000000E-03 0.  1.
         11   -1    0    0    0    0 -0.00000000000E+00 -0.00000000000E+00 -0.45593999997E+02  0.45594000000E+02  0.51100000000E-03 0. -1.
    9900012    2    1    2    0    0 -0.19193845754E+02 -0.20239423296E+02 -0.15449414163E+02  0.59301915760E+02  0.49999948447E+02 0.  0.
        -12    1    1    2    0    0  0.19193845754E+02  0.20239423296E+02  0.15449414163E+02  0.31886084240E+02  0.00000000000E+00 0.  1.
         11    1    3    3    0    0  0.20729184367E+01  0.83112016574E+01 -0.24976182312E+01  0.89225086677E+01  0.51100000000E-03 0. -1.
        -11    1    3    3    0    0  0.56699382602E+01  0.36157392077E+01 -0.20613291363E+01  0.70335515895E+01  0.51100000000E-03 0.  1.
        -12    1    3    3    0    0 -0.26936702451E+02 -0.32166364161E+02 -0.10890466795E+02  0.43345855503E+02  0.00000000000E+00 0.  1.
</event>
<event>
 7    1  0.7313719E-013  0.5930199E+02  0.7816164E-02  0.1266605E+00
        -11   -1    0    0    0    0  0.00000000000E+00  0.00000000000E+00  0.45593999997E+02  0.45594000000E+02  0.51100000000E-03 0.  1.
         11   -1    0    0    0    0 -0.00000000000E+00 -0.00000000000E+00 -0.45593999997E+02  0.45594000000E+02  0.51100000000E-03 0. -1.
    9900012    2    1    2    0    0  0.30654761109E+02  0.25855356295E+01 -0.83855875730E+01  0.59301992848E+02  0.50000089037E+02 0.  0.
        -12    1    1    2    0    0 -0.30654761109E+02 -0.25855356295E+01  0.83855875730E+01  0.31886007152E+02  0.00000000000E+00 0.  1.
         11    1    3    3    0    0  0.24496086368E+01 -0.43681461593E+01 -0.50041737802E+01  0.70797626250E+01  0.51100000000E-03 0. -1.
        -11    1    3    3    0    0  0.91978269640E+01  0.11172421115E+02 -0.21307222192E+02  0.25756955027E+02  0.51100000000E-03 0.  1.
        -12    1    3    3    0    0  0.19007325508E+02 -0.42187393266E+01  0.17925808399E+02  0.26465275197E+02  0.00000000000E+00 0.  1.
</event>
<event>
 7    1  0.7313719E-013  0.5930194E+02  0.7816164E-02  0.1266605E+00
        -11   -1    0    0    0    0  0.00000000000E+00  0.00000000000E+00  0.45593999997E+02  0.45594000000E+02  0.51100000000E-03 0.  1.
         11   -1    0    0    0    0 -0.00000000000E+00 -0.00000000000E+00 -0.45593999997E+02  0.45594000000E+02  0.51100000000E-03 0. -1.
    9900012    2    1    2    0    0  0.99913494978E+01 -0.18619217475E+02 -0.23879254762E+02  0.59301935142E+02  0.49999983794E+02 0.  0.
        -12    1    1    2    0    0 -0.99913494978E+01  0.18619217475E+02  0.23879254762E+02  0.31886064858E+02  0.00000000000E+00 0.  1.
         11    1    3    3    0    0  0.30334161225E+01 -0.19205703326E+02 -0.23420196012E+02  0.30439550508E+02  0.51100000000E-03 0. -1.
        -11    1    3    3    0    0  0.36314083948E+01 -0.11606094311E+02 -0.76056840762E+01  0.14343464805E+02  0.51100000000E-03 0.  1.
        -12    1    3    3    0    0  0.33265249804E+01  0.12192580162E+02  0.71466253258E+01  0.14518919829E+02  0.00000000000E+00 0.  1.
</event>
<event>
 7    1  0.7313719E-013  0.5930196E+02  0.7816164E-02  0.1266605E+00
        -11   -1    0    0    0    0  0.00000000000E+00  0.00000000000E+00  0.45593999997E+02  0.45594000000E+02  0.51100000000E-03 0. -1.
         11   -1    0    0    0    0 -0.00000000000E+00 -0.00000000000E+00 -0.45593999997E+02  0.45594000000E+02  0.51100000000E-03 0.  1.
    9900012    2    1    2    0    0  0.27678213218E+02  0.15794760888E+02  0.10776537386E+01  0.59301963934E+02  0.50000036304E+02 0.  0.
        -12    1    1    2    0    0 -0.27678213218E+02 -0.15794760888E+02 -0.10776537386E+01  0.31886036066E+02  0.00000000000E+00 0.  1.
         11    1    3    3    0    0  0.21100936227E+02  0.39898239641E+00  0.27256856443E+01  0.21279991990E+02  0.51100000000E-03 0. -1.
        -11    1    3    3    0    0  0.20153080228E+02  0.12644326696E+02 -0.34983272903E+01  0.24047119045E+02  0.51100000000E-03 0.  1.
        -12    1    3    3    0    0 -0.13575803237E+02  0.27514517954E+01  0.18502953846E+01  0.13974852899E+02  0.00000000000E+00 0.  1.
</event>
<event>
 7    1  0.7313719E-013  0.5930194E+02  0.7816164E-02  0.1266605E+00
        -11   -1    0    0    0    0  0.00000000000E+00  0.00000000000E+00  0.45593999997E+02  0.45594000000E+02  0.51100000000E-03 0. -1.
         11   -1    0    0    0    0 -0.00000000000E+00 -0.00000000000E+00 -0.45593999997E+02  0.45594000000E+02  0.51100000000E-03 0.  1.
    9900012    2    1    2    0    0 -0.14687857667E+02  0.24317952603E+02  0.14478424064E+02  0.59301941212E+02  0.49999994865E+02 0.  0.
        -12    1    1    2    0    0  0.14687857667E+02 -0.24317952603E+02 -0.14478424064E+02  0.31886058788E+02  0.00000000000E+00 0.  1.
         11    1    3    3    0    0  0.13973231984E+02  0.21873474283E+02  0.36645296508E+00  0.25958320002E+02  0.51100000000E-03 0. -1.
        -11    1    3    3    0    0 -0.98098488627E+01  0.51326498284E+01  0.64858688186E+01  0.12831357043E+02  0.51100000000E-03 0.  1.
        -12    1    3    3    0    0 -0.18851240788E+02 -0.26881715078E+01  0.76261022800E+01  0.20512264168E+02  0.00000000000E+00 0.  1.
</event>
<event>
 7    1  0.7313719E-013  0.5930193E+02  0.7816164E-02  0.1266605E+00
        -11   -1    0    0    0    0  0.00000000000E+00  0.00000000000E+00  0.45593999997E+02  0.45594000000E+02  0.51100000000E-03 0. -1.
         11   -1    0    0    0    0 -0.00000000000E+00 -0.00000000000E+00 -0.45593999997E+02  0.45594000000E+02  0.51100000000E-03 0.  1.
    9900012    2    1    2    0    0  0.11852646111E+02 -0.22984792163E+02  0.18653035052E+02  0.59301927691E+02  0.49999970206E+02 0.  0.
        -12    1    1    2    0    0 -0.11852646111E+02  0.22984792163E+02 -0.18653035052E+02  0.31886072309E+02  0.00000000000E+00 0.  1.
         11    1    3    3    0    0 -0.52618772454E+01  0.17790621011E+01 -0.96260057207E+00  0.56372878432E+01  0.51100000000E-03 0. -1.
        -11    1    3    3    0    0 -0.75310814701E+01  0.13786854076E+01 -0.58427114557E+01  0.96309521325E+01  0.51100000000E-03 0.  1.
         12    1    3    3    0    0  0.24645604827E+02 -0.26142539672E+02  0.25458347080E+02  0.44033687715E+02  0.00000000000E+00 0. -1.
</event>
<event>
 7    1  0.7313719E-013  0.5930205E+02  0.7816164E-02  0.1266604E+00
        -11   -1    0    0    0    0  0.00000000000E+00  0.00000000000E+00  0.45593999997E+02  0.45594000000E+02  0.51100000000E-03 0. -1.
         11   -1    0    0    0    0 -0.00000000000E+00 -0.00000000000E+00 -0.45593999997E+02  0.45594000000E+02  0.51100000000E-03 0.  1.
    9900012    2    1    2    0    0 -0.14755916031E+02  0.25633906360E+02  0.11911318537E+02  0.59302051332E+02  0.50000195697E+02 0.  0.
        -12    1    1    2    0    0  0.14755916031E+02 -0.25633906360E+02 -0.11911318537E+02  0.31885948668E+02  0.00000000000E+00 0.  1.
         11    1    3    3    0    0 -0.15530451574E+00  0.29881370117E+01  0.13017820676E+02  0.13357272839E+02  0.51100000000E-03 0. -1.
        -11    1    3    3    0    0  0.11080673764E+02  0.11401209200E+02  0.60495440986E+01  0.17010757959E+02  0.51100000000E-03 0.  1.
        -12    1    3    3    0    0 -0.25681285279E+02  0.11244560148E+02 -0.71560462374E+01  0.28934020534E+02  0.00000000000E+00 0.  1.
</event>
<event>
 7    1  0.7313719E-013  0.5930193E+02  0.7816164E-02  0.1266605E+00
        -11   -1    0    0    0    0  0.00000000000E+00  0.00000000000E+00  0.45593999997E+02  0.45594000000E+02  0.51100000000E-03 0.  1.
         11   -1    0    0    0    0 -0.00000000000E+00 -0.00000000000E+00 -0.45593999997E+02  0.45594000000E+02  0.51100000000E-03 0. -1.
    9900012    2    1    2    0    0 -0.27055222299E+02 -0.44480411863E+01  0.16277323798E+02  0.59301931034E+02  0.49999976303E+02 0.  0.
        -12    1    1    2    0    0  0.27055222299E+02  0.44480411863E+01 -0.16277323798E+02  0.31886068966E+02  0.00000000000E+00 0.  1.
         11    1    3    3    0    0 -0.28850885848E+02  0.70430568283E+01 -0.24008900040E+01  0.29795008588E+02  0.51100000000E-03 0. -1.
        -11    1    3    3    0    0 -0.11294395893E+01  0.24350728542E+01  0.14399451583E+02  0.14647505581E+02  0.51100000000E-03 0.  1.
        -12    1    3    3    0    0  0.29251031379E+01 -0.13926170869E+02  0.42787622191E+01  0.14859416865E+02  0.00000000000E+00 0.  1.
</event>
<event>
 7    1  0.7313719E-013  0.5930195E+02  0.7816164E-02  0.1266605E+00
        -11   -1    0    0    0    0  0.00000000000E+00  0.00000000000E+00  0.45593999997E+02  0.45594000000E+02  0.51100000000E-03 0. -1.
         11   -1    0    0    0    0 -0.00000000000E+00 -0.00000000000E+00 -0.45593999997E+02  0.45594000000E+02  0.51100000000E-03 0.  1.
    9900012    2    1    2    0    0  0.21216111265E+02 -0.20711117255E+02  0.11732276373E+02  0.59301951891E+02  0.50000014340E+02 0.  0.
        -12    1    1    2    0    0 -0.21216111265E+02  0.20711117255E+02 -0.11732276373E+02  0.31886048109E+02  0.00000000000E+00 0.  1.
         11    1    3    3    0    0 -0.81903124671E+00 -0.33503588152E+01  0.25963844234E+01  0.43170509273E+01  0.51100000000E-03 0. -1.
        -11    1    3    3    0    0  0.12398218256E+02 -0.33075034392E+02  0.93900817139E+01  0.36549245557E+02  0.51100000000E-03 0.  1.
        -12    1    3    3    0    0  0.96369242553E+01  0.15714275952E+02 -0.25418976425E+00  0.18435655406E+02  0.00000000000E+00 0.  1.
</event>
<event>
 7    1  0.7313719E-013  0.5930194E+02  0.7816164E-02  0.1266605E+00
        -11   -1    0    0    0    0  0.00000000000E+00  0.00000000000E+00  0.45593999997E+02  0.45594000000E+02  0.51100000000E-03 0. -1.
         11   -1    0    0    0    0 -0.00000000000E+00 -0.00000000000E+00 -0.45593999997E+02  0.45594000000E+02  0.51100000000E-03 0.  1.
    9900012    2    1    2    0    0 -0.25321897950E+01 -0.15546382419E+02  0.27723974718E+02  0.59301940889E+02  0.49999994276E+02 0.  0.
        -12    1    1    2    0    0  0.25321897950E+01  0.15546382419E+02 -0.27723974718E+02  0.31886059111E+02  0.00000000000E+00 0.  1.
         11    1    3    3    0    0 -0.11233173377E+02 -0.90684230142E+01  0.27987273285E+01  0.14705555243E+02  0.51100000000E-03 0. -1.
        -11    1    3    3    0    0 -0.61510427173E+01 -0.35050289792E+01  0.28220888751E+02  0.29095345278E+02  0.51100000000E-03 0.  1.
        -12    1    3    3    0    0  0.14852026299E+02 -0.29729304260E+01 -0.32956413623E+01  0.15501040368E+02  0.00000000000E+00 0.  1.
</event>
<event>
 7    1  0.7313719E-013  0.5930193E+02  0.7816164E-02  0.1266605E+00
        -11   -1    0    0    0    0  0.00000000000E+00  0.00000000000E+00  0.45593999997E+02  0.45594000000E+02  0.51100000000E-03 0.  1.
         11   -1    0    0    0    0 -0.00000000000E+00 -0.00000000000E+00 -0.45593999997E+02  0.45594000000E+02  0.51100000000E-03 0. -1.
    9900012    2    1    2    0    0 -0.27612278219E+02  0.67181369199E+01 -0.14462029917E+02  0.59301928096E+02  0.49999970945E+02 0.  0.
        -12    1    1    2    0    0  0.27612278219E+02 -0.67181369199E+01  0.14462029917E+02  0.31886071904E+02  0.00000000000E+00 0.  1.
         11    1    3    3    0    0 -0.29647085323E+02  0.20720122818E+01  0.72503151723E+00  0.29728245391E+02  0.51100000000E-03 0.  1.
        -11    1    3    3    0    0 -0.91323608488E+01  0.90010051417E+01 -0.10946067581E+02  0.16859255736E+02  0.51100000000E-03 0. -1.
        -12    1    3    3    0    0  0.11167167953E+02 -0.43548805036E+01 -0.42409938535E+01  0.12714426969E+02  0.00000000000E+00 0.  1.
</event>
<event>
 7    1  0.7313719E-013  0.5930185E+02  0.7816164E-02  0.1266605E+00
        -11   -1    0    0    0    0  0.00000000000E+00  0.00000000000E+00  0.45593999997E+02  0.45594000000E+02  0.51100000000E-03 0.  1.
         11   -1    0    0    0    0 -0.00000000000E+00 -0.00000000000E+00 -0.45593999997E+02  0.45594000000E+02  0.51100000000E-03 0. -1.
    9900012    2    1    2    0    0 -0.63667685840E+01  0.38179755793E+01 -0.31009902846E+02  0.59301846982E+02  0.49999823012E+02 0.  0.
        -12    1    1    2    0    0  0.63667685840E+01 -0.38179755793E+01  0.31009902846E+02  0.31886153018E+02  0.00000000000E+00 0.  1.
         11    1    3    3    0    0 -0.16910156455E+01  0.13242337511E+02 -0.16322087340E+02  0.21086241298E+02  0.51100000000E-03 0. -1.
        -11    1    3    3    0    0 -0.13792955341E+02  0.73422563938E+01 -0.32318006747E+01  0.15956154983E+02  0.51100000000E-03 0.  1.
         12    1    3    3    0    0  0.91172024020E+01 -0.16766618326E+02 -0.11456014832E+02  0.22259450702E+02  0.00000000000E+00 0. -1.
</event>
<event>
 7    1  0.7313719E-013  0.5930197E+02  0.7816164E-02  0.1266605E+00
        -11   -1    0    0    0    0  0.00000000000E+00  0.00000000000E+00  0.45593999997E+02  0.45594000000E+02  0.51100000000E-03 0.  1.
         11   -1    0    0    0    0 -0.00000000000E+00 -0.00000000000E+00 -0.45593999997E+02  0.45594000000E+02  0.51100000000E-03 0. -1.
    9900012    2    1    2    0    0 -0.25119687140E+02  0.76928675672E+01 -0.18070414084E+02  0.59301972361E+02  0.50000051674E+02 0.  0.
        -12    1    1    2    0    0  0.25119687140E+02 -0.76928675672E+01  0.18070414084E+02  0.31886027639E+02  0.00000000000E+00 0.  1.
         11    1    3    3    0    0 -0.10215593204E+02 -0.94876650229E+01  0.13230828868E+02  0.19220534979E+02  0.51100000000E-03 0. -1.
        -11    1    3    3    0    0 -0.12087595539E+01  0.98225030910E+00  0.68449884228E+00  0.17013095707E+01  0.51100000000E-03 0.  1.
        -12    1    3    3    0    0 -0.13695334382E+02  0.16198282281E+02 -0.31985741794E+02  0.38380127811E+02  0.00000000000E+00 0.  1.
</event>
<event>
 7    1  0.7313719E-013  0.5930197E+02  0.7816164E-02  0.1266605E+00
        -11   -1    0    0    0    0  0.00000000000E+00  0.00000000000E+00  0.45593999997E+02  0.45594000000E+02  0.51100000000E-03 0.  1.
         11   -1    0    0    0    0 -0.00000000000E+00 -0.00000000000E+00 -0.45593999997E+02  0.45594000000E+02  0.51100000000E-03 0. -1.
    9900012    2    1    2    0    0 -0.21875143916E+02  0.14760018148E+02 -0.17898004874E+02  0.59301974291E+02  0.50000055193E+02 0.  0.
        -12    1    1    2    0    0  0.21875143916E+02 -0.14760018148E+02  0.17898004874E+02  0.31886025709E+02  0.00000000000E+00 0.  1.
         11    1    3    3    0    0 -0.43182861107E+01  0.66565164337E+01 -0.68418261536E+01  0.10476993430E+02  0.51100000000E-03 0. -1.
        -11    1    3    3    0    0 -0.23514402877E+02  0.16347769726E+02 -0.20281543686E+02  0.35092986938E+02  0.51100000000E-03 0.  1.
        -12    1    3    3    0    0  0.59575450724E+01 -0.82442680120E+01  0.92253649651E+01  0.13731993922E+02  0.00000000000E+00 0.  1.
</event>
<event>
 7    1  0.7313719E-013  0.5930194E+02  0.7816164E-02  0.1266605E+00
        -11   -1    0    0    0    0  0.00000000000E+00  0.00000000000E+00  0.45593999997E+02  0.45594000000E+02  0.51100000000E-03 0.  1.
         11   -1    0    0    0    0 -0.00000000000E+00 -0.00000000000E+00 -0.45593999997E+02  0.45594000000E+02  0.51100000000E-03 0. -1.
    9900012    2    1    2    0    0  0.22241675785E+02 -0.22532020429E+02 -0.37864063611E+01  0.59301937850E+02  0.49999988733E+02 0.  0.
        -12    1    1    2    0    0 -0.22241675785E+02  0.22532020429E+02  0.37864063611E+01  0.31886062150E+02  0.00000000000E+00 0.  1.
         11    1    3    3    0    0  0.66263335436E+01 -0.23882166131E+02  0.14651860530E+01  0.24827664525E+02  0.51100000000E-03 0. -1.
        -11    1    3    3    0    0 -0.58328313096E+01 -0.53929170036E+01  0.53899842331E+01  0.95998648526E+01  0.51100000000E-03 0.  1.
         12    1    3    3    0    0  0.21448173551E+02  0.67430627061E+01 -0.10641576647E+02  0.24874408472E+02  0.00000000000E+00 0. -1.
</event>
<event>
 7    1  0.7313719E-013  0.5930195E+02  0.7816164E-02  0.1266605E+00
        -11   -1    0    0    0    0  0.00000000000E+00  0.00000000000E+00  0.45593999997E+02  0.45594000000E+02  0.51100000000E-03 0.  1.
         11   -1    0    0    0    0 -0.00000000000E+00 -0.00000000000E+00 -0.45593999997E+02  0.45594000000E+02  0.51100000000E-03 0. -1.
    9900012    2    1    2    0    0  0.26688696288E+01  0.29819569522E+02  0.10972262967E+02  0.59301950602E+02  0.50000011991E+02 0.  0.
        -12    1    1    2    0    0 -0.26688696288E+01 -0.29819569522E+02 -0.10972262967E+02  0.31886049398E+02  0.00000000000E+00 0.  1.
         11    1    3    3    0    0 -0.64575639562E+01  0.89909041046E+01 -0.14280617112E+02  0.18068550418E+02  0.51100000000E-03 0. -1.
        -11    1    3    3    0    0  0.49736527237E+01 -0.34410724442E+01  0.11996331379E+00  0.60491811379E+01  0.51100000000E-03 0.  1.
         12    1    3    3    0    0  0.41527808612E+01  0.24269737861E+02  0.25132916765E+02  0.35184219046E+02  0.00000000000E+00 0. -1.
</event>
<event>
 7    1  0.7313719E-013  0.5930195E+02  0.7816164E-02  0.1266605E+00
        -11   -1    0    0    0    0  0.00000000000E+00  0.00000000000E+00  0.45593999997E+02  0.45594000000E+02  0.51100000000E-03 0. -1.
         11   -1    0    0    0    0 -0.00000000000E+00 -0.00000000000E+00 -0.45593999997E+02  0.45594000000E+02  0.51100000000E-03 0.  1.
    9900012    2    1    2    0    0 -0.28553875238E+02  0.12747344254E+02 -0.62371360780E+01  0.59301945947E+02  0.50000003500E+02 0.  0.
        -12    1    1    2    0    0  0.28553875238E+02 -0.12747344254E+02  0.62371360780E+01  0.31886054053E+02  0.00000000000E+00 0.  1.
         11    1    3    3    0    0 -0.21814523920E+00  0.45940113501E+01  0.47610266410E+01  0.66196603061E+01  0.51100000000E-03 0.  1.
        -11    1    3    3    0    0 -0.37920407430E+00  0.17150012645E+02  0.66739730406E+01  0.18406755441E+02  0.51100000000E-03 0. -1.
        -12    1    3    3    0    0 -0.27956525925E+02 -0.89966797417E+01 -0.17672135760E+02  0.34275530199E+02  0.00000000000E+00 0.  1.
</event>
<event>
 7    1  0.7313719E-013  0.5930196E+02  0.7816164E-02  0.1266605E+00
        -11   -1    0    0    0    0  0.00000000000E+00  0.00000000000E+00  0.45593999997E+02  0.45594000000E+02  0.51100000000E-03 0. -1.
         11   -1    0    0    0    0 -0.00000000000E+00 -0.00000000000E+00 -0.45593999997E+02  0.45594000000E+02  0.51100000000E-03 0.  1.
    9900012    2    1    2    0    0 -0.20100439337E+02  0.16703682850E+02  0.18266881489E+02  0.59301958515E+02  0.50000026420E+02 0.  0.
        -12    1    1    2    0    0  0.20100439337E+02 -0.16703682850E+02 -0.18266881489E+02  0.31886041485E+02  0.00000000000E+00 0.  1.
         11    1    3    3    0    0 -0.15859370488E+02 -0.49368841573E+01  0.74215591221E+01  0.18192635805E+02  0.51100000000E-03 0. -1.
        -11    1    3    3    0    0 -0.18209270227E+02  0.14012443676E+02  0.10313156117E+02  0.25185060836E+02  0.51100000000E-03 0.  1.
        -12    1    3    3    0    0  0.13968201378E+02  0.76281233313E+01  0.53216625021E+00  0.15924261874E+02  0.00000000000E+00 0.  1.
</event>
<event>
 7    1  0.7313719E-013  0.5930194E+02  0.7816164E-02  0.1266605E+00
        -11   -1    0    0    0    0  0.00000000000E+00  0.00000000000E+00  0.45593999997E+02  0.45594000000E+02  0.51100000000E-03 0. -1.
         11   -1    0    0    0    0 -0.00000000000E+00 -0.00000000000E+00 -0.45593999997E+02  0.45594000000E+02  0.51100000000E-03 0.  1.
    9900012    2    1    2    0    0 -0.83031926410E+01 -0.24021740944E+02  0.19254453354E+02  0.59301936900E+02  0.49999987001E+02 0.  0.
        -12    1    1    2    0    0  0.83031926410E+01  0.24021740944E+02 -0.19254453354E+02  0.31886063100E+02  0.00000000000E+00 0.  1.
         11    1    3    3    0    0 -0.16206610039E+02 -0.62197418917E+01  0.34937904043E+01  0.17707229309E+02  0.51100000000E-03 0. -1.
        -11    1    3    3    0    0 -0.88906038572E+01 -0.81317354183E+01 -0.51338628739E+01  0.13096736469E+02  0.51100000000E-03 0.  1.
        -12    1    3    3    0    0  0.16794021255E+02 -0.96702636341E+01  0.20894525824E+02  0.28497971122E+02  0.00000000000E+00 0.  1.
</event>
<event>
 7    1  0.7313719E-013  0.5930195E+02  0.7816164E-02  0.1266605E+00
        -11   -1    0    0    0    0  0.00000000000E+00  0.00000000000E+00  0.45593999997E+02  0.45594000000E+02  0.51100000000E-03 0.  1.
         11   -1    0    0    0    0 -0.00000000000E+00 -0.00000000000E+00 -0.45593999997E+02  0.45594000000E+02  0.51100000000E-03 0. -1.
    9900012    2    1    2    0    0  0.13869566710E+02 -0.14439296046E+02 -0.24816567703E+02  0.59301950016E+02  0.50000010920E+02 0.  0.
        -12    1    1    2    0    0 -0.13869566710E+02  0.14439296046E+02  0.24816567703E+02  0.31886049984E+02  0.00000000000E+00 0.  1.
         11    1    3    3    0    0 -0.37079356973E+01 -0.11818540101E+02  0.69021580254E+01  0.14179790652E+02  0.51100000000E-03 0. -1.
        -11    1    3    3    0    0  0.19745172208E+01 -0.72117863637E+01  0.19530398120E+01  0.77280622137E+01  0.51100000000E-03 0.  1.
         12    1    3    3    0    0  0.15602985187E+02  0.45910304187E+01 -0.33671765540E+02  0.37394097150E+02  0.00000000000E+00 0. -1.
</event>
<event>
 7    1  0.7313719E-013  0.5930194E+02  0.7816164E-02  0.1266605E+00
        -11   -1    0    0    0    0  0.00000000000E+00  0.00000000000E+00  0.45593999997E+02  0.45594000000E+02  0.51100000000E-03 0. -1.
         11   -1    0    0    0    0 -0.00000000000E+00 -0.00000000000E+00 -0.45593999997E+02  0.45594000000E+02  0.51100000000E-03 0.  1.
    9900012    2    1    2    0    0 -0.23596014361E+02  0.35277808674E+01  0.21154281463E+02  0.59301941044E+02  0.49999994558E+02 0.  0.
        -12    1    1    2    0    0  0.23596014361E+02 -0.35277808674E+01 -0.21154281463E+02  0.31886058956E+02  0.00000000000E+00 0.  1.
         11    1    3    3    0    0 -0.84687031098E+01 -0.63071817930E+01  0.21820320410E+02  0.24240995392E+02  0.51100000000E-03 0. -1.
        -11    1    3    3    0    0  0.66663436518E+01 -0.16079248172E+01  0.64745236429E+01  0.94310665656E+01  0.51100000000E-03 0.  1.
        -12    1    3    3    0    0 -0.21793654903E+02  0.11442887478E+02 -0.71405625905E+01  0.25629879086E+02  0.00000000000E+00 0.  1.
</event>
<event>
 7    1  0.7313719E-013  0.5930196E+02  0.7816164E-02  0.1266605E+00
        -11   -1    0    0    0    0  0.00000000000E+00  0.00000000000E+00  0.45593999997E+02  0.45594000000E+02  0.51100000000E-03 0.  1.
         11   -1    0    0    0    0 -0.00000000000E+00 -0.00000000000E+00 -0.45593999997E+02  0.45594000000E+02  0.51100000000E-03 0. -1.
    9900012    2    1    2    0    0 -0.10844113219E+02 -0.36753692512E+01 -0.29759304965E+02  0.59301962889E+02  0.50000034398E+02 0.  0.
        -12    1    1    2    0    0  0.10844113219E+02  0.36753692512E+01  0.29759304965E+02  0.31886037111E+02  0.00000000000E+00 0.  1.
         11    1    3    3    0    0 -0.13854752739E+01 -0.13544384478E+02 -0.25573388541E+02  0.28971850033E+02  0.51100000000E-03 0. -1.
        -11    1    3    3    0    0 -0.12093680624E+02  0.25130968770E+01 -0.13416370215E+02  0.18236550029E+02  0.51100000000E-03 0.  1.
        -12    1    3    3    0    0  0.26350426798E+01  0.73559183494E+01  0.92304537899E+01  0.12093562827E+02  0.00000000000E+00 0.  1.
</event>
<event>
 7    1  0.7313719E-013  0.5930191E+02  0.7816164E-02  0.1266605E+00
        -11   -1    0    0    0    0  0.00000000000E+00  0.00000000000E+00  0.45593999997E+02  0.45594000000E+02  0.51100000000E-03 0. -1.
         11   -1    0    0    0    0 -0.00000000000E+00 -0.00000000000E+00 -0.45593999997E+02  0.45594000000E+02  0.51100000000E-03 0.  1.
    9900012    2    1    2    0    0  0.18064264608E+02  0.50123038525E+01  0.25793056182E+02  0.59301912235E+02  0.49999942018E+02 0.  0.
        -12    1    1    2    0    0 -0.18064264608E+02 -0.50123038525E+01 -0.25793056182E+02  0.31886087765E+02  0.00000000000E+00 0.  1.
         11    1    3    3    0    0  0.91325410077E+00 -0.12978455912E+02  0.12992355290E+02  0.18386833527E+02  0.51100000000E-03 0. -1.
        -11    1    3    3    0    0  0.12136768714E+01 -0.72238791503E+01  0.77454008223E+01  0.10660613288E+02  0.51100000000E-03 0.  1.
        -12    1    3    3    0    0  0.15937333636E+02  0.25214638915E+02  0.50553000696E+01  0.30254465419E+02  0.00000000000E+00 0.  1.
</event>
<event>
 7    1  0.7313719E-013  0.5930194E+02  0.7816164E-02  0.1266605E+00
        -11   -1    0    0    0    0  0.00000000000E+00  0.00000000000E+00  0.45593999997E+02  0.45594000000E+02  0.51100000000E-03 0.  1.
         11   -1    0    0    0    0 -0.00000000000E+00 -0.00000000000E+00 -0.45593999997E+02  0.45594000000E+02  0.51100000000E-03 0. -1.
    9900012    2    1    2    0    0  0.28094761417E+01 -0.21811952671E+02 -0.23088236844E+02  0.59301935393E+02  0.49999984253E+02 0.  0.
        -12    1    1    2    0    0 -0.28094761417E+01  0.21811952671E+02  0.23088236844E+02  0.31886064607E+02  0.00000000000E+00 0.  1.
         11    1    3    3    0    0 -0.53978568016E+01 -0.79184963725E+01 -0.12908353250E+02  0.16076847537E+02  0.51100000000E-03 0. -1.
        -11    1    3    3    0    0 -0.10260328448E+02 -0.10740630372E+02 -0.17638827361E+02  0.23060002419E+02  0.51100000000E-03 0.  1.
        -12    1    3    3    0    0  0.18467661391E+02 -0.31528259266E+01  0.74589437659E+01  0.20165085437E+02  0.00000000000E+00 0.  1.
</event>
<event>
 7    1  0.7313719E-013  0.5930195E+02  0.7816164E-02  0.1266605E+00
        -11   -1    0    0    0    0  0.00000000000E+00  0.00000000000E+00  0.45593999997E+02  0.45594000000E+02  0.51100000000E-03 0.  1.
         11   -1    0    0    0    0 -0.00000000000E+00 -0.00000000000E+00 -0.45593999997E+02  0.45594000000E+02  0.51100000000E-03 0. -1.
    9900012    2    1    2    0    0  0.29087898038E+02  0.12399115115E+02  0.41080863968E+01  0.59301949104E+02  0.50000009257E+02 0.  0.
        -12    1    1    2    0    0 -0.29087898038E+02 -0.12399115115E+02 -0.41080863968E+01  0.31886050896E+02  0.00000000000E+00 0.  1.
         11    1    3    3    0    0  0.18107757167E+02  0.71392435422E+01  0.16264169311E+02  0.25364993034E+02  0.51100000000E-03 0. -1.
        -11    1    3    3    0    0  0.20038697680E+02  0.79317080527E+01 -0.11603162330E+02  0.24476412597E+02  0.51100000000E-03 0.  1.
        -12    1    3    3    0    0 -0.90585568079E+01 -0.26718364798E+01 -0.55292058493E+00  0.94605434722E+01  0.00000000000E+00 0.  1.
</event>
<event>
 7    1  0.7313719E-013  0.5930194E+02  0.7816164E-02  0.1266605E+00
        -11   -1    0    0    0    0  0.00000000000E+00  0.00000000000E+00  0.45593999997E+02  0.45594000000E+02  0.51100000000E-03 0. -1.
         11   -1    0    0    0    0 -0.00000000000E+00 -0.00000000000E+00 -0.45593999997E+02  0.45594000000E+02  0.51100000000E-03 0.  1.
    9900012    2    1    2    0    0 -0.24423035994E+02 -0.46757566432E+01  0.19959293144E+02  0.59301940818E+02  0.49999994146E+02 0.  0.
        -12    1    1    2    0    0  0.24423035994E+02  0.46757566432E+01 -0.19959293144E+02  0.31886059182E+02  0.00000000000E+00 0.  1.
         11    1    3    3    0    0 -0.28422695643E+02 -0.18704842488E+02  0.16037590149E+02  0.37615489604E+02  0.51100000000E-03 0. -1.
        -11    1    3    3    0    0 -0.42715281839E+01 -0.30461022093E+00  0.27643437236E+01  0.50970910229E+01  0.51100000000E-03 0.  1.
        -12    1    3    3    0    0  0.82711878330E+01  0.14333696066E+02  0.11573592714E+01  0.16589360191E+02  0.00000000000E+00 0.  1.
</event>
<event>
 7    1  0.7313719E-013  0.5930198E+02  0.7816164E-02  0.1266605E+00
        -11   -1    0    0    0    0  0.00000000000E+00  0.00000000000E+00  0.45593999997E+02  0.45594000000E+02  0.51100000000E-03 0.  1.
         11   -1    0    0    0    0 -0.00000000000E+00 -0.00000000000E+00 -0.45593999997E+02  0.45594000000E+02  0.51100000000E-03 0. -1.
    9900012    2    1    2    0    0 -0.19560757314E+00 -0.23565191274E+02 -0.21479337925E+02  0.59301977047E+02  0.50000060218E+02 0.  0.
        -12    1    1    2    0    0  0.19560757314E+00  0.23565191274E+02  0.21479337925E+02  0.31886022953E+02  0.00000000000E+00 0.  1.
         11    1    3    3    0    0 -0.68038066886E+01 -0.35602328153E+02 -0.86149554708E+01  0.37256341922E+02  0.51100000000E-03 0. -1.
        -11    1    3    3    0    0  0.40135828118E+00  0.30635170824E+01  0.19449357986E+01  0.36508904264E+01  0.51100000000E-03 0.  1.
        -12    1    3    3    0    0  0.62068408343E+01  0.89736197969E+01 -0.14809318253E+02  0.18394744698E+02  0.00000000000E+00 0.  1.
</event>
<event>
 7    1  0.7313719E-013  0.5930193E+02  0.7816164E-02  0.1266605E+00
        -11   -1    0    0    0    0  0.00000000000E+00  0.00000000000E+00  0.45593999997E+02  0.45594000000E+02  0.51100000000E-03 0.  1.
         11   -1    0    0    0    0 -0.00000000000E+00 -0.00000000000E+00 -0.45593999997E+02  0.45594000000E+02  0.51100000000E-03 0. -1.
    9900012    2    1    2    0    0 -0.16277448311E+01  0.15959637817E+02 -0.27556522899E+02  0.59301928640E+02  0.49999971936E+02 0.  0.
        -12    1    1    2    0    0  0.16277448311E+01 -0.15959637817E+02  0.27556522899E+02  0.31886071360E+02  0.00000000000E+00 0.  1.
         11    1    3    3    0    0 -0.93060081576E+01 -0.20898410861E+01  0.63140378778E+01  0.11438369559E+02  0.51100000000E-03 0. -1.
        -11    1    3    3    0    0  0.15631940626E+02  0.47450848917E+01 -0.92595026725E+01  0.18777960176E+02  0.51100000000E-03 0.  1.
         12    1    3    3    0    0 -0.79536773000E+01  0.13304394012E+02 -0.24611058104E+02  0.29085598904E+02  0.00000000000E+00 0. -1.
</event>
<event>
 7    1  0.7313719E-013  0.5930194E+02  0.7816164E-02  0.1266605E+00
        -11   -1    0    0    0    0  0.00000000000E+00  0.00000000000E+00  0.45593999997E+02  0.45594000000E+02  0.51100000000E-03 0. -1.
         11   -1    0    0    0    0 -0.00000000000E+00 -0.00000000000E+00 -0.45593999997E+02  0.45594000000E+02  0.51100000000E-03 0.  1.
    9900012    2    1    2    0    0  0.29149573377E+02 -0.85239375495E+01  0.97141885404E+01  0.59301943511E+02  0.49999999058E+02 0.  0.
        -12    1    1    2    0    0 -0.29149573377E+02  0.85239375495E+01 -0.97141885404E+01  0.31886056489E+02  0.00000000000E+00 0.  1.
         11    1    3    3    0    0  0.12895249862E+02 -0.13146565561E+00  0.20151039385E+02  0.23924237517E+02  0.51100000000E-03 0. -1.
        -11    1    3    3    0    0  0.90271296280E+01  0.98323606228E+01 -0.81499479283E+01  0.15639246664E+02  0.51100000000E-03 0.  1.
         12    1    3    3    0    0  0.72271938870E+01 -0.18224832517E+02 -0.22869029164E+01  0.19738459329E+02  0.00000000000E+00 0. -1.
</event>
<event>
 7    1  0.7313719E-013  0.5930196E+02  0.7816164E-02  0.1266605E+00
        -11   -1    0    0    0    0  0.00000000000E+00  0.00000000000E+00  0.45593999997E+02  0.45594000000E+02  0.51100000000E-03 0.  1.
         11   -1    0    0    0    0 -0.00000000000E+00 -0.00000000000E+00 -0.45593999997E+02  0.45594000000E+02  0.51100000000E-03 0. -1.
    9900012    2    1    2    0    0 -0.12633770269E+02 -0.87910558976E+01 -0.27925341426E+02  0.59301960598E+02  0.50000030221E+02 0.  0.
        -12    1    1    2    0    0  0.12633770269E+02  0.87910558976E+01  0.27925341426E+02  0.31886039402E+02  0.00000000000E+00 0.  1.
         11    1    3    3    0    0 -0.48795497270E+01 -0.47691324729E+01  0.20971600567E+01  0.71381167437E+01  0.51100000000E-03 0. -1.
        -11    1    3    3    0    0  0.13350557098E+01  0.18096799315E+02 -0.86957334683E+01  0.20121935791E+02  0.51100000000E-03 0.  1.
         12    1    3    3    0    0 -0.90892762516E+01 -0.22118722739E+02 -0.21326768014E+02  0.32041908063E+02  0.00000000000E+00 0. -1.
</event>
<event>
 7    1  0.7313719E-013  0.5930193E+02  0.7816164E-02  0.1266605E+00
        -11   -1    0    0    0    0  0.00000000000E+00  0.00000000000E+00  0.45593999997E+02  0.45594000000E+02  0.51100000000E-03 0. -1.
         11   -1    0    0    0    0 -0.00000000000E+00 -0.00000000000E+00 -0.45593999997E+02  0.45594000000E+02  0.51100000000E-03 0.  1.
    9900012    2    1    2    0    0  0.93411936718E+01 -0.14388987309E+02  0.26877886210E+02  0.59301927459E+02  0.49999969783E+02 0.  0.
        -12    1    1    2    0    0 -0.93411936718E+01  0.14388987309E+02 -0.26877886210E+02  0.31886072541E+02  0.00000000000E+00 0.  1.
         11    1    3    3    0    0 -0.81288625351E+01 -0.11809075419E+02 -0.38146254287E+01  0.14835229549E+02  0.51100000000E-03 0. -1.
        -11    1    3    3    0    0  0.18000219452E+02  0.24193311784E+01  0.57912702366E+01  0.19063049989E+02  0.51100000000E-03 0.  1.
         12    1    3    3    0    0 -0.53016324549E+00 -0.49992430681E+01  0.24901241402E+02  0.25403647920E+02  0.00000000000E+00 0. -1.
</event>
<event>
 7    1  0.7313719E-013  0.5930194E+02  0.7816164E-02  0.1266605E+00
        -11   -1    0    0    0    0  0.00000000000E+00  0.00000000000E+00  0.45593999997E+02  0.45594000000E+02  0.51100000000E-03 0. -1.
         11   -1    0    0    0    0 -0.00000000000E+00 -0.00000000000E+00 -0.45593999997E+02  0.45594000000E+02  0.51100000000E-03 0.  1.
    9900012    2    1    2    0    0  0.25584304900E+02 -0.13033980507E+02  0.13866497803E+02  0.59301936173E+02  0.49999985674E+02 0.  0.
        -12    1    1    2    0    0 -0.25584304900E+02  0.13033980507E+02 -0.13866497803E+02  0.31886063827E+02  0.00000000000E+00 0.  1.
         11    1    3    3    0    0  0.69095010502E+01 -0.54345494789E+01 -0.79251878179E+01  0.11835714385E+02  0.51100000000E-03 0.  1.
        -11    1    3    3    0    0  0.94051090295E+01 -0.12490225780E+02 -0.67731656927E+01  0.17039295457E+02  0.51100000000E-03 0. -1.
         12    1    3    3    0    0  0.92696948206E+01  0.48907947525E+01  0.28564851313E+02  0.30426926331E+02  0.00000000000E+00 0. -1.
</event>
<event>
 7    1  0.7313719E-013  0.5930195E+02  0.7816164E-02  0.1266605E+00
        -11   -1    0    0    0    0  0.00000000000E+00  0.00000000000E+00  0.45593999997E+02  0.45594000000E+02  0.51100000000E-03 0.  1.
         11   -1    0    0    0    0 -0.00000000000E+00 -0.00000000000E+00 -0.45593999997E+02  0.45594000000E+02  0.51100000000E-03 0. -1.
    9900012    2    1    2    0    0  0.29360128810E+02  0.49805487740E+01 -0.11397247551E+02  0.59301948479E+02  0.50000008119E+02 0.  0.
        -12    1    1    2    0    0 -0.29360128810E+02 -0.49805487740E+01  0.11397247551E+02  0.31886051521E+02  0.00000000000E+00 0.  1.
         11    1    3    3    0    0  0.60853922478E+01  0.10521299527E+02  0.20249658400E+01  0.12321940978E+02  0.51100000000E-03 0. -1.
        -11    1    3    3    0    0  0.20580267747E+02 -0.27386497843E+01  0.10135579393E+02  0.23103627271E+02  0.51100000000E-03 0.  1.
        -12    1    3    3    0    0  0.26944688155E+01 -0.28021009686E+01 -0.23557792785E+02  0.23876380231E+02  0.00000000000E+00 0.  1.
</event>
<event>
 7    1  0.7313719E-013  0.5930189E+02  0.7816164E-02  0.1266605E+00
        -11   -1    0    0    0    0  0.00000000000E+00  0.00000000000E+00  0.45593999997E+02  0.45594000000E+02  0.51100000000E-03 0.  1.
         11   -1    0    0    0    0 -0.00000000000E+00 -0.00000000000E+00 -0.45593999997E+02  0.45594000000E+02  0.51100000000E-03 0. -1.
    9900012    2    1    2    0    0 -0.16156160316E+01 -0.27800810282E+02 -0.15531533348E+02  0.59301893376E+02  0.49999907623E+02 0.  0.
        -12    1    1    2    0    0  0.16156160316E+01  0.27800810282E+02  0.15531533348E+02  0.31886106624E+02  0.00000000000E+00 0.  1.
         11    1    3    3    0    0 -0.18254006868E+02 -0.11577263403E+02 -0.13547266716E+02  0.25510198556E+02  0.51100000000E-03 0. -1.
        -11    1    3    3    0    0  0.45530217330E+01  0.50336733761E+01  0.49201964237E+01  0.83830905797E+01  0.51100000000E-03 0.  1.
        -12    1    3    3    0    0  0.12085369103E+02 -0.21257220255E+02 -0.69044630563E+01  0.25408604240E+02  0.00000000000E+00 0.  1.
</event>
<event>
 7    1  0.7313719E-013  0.5930199E+02  0.7816164E-02  0.1266605E+00
        -11   -1    0    0    0    0  0.00000000000E+00  0.00000000000E+00  0.45593999997E+02  0.45594000000E+02  0.51100000000E-03 0. -1.
         11   -1    0    0    0    0 -0.00000000000E+00 -0.00000000000E+00 -0.45593999997E+02  0.45594000000E+02  0.51100000000E-03 0.  1.
    9900012    2    1    2    0    0  0.30115523047E+02  0.50213710759E+01  0.91955851099E+01  0.59301989252E+02  0.50000082479E+02 0.  0.
        -12    1    1    2    0    0 -0.30115523047E+02 -0.50213710759E+01 -0.91955851099E+01  0.31886010748E+02  0.00000000000E+00 0.  1.
         11    1    3    3    0    0  0.17740860553E+01 -0.25666404237E+01 -0.78990041875E+00  0.32185349663E+01  0.51100000000E-03 0. -1.
        -11    1    3    3    0    0  0.24215071060E+02 -0.15047215524E+02 -0.45472955765E+01  0.28869815704E+02  0.51100000000E-03 0.  1.
         12    1    3    3    0    0  0.41263659318E+01  0.22635227024E+02  0.14532781105E+02  0.27213638582E+02  0.00000000000E+00 0. -1.
</event>
<event>
 7    1  0.7313719E-013  0.5930195E+02  0.7816164E-02  0.1266605E+00
        -11   -1    0    0    0    0  0.00000000000E+00  0.00000000000E+00  0.45593999997E+02  0.45594000000E+02  0.51100000000E-03 0.  1.
         11   -1    0    0    0    0 -0.00000000000E+00 -0.00000000000E+00 -0.45593999997E+02  0.45594000000E+02  0.51100000000E-03 0. -1.
    9900012    2    1    2    0    0 -0.20469071801E+02  0.61965531037E+01 -0.23650370109E+02  0.59301950118E+02  0.50000011108E+02 0.  0.
        -12    1    1    2    0    0  0.20469071801E+02 -0.61965531037E+01  0.23650370109E+02  0.31886049882E+02  0.00000000000E+00 0.  1.
         11    1    3    3    0    0 -0.11130175376E+01  0.16646353711E+01  0.57064954798E+01  0.60476367186E+01  0.51100000000E-03 0.  1.
        -11    1    3    3    0    0 -0.16540848789E+02  0.20465832166E+02 -0.25451177100E+02  0.36608911223E+02  0.51100000000E-03 0. -1.
         12    1    3    3    0    0 -0.28152054743E+01 -0.15933914434E+02 -0.39056884891E+01  0.16645402177E+02  0.00000000000E+00 0. -1.
</event>
<event>
 7    1  0.7313719E-013  0.5930195E+02  0.7816164E-02  0.1266605E+00
        -11   -1    0    0    0    0  0.00000000000E+00  0.00000000000E+00  0.45593999997E+02  0.45594000000E+02  0.51100000000E-03 0.  1.
         11   -1    0    0    0    0 -0.00000000000E+00 -0.00000000000E+00 -0.45593999997E+02  0.45594000000E+02  0.51100000000E-03 0. -1.
    9900012    2    1    2    0    0  0.48838743670E+01 -0.24815177414E+01 -0.31411941418E+02  0.59301949401E+02  0.50000009800E+02 0.  0.
        -12    1    1    2    0    0 -0.48838743670E+01  0.24815177414E+01  0.31411941418E+02  0.31886050599E+02  0.00000000000E+00 0.  1.
         11    1    3    3    0    0  0.57818329884E+01 -0.14277381980E+02 -0.14108338174E+02  0.20888236767E+02  0.51100000000E-03 0. -1.
        -11    1    3    3    0    0  0.75153299075E+01 -0.79661319601E+01 -0.12087699474E+02  0.16311098088E+02  0.51100000000E-03 0.  1.
        -12    1    3    3    0    0 -0.84132885289E+01  0.19761996199E+02 -0.52159037700E+01  0.22102614546E+02  0.00000000000E+00 0.  1.
</event>
<event>
 7    1  0.7313719E-013  0.5930194E+02  0.7816164E-02  0.1266605E+00
        -11   -1    0    0    0    0  0.00000000000E+00  0.00000000000E+00  0.45593999997E+02  0.45594000000E+02  0.51100000000E-03 0.  1.
         11   -1    0    0    0    0 -0.00000000000E+00 -0.00000000000E+00 -0.45593999997E+02  0.45594000000E+02  0.51100000000E-03 0. -1.
    9900012    2    1    2    0    0 -0.16178129001E+02  0.10576112876E+02 -0.25360100492E+02  0.59301941629E+02  0.49999995625E+02 0.  0.
        -12    1    1    2    0    0  0.16178129001E+02 -0.10576112876E+02  0.25360100492E+02  0.31886058371E+02  0.00000000000E+00 0.  1.
         11    1    3    3    0    0 -0.19798661005E+01  0.56386839435E+01  0.90745449434E+01  0.10865633556E+02  0.51100000000E-03 0. -1.
        -11    1    3    3    0    0 -0.10911243865E+02 -0.10599210817E+02 -0.70183211780E+01  0.16752771265E+02  0.51100000000E-03 0.  1.
         12    1    3    3    0    0 -0.32870190346E+01  0.15536639749E+02 -0.27416324257E+02  0.31683536807E+02  0.00000000000E+00 0. -1.
</event>
<event>
 7    1  0.7313719E-013  0.5930192E+02  0.7816164E-02  0.1266605E+00
        -11   -1    0    0    0    0  0.00000000000E+00  0.00000000000E+00  0.45593999997E+02  0.45594000000E+02  0.51100000000E-03 0. -1.
         11   -1    0    0    0    0 -0.00000000000E+00 -0.00000000000E+00 -0.45593999997E+02  0.45594000000E+02  0.51100000000E-03 0.  1.
    9900012    2    1    2    0    0  0.21881926451E+02 -0.23018294346E+02 -0.28393151675E+01  0.59301916979E+02  0.49999950669E+02 0.  0.
        -12    1    1    2    0    0 -0.21881926451E+02  0.23018294346E+02  0.28393151675E+01  0.31886083021E+02  0.00000000000E+00 0.  1.
         11    1    3    3    0    0  0.15943326540E+02 -0.13691391822E+02 -0.26201844073E+00  0.21016958037E+02  0.51100000000E-03 0. -1.
        -11    1    3    3    0    0  0.21350691699E+02 -0.76084782693E+01 -0.22055112391E+01  0.22772906220E+02  0.51100000000E-03 0.  1.
         12    1    3    3    0    0 -0.15412091788E+02 -0.17184242541E+01 -0.37178548758E+00  0.15512052722E+02  0.00000000000E+00 0. -1.
</event>
<event>
 7    1  0.7313719E-013  0.5930193E+02  0.7816164E-02  0.1266605E+00
        -11   -1    0    0    0    0  0.00000000000E+00  0.00000000000E+00  0.45593999997E+02  0.45594000000E+02  0.51100000000E-03 0.  1.
         11   -1    0    0    0    0 -0.00000000000E+00 -0.00000000000E+00 -0.45593999997E+02  0.45594000000E+02  0.51100000000E-03 0. -1.
    9900012    2    1    2    0    0 -0.26532008276E+02 -0.67238402932E+01 -0.16357384259E+02  0.59301929198E+02  0.49999972953E+02 0.  0.
        -12    1    1    2    0    0  0.26532008276E+02  0.67238402932E+01  0.16357384259E+02  0.31886070802E+02  0.00000000000E+00 0.  1.
         11    1    3    3    0    0 -0.25098228106E+02 -0.12658791806E-01 -0.85709849007E+01  0.26521368682E+02  0.51100000000E-03 0. -1.
        -11    1    3    3    0    0 -0.87578153472E+01 -0.86790648696E+01  0.83906819256E+01  0.14914055119E+02  0.51100000000E-03 0.  1.
        -12    1    3    3    0    0  0.73240351776E+01  0.19678833682E+01 -0.16177081284E+02  0.17866505397E+02  0.00000000000E+00 0.  1.
</event>
<event>
 7    1  0.7313719E-013  0.5930192E+02  0.7816164E-02  0.1266605E+00
        -11   -1    0    0    0    0  0.00000000000E+00  0.00000000000E+00  0.45593999997E+02  0.45594000000E+02  0.51100000000E-03 0.  1.
         11   -1    0    0    0    0 -0.00000000000E+00 -0.00000000000E+00 -0.45593999997E+02  0.45594000000E+02  0.51100000000E-03 0. -1.
    9900012    2    1    2    0    0  0.46475390398E+01  0.14889230095E+02 -0.27810669940E+02  0.59301919111E+02  0.49999954558E+02 0.  0.
        -12    1    1    2    0    0 -0.46475390398E+01 -0.14889230095E+02  0.27810669940E+02  0.31886080889E+02  0.00000000000E+00 0.  1.
         11    1    3    3    0    0  0.63177478451E-01 -0.74270099489E+01  0.73765347130E+01  0.10467938327E+02  0.51100000000E-03 0.  1.
        -11    1    3    3    0    0  0.65219260720E+00  0.74262750658E+01 -0.32320390132E+02  0.33168999609E+02  0.51100000000E-03 0. -1.
         12    1    3    3    0    0  0.39321689542E+01  0.14889964978E+02 -0.28668145209E+01  0.15664981176E+02  0.00000000000E+00 0. -1.
</event>
<event>
 7    1  0.7313719E-013  0.5930193E+02  0.7816164E-02  0.1266605E+00
        -11   -1    0    0    0    0  0.00000000000E+00  0.00000000000E+00  0.45593999997E+02  0.45594000000E+02  0.51100000000E-03 0. -1.
         11   -1    0    0    0    0 -0.00000000000E+00 -0.00000000000E+00 -0.45593999997E+02  0.45594000000E+02  0.51100000000E-03 0.  1.
    9900012    2    1    2    0    0  0.22206659498E+02 -0.17022633142E+02 -0.15291030494E+02  0.59301931275E+02  0.49999976743E+02 0.  0.
        -12    1    1    2    0    0 -0.22206659498E+02  0.17022633142E+02  0.15291030494E+02  0.31886068725E+02  0.00000000000E+00 0.  1.
         11    1    3    3    0    0  0.17429124132E+02 -0.19154732060E+02 -0.84112448693E+01  0.27229160266E+02  0.51100000000E-03 0. -1.
        -11    1    3    3    0    0  0.17918810342E+02  0.14821268495E+01 -0.57035897718E+01  0.18862963729E+02  0.51100000000E-03 0.  1.
        -12    1    3    3    0    0 -0.13141274977E+02  0.64997206839E+00 -0.11761958530E+01  0.13209807280E+02  0.00000000000E+00 0.  1.
</event>
<event>
 7    1  0.7313719E-013  0.5930194E+02  0.7816164E-02  0.1266605E+00
        -11   -1    0    0    0    0  0.00000000000E+00  0.00000000000E+00  0.45593999997E+02  0.45594000000E+02  0.51100000000E-03 0. -1.
         11   -1    0    0    0    0 -0.00000000000E+00 -0.00000000000E+00 -0.45593999997E+02  0.45594000000E+02  0.51100000000E-03 0.  1.
    9900012    2    1    2    0    0  0.27638187430E+02 -0.18931626248E+01  0.15788200185E+02  0.59301941381E+02  0.49999995174E+02 0.  0.
        -12    1    1    2    0    0 -0.27638187430E+02  0.18931626248E+01 -0.15788200185E+02  0.31886058619E+02  0.00000000000E+00 0.  1.
         11    1    3    3    0    0  0.16243442515E+02 -0.18417638654E+02  0.11670500136E+02  0.27189325332E+02  0.51100000000E-03 0. -1.
        -11    1    3    3    0    0  0.14088049728E+01  0.35514451713E+01  0.12956230705E+02  0.13507827678E+02  0.51100000000E-03 0.  1.
         12    1    3    3    0    0  0.99859399424E+01  0.12973030858E+02 -0.88385306550E+01  0.18604788371E+02  0.00000000000E+00 0. -1.
</event>
<event>
 7    1  0.7313719E-013  0.5930194E+02  0.7816164E-02  0.1266605E+00
        -11   -1    0    0    0    0  0.00000000000E+00  0.00000000000E+00  0.45593999997E+02  0.45594000000E+02  0.51100000000E-03 0. -1.
         11   -1    0    0    0    0 -0.00000000000E+00 -0.00000000000E+00 -0.45593999997E+02  0.45594000000E+02  0.51100000000E-03 0.  1.
    9900012    2    1    2    0    0  0.97789048221E+01  0.61012811854E+01 -0.29729919991E+02  0.59301941066E+02  0.49999994599E+02 0.  0.
        -12    1    1    2    0    0 -0.97789048221E+01 -0.61012811854E+01  0.29729919991E+02  0.31886058934E+02  0.00000000000E+00 0.  1.
         11    1    3    3    0    0  0.14883981283E+02  0.10666558147E+02 -0.51994434229E+01  0.19035298098E+02  0.51100000000E-03 0. -1.
        -11    1    3    3    0    0  0.78003815122E+01 -0.13647415757E+02 -0.15541935145E+02  0.22105421437E+02  0.51100000000E-03 0.  1.
         12    1    3    3    0    0 -0.12905457973E+02  0.90821387952E+01 -0.89885414235E+01  0.18161221531E+02  0.00000000000E+00 0. -1.
</event>
<event>
 7    1  0.7313719E-013  0.5930194E+02  0.7816164E-02  0.1266605E+00
        -11   -1    0    0    0    0  0.00000000000E+00  0.00000000000E+00  0.45593999997E+02  0.45594000000E+02  0.51100000000E-03 0.  1.
         11   -1    0    0    0    0 -0.00000000000E+00 -0.00000000000E+00 -0.45593999997E+02  0.45594000000E+02  0.51100000000E-03 0. -1.
    9900012    2    1    2    0    0 -0.13074556523E+02 -0.15967445222E+02 -0.24306735354E+02  0.59301941624E+02  0.49999995616E+02 0.  0.
        -12    1    1    2    0    0  0.13074556523E+02  0.15967445222E+02  0.24306735354E+02  0.31886058376E+02  0.00000000000E+00 0.  1.
         11    1    3    3    0    0  0.51005425676E+01 -0.80636740752E+01 -0.23610075436E+00  0.95443238578E+01  0.51100000000E-03 0. -1.
        -11    1    3    3    0    0 -0.58528312080E+01 -0.18422982061E+02  0.16058107731E+01  0.19396920623E+02  0.51100000000E-03 0.  1.
        -12    1    3    3    0    0 -0.12322267883E+02  0.10519210914E+02 -0.25676445373E+02  0.30360697143E+02  0.00000000000E+00 0.  1.
</event>
<event>
 7    1  0.7313719E-013  0.5930193E+02  0.7816164E-02  0.1266605E+00
        -11   -1    0    0    0    0  0.00000000000E+00  0.00000000000E+00  0.45593999997E+02  0.45594000000E+02  0.51100000000E-03 0. -1.
         11   -1    0    0    0    0 -0.00000000000E+00 -0.00000000000E+00 -0.45593999997E+02  0.45594000000E+02  0.51100000000E-03 0.  1.
    9900012    2    1    2    0    0  0.12769103172E+02 -0.20422944305E+02  0.20894365509E+02  0.59301934706E+02  0.49999983000E+02 0.  0.
        -12    1    1    2    0    0 -0.12769103172E+02  0.20422944305E+02 -0.20894365509E+02  0.31886065294E+02  0.00000000000E+00 0.  1.
         11    1    3    3    0    0  0.20766555698E+02 -0.14825569666E+02  0.75760283617E+00  0.25526874345E+02  0.51100000000E-03 0. -1.
        -11    1    3    3    0    0 -0.45408536885E+01 -0.95558538729E+01 -0.22188694523E+01  0.10810045207E+02  0.51100000000E-03 0.  1.
        -12    1    3    3    0    0 -0.34565988376E+01  0.39584792343E+01  0.22355632125E+02  0.22965015155E+02  0.00000000000E+00 0.  1.
</event>
<event>
 7    1  0.7313719E-013  0.5930189E+02  0.7816164E-02  0.1266605E+00
        -11   -1    0    0    0    0  0.00000000000E+00  0.00000000000E+00  0.45593999997E+02  0.45594000000E+02  0.51100000000E-03 0.  1.
         11   -1    0    0    0    0 -0.00000000000E+00 -0.00000000000E+00 -0.45593999997E+02  0.45594000000E+02  0.51100000000E-03 0. -1.
    9900012    2    1    2    0    0 -0.14699998845E+02  0.12688658964E+02 -0.25290943905E+02  0.59301892117E+02  0.49999905327E+02 0.  0.
        -12    1    1    2    0    0  0.14699998845E+02 -0.12688658964E+02  0.25290943905E+02  0.31886107883E+02  0.00000000000E+00 0.  1.
         11    1    3    3    0    0 -0.15031238987E+02  0.13316187544E+02 -0.15226888911E+02  0.25201530556E+02  0.51100000000E-03 0. -1.
        -11    1    3    3    0    0 -0.11055827789E+02  0.42604986512E+01 -0.16360796729E+02  0.20200466498E+02  0.51100000000E-03 0.  1.
        -12    1    3    3    0    0  0.11387067931E+02 -0.48880272314E+01  0.62967417353E+01  0.13899895063E+02  0.00000000000E+00 0.  1.
</event>
<event>
 7    1  0.7313719E-013  0.5930196E+02  0.7816164E-02  0.1266605E+00
        -11   -1    0    0    0    0  0.00000000000E+00  0.00000000000E+00  0.45593999997E+02  0.45594000000E+02  0.51100000000E-03 0. -1.
         11   -1    0    0    0    0 -0.00000000000E+00 -0.00000000000E+00 -0.45593999997E+02  0.45594000000E+02  0.51100000000E-03 0.  1.
    9900012    2    1    2    0    0 -0.92186645801E+01  0.20140863752E+02  0.22936467751E+02  0.59301957251E+02  0.50000024115E+02 0.  0.
        -12    1    1    2    0    0  0.92186645801E+01 -0.20140863752E+02 -0.22936467751E+02  0.31886042749E+02  0.00000000000E+00 0.  1.
         11    1    3    3    0    0 -0.20246124618E+00  0.10099961441E+02 -0.84656292880E+01  0.13180177964E+02  0.51100000000E-03 0. -1.
        -11    1    3    3    0    0  0.32331435157E+01  0.27433181511E+01 -0.52766047572E+01  0.67691631311E+01  0.51100000000E-03 0.  1.
         12    1    3    3    0    0 -0.12249346850E+02  0.72975841604E+01  0.36678701796E+02  0.39352616156E+02  0.00000000000E+00 0. -1.
</event>
<event>
 7    1  0.7313719E-013  0.5930195E+02  0.7816164E-02  0.1266605E+00
        -11   -1    0    0    0    0  0.00000000000E+00  0.00000000000E+00  0.45593999997E+02  0.45594000000E+02  0.51100000000E-03 0.  1.
         11   -1    0    0    0    0 -0.00000000000E+00 -0.00000000000E+00 -0.45593999997E+02  0.45594000000E+02  0.51100000000E-03 0. -1.
    9900012    2    1    2    0    0  0.28206678322E+02 -0.13612761352E+02 -0.59830121866E+01  0.59301946490E+02  0.50000004491E+02 0.  0.
        -12    1    1    2    0    0 -0.28206678322E+02  0.13612761352E+02  0.59830121866E+01  0.31886053510E+02  0.00000000000E+00 0.  1.
         11    1    3    3    0    0  0.85276716541E+01  0.93521493527E+01  0.85907947590E+01  0.15296589038E+02  0.51100000000E-03 0. -1.
        -11    1    3    3    0    0  0.22691469990E+00  0.62254585642E+01 -0.38566329483E+01  0.73267620799E+01  0.51100000000E-03 0.  1.
         12    1    3    3    0    0  0.19452091968E+02 -0.29190369269E+02 -0.10717173997E+02  0.36678595372E+02  0.00000000000E+00 0. -1.
</event>
<event>
 7    1  0.7313719E-013  0.5930194E+02  0.7816164E-02  0.1266605E+00
        -11   -1    0    0    0    0  0.00000000000E+00  0.00000000000E+00  0.45593999997E+02  0.45594000000E+02  0.51100000000E-03 0.  1.
         11   -1    0    0    0    0 -0.00000000000E+00 -0.00000000000E+00 -0.45593999997E+02  0.45594000000E+02  0.51100000000E-03 0. -1.
    9900012    2    1    2    0    0  0.23359550236E+02  0.16803353109E+02 -0.13736784703E+02  0.59301944789E+02  0.50000001389E+02 0.  0.
        -12    1    1    2    0    0 -0.23359550236E+02 -0.16803353109E+02  0.13736784703E+02  0.31886055211E+02  0.00000000000E+00 0.  1.
         11    1    3    3    0    0 -0.10550804862E+01  0.16327423493E+02 -0.19109116280E+02  0.25156634871E+02  0.51100000000E-03 0. -1.
        -11    1    3    3    0    0 -0.48405455701E+00 -0.73897749898E+01  0.27607509835E+01  0.79034694576E+01  0.51100000000E-03 0.  1.
        -12    1    3    3    0    0  0.24898685279E+02  0.78657046066E+01  0.26115805942E+01  0.26241840461E+02  0.00000000000E+00 0.  1.
</event>
<event>
 7    1  0.7313719E-013  0.5930203E+02  0.7816164E-02  0.1266604E+00
        -11   -1    0    0    0    0  0.00000000000E+00  0.00000000000E+00  0.45593999997E+02  0.45594000000E+02  0.51100000000E-03 0.  1.
         11   -1    0    0    0    0 -0.00000000000E+00 -0.00000000000E+00 -0.45593999997E+02  0.45594000000E+02  0.51100000000E-03 0. -1.
    9900012    2    1    2    0    0 -0.16598397273E+02  0.14649133506E+02 -0.22948008577E+02  0.59302031265E+02  0.50000159099E+02 0.  0.
        -12    1    1    2    0    0  0.16598397273E+02 -0.14649133506E+02  0.22948008577E+02  0.31885968735E+02  0.00000000000E+00 0.  1.
         11    1    3    3    0    0 -0.11329626069E+02  0.13556343146E+02 -0.34595379650E+01  0.18002868371E+02  0.51100000000E-03 0. -1.
        -11    1    3    3    0    0  0.60179017619E+01 -0.25172752407E-01  0.88915817741E+01  0.10736666242E+02  0.51100000000E-03 0.  1.
         12    1    3    3    0    0 -0.11286672966E+02  0.11179631117E+01 -0.28380052387E+02  0.30562496652E+02  0.00000000000E+00 0. -1.
</event>
<event>
 7    1  0.7313719E-013  0.5930190E+02  0.7816164E-02  0.1266605E+00
        -11   -1    0    0    0    0  0.00000000000E+00  0.00000000000E+00  0.45593999997E+02  0.45594000000E+02  0.51100000000E-03 0.  1.
         11   -1    0    0    0    0 -0.00000000000E+00 -0.00000000000E+00 -0.45593999997E+02  0.45594000000E+02  0.51100000000E-03 0. -1.
    9900012    2    1    2    0    0 -0.26175614946E+02 -0.18191815494E+02 -0.78620535679E+00  0.59301904478E+02  0.49999927870E+02 0.  0.
        -12    1    1    2    0    0  0.26175614946E+02  0.18191815494E+02  0.78620535679E+00  0.31886095522E+02  0.00000000000E+00 0.  1.
         11    1    3    3    0    0 -0.13218840605E+02 -0.23232354004E+02 -0.21826849095E+01  0.26818727285E+02  0.51100000000E-03 0. -1.
        -11    1    3    3    0    0 -0.18497816442E+01 -0.10353431110E+02 -0.60023117886E+01  0.12109623238E+02  0.51100000000E-03 0.  1.
        -12    1    3    3    0    0 -0.11106992697E+02  0.15393969620E+02  0.73987913412E+01  0.20373553955E+02  0.00000000000E+00 0.  1.
</event>
<event>
 7    1  0.7313719E-013  0.5930195E+02  0.7816164E-02  0.1266605E+00
        -11   -1    0    0    0    0  0.00000000000E+00  0.00000000000E+00  0.45593999997E+02  0.45594000000E+02  0.51100000000E-03 0.  1.
         11   -1    0    0    0    0 -0.00000000000E+00 -0.00000000000E+00 -0.45593999997E+02  0.45594000000E+02  0.51100000000E-03 0. -1.
    9900012    2    1    2    0    0 -0.11183248007E+01  0.25786081742E+02 -0.18722920783E+02  0.59301946236E+02  0.50000004028E+02 0.  0.
        -12    1    1    2    0    0  0.11183248007E+01 -0.25786081742E+02  0.18722920783E+02  0.31886053764E+02  0.00000000000E+00 0.  1.
         11    1    3    3    0    0  0.72200473917E+01  0.16334993296E+02 -0.10068252081E+02  0.20501970406E+02  0.51100000000E-03 0. -1.
        -11    1    3    3    0    0  0.12215061598E+02 -0.24709885835E+01  0.22371110051E+01  0.12661681577E+02  0.51100000000E-03 0.  1.
        -12    1    3    3    0    0 -0.20553433791E+02  0.11922077030E+02 -0.10891779707E+02  0.26138294253E+02  0.00000000000E+00 0.  1.
</event>
<event>
 7    1  0.7313719E-013  0.5930192E+02  0.7816164E-02  0.1266605E+00
        -11   -1    0    0    0    0  0.00000000000E+00  0.00000000000E+00  0.45593999997E+02  0.45594000000E+02  0.51100000000E-03 0.  1.
         11   -1    0    0    0    0 -0.00000000000E+00 -0.00000000000E+00 -0.45593999997E+02  0.45594000000E+02  0.51100000000E-03 0. -1.
    9900012    2    1    2    0    0  0.25451390185E+02 -0.14246906607E+02  0.12883102940E+02  0.59301922293E+02  0.49999960361E+02 0.  0.
        -12    1    1    2    0    0 -0.25451390185E+02  0.14246906607E+02 -0.12883102940E+02  0.31886077707E+02  0.00000000000E+00 0.  1.
         11    1    3    3    0    0  0.12032244272E+02 -0.16407772278E+02  0.20244845727E+01  0.20447210846E+02  0.51100000000E-03 0. -1.
        -11    1    3    3    0    0  0.24130629663E+02  0.12090036495E+01  0.86821313733E+00  0.24176492137E+02  0.51100000000E-03 0.  1.
        -12    1    3    3    0    0 -0.10711483750E+02  0.95186202182E+00  0.99904052298E+01  0.14678219309E+02  0.00000000000E+00 0.  1.
</event>
<event>
 7    1  0.7313719E-013  0.5930192E+02  0.7816164E-02  0.1266605E+00
        -11   -1    0    0    0    0  0.00000000000E+00  0.00000000000E+00  0.45593999997E+02  0.45594000000E+02  0.51100000000E-03 0.  1.
         11   -1    0    0    0    0 -0.00000000000E+00 -0.00000000000E+00 -0.45593999997E+02  0.45594000000E+02  0.51100000000E-03 0. -1.
    9900012    2    1    2    0    0  0.78240097315E+01 -0.29811899372E+02 -0.81705332502E+01  0.59301920184E+02  0.49999956514E+02 0.  0.
        -12    1    1    2    0    0 -0.78240097315E+01  0.29811899372E+02  0.81705332502E+01  0.31886079816E+02  0.00000000000E+00 0.  1.
         11    1    3    3    0    0 -0.52906922274E+00 -0.19606860209E+00  0.75064796878E+01  0.75276553258E+01  0.51100000000E-03 0. -1.
        -11    1    3    3    0    0  0.17051866334E+02  0.33411509816E+00 -0.43341755182E+00  0.17060645633E+02  0.51100000000E-03 0.  1.
         12    1    3    3    0    0 -0.86987873797E+01 -0.29949945868E+02 -0.15243595386E+02  0.34713619225E+02  0.00000000000E+00 0. -1.
</event>
<event>
 7    1  0.7313719E-013  0.5930198E+02  0.7816164E-02  0.1266605E+00
        -11   -1    0    0    0    0  0.00000000000E+00  0.00000000000E+00  0.45593999997E+02  0.45594000000E+02  0.51100000000E-03 0.  1.
         11   -1    0    0    0    0 -0.00000000000E+00 -0.00000000000E+00 -0.45593999997E+02  0.45594000000E+02  0.51100000000E-03 0. -1.
    9900012    2    1    2    0    0  0.82971987970E+01  0.12727894701E+02 -0.28033465331E+02  0.59301984415E+02  0.50000073657E+02 0.  0.
        -12    1    1    2    0    0 -0.82971987970E+01 -0.12727894701E+02  0.28033465331E+02  0.31886015585E+02  0.00000000000E+00 0.  1.
         11    1    3    3    0    0 -0.81134372508E+01 -0.43956105969E+01 -0.10591310270E+02  0.14047245639E+02  0.51100000000E-03 0.  1.
        -11    1    3    3    0    0  0.18910588894E+01 -0.52911677163E+01 -0.17675626062E+02  0.18547245523E+02  0.51100000000E-03 0. -1.
        -12    1    3    3    0    0  0.14519577158E+02  0.22414673014E+02  0.23347100124E+00  0.26707493254E+02  0.00000000000E+00 0.  1.
</event>
<event>
 7    1  0.7313719E-013  0.5930181E+02  0.7816164E-02  0.1266605E+00
        -11   -1    0    0    0    0  0.00000000000E+00  0.00000000000E+00  0.45593999997E+02  0.45594000000E+02  0.51100000000E-03 0.  1.
         11   -1    0    0    0    0 -0.00000000000E+00 -0.00000000000E+00 -0.45593999997E+02  0.45594000000E+02  0.51100000000E-03 0. -1.
    9900012    2    1    2    0    0 -0.29439792751E+02  0.39551591194E+01 -0.11592416975E+02  0.59301814712E+02  0.49999764159E+02 0.  0.
        -12    1    1    2    0    0  0.29439792751E+02 -0.39551591194E+01  0.11592416975E+02  0.31886185288E+02  0.00000000000E+00 0.  1.
         11    1    3    3    0    0 -0.20461253321E+02  0.15215016855E+01 -0.22746826361E+02  0.30633249331E+02  0.51100000000E-03 0. -1.
        -11    1    3    3    0    0  0.77451184323E+01 -0.11501778797E+01 -0.69603555435E+00  0.78609308889E+01  0.51100000000E-03 0.  1.
        -12    1    3    3    0    0 -0.16723657863E+02  0.35838353135E+01  0.11850444940E+02  0.20807634492E+02  0.00000000000E+00 0.  1.
</event>
<event>
 7    1  0.7313719E-013  0.5930195E+02  0.7816164E-02  0.1266605E+00
        -11   -1    0    0    0    0  0.00000000000E+00  0.00000000000E+00  0.45593999997E+02  0.45594000000E+02  0.51100000000E-03 0. -1.
         11   -1    0    0    0    0 -0.00000000000E+00 -0.00000000000E+00 -0.45593999997E+02  0.45594000000E+02  0.51100000000E-03 0.  1.
    9900012    2    1    2    0    0 -0.28941574719E+02  0.12091996602E+01  0.13328287576E+02  0.59301950374E+02  0.50000011575E+02 0.  0.
        -12    1    1    2    0    0  0.28941574719E+02 -0.12091996602E+01 -0.13328287576E+02  0.31886049626E+02  0.00000000000E+00 0.  1.
         11    1    3    3    0    0  0.73215065166E+01 -0.11610210381E+02 -0.11772164374E+01  0.13776330482E+02  0.51100000000E-03 0. -1.
        -11    1    3    3    0    0  0.10665187718E+01  0.80847055912E+00 -0.24586013411E+01  0.27992512840E+01  0.51100000000E-03 0.  1.
         12    1    3    3    0    0 -0.37329600007E+02  0.12010939482E+02  0.16964105354E+02  0.42726368608E+02  0.00000000000E+00 0. -1.
</event>
<event>
 7    1  0.7313719E-013  0.5930194E+02  0.7816164E-02  0.1266605E+00
        -11   -1    0    0    0    0  0.00000000000E+00  0.00000000000E+00  0.45593999997E+02  0.45594000000E+02  0.51100000000E-03 0.  1.
         11   -1    0    0    0    0 -0.00000000000E+00 -0.00000000000E+00 -0.45593999997E+02  0.45594000000E+02  0.51100000000E-03 0. -1.
    9900012    2    1    2    0    0  0.19688230344E+02  0.13651441504E+02 -0.21041203362E+02  0.59301944927E+02  0.50000001640E+02 0.  0.
        -12    1    1    2    0    0 -0.19688230344E+02 -0.13651441504E+02  0.21041203362E+02  0.31886055073E+02  0.00000000000E+00 0.  1.
         11    1    3    3    0    0  0.18267714633E+02  0.35147662670E+01 -0.64852782602E+01  0.19700807450E+02  0.51100000000E-03 0. -1.
        -11    1    3    3    0    0  0.99639222143E+01  0.15823036240E+02  0.33174614437E+01  0.18990886563E+02  0.51100000000E-03 0.  1.
        -12    1    3    3    0    0 -0.85434065031E+01 -0.56863610029E+01 -0.17873386545E+02  0.20610250914E+02  0.00000000000E+00 0.  1.
</event>
<event>
 7    1  0.7313719E-013  0.5930199E+02  0.7816164E-02  0.1266605E+00
        -11   -1    0    0    0    0  0.00000000000E+00  0.00000000000E+00  0.45593999997E+02  0.45594000000E+02  0.51100000000E-03 0. -1.
         11   -1    0    0    0    0 -0.00000000000E+00 -0.00000000000E+00 -0.45593999997E+02  0.45594000000E+02  0.51100000000E-03 0.  1.
    9900012    2    1    2    0    0  0.10057445836E+02  0.24714773541E+02  0.17456950556E+02  0.59301994125E+02  0.50000091365E+02 0.  0.
        -12    1    1    2    0    0 -0.10057445836E+02 -0.24714773541E+02 -0.17456950556E+02  0.31886005875E+02  0.00000000000E+00 0.  1.
         11    1    3    3    0    0 -0.15890642526E+01 -0.56580485541E+01  0.21561834667E+02  0.22348408290E+02  0.51100000000E-03 0. -1.
        -11    1    3    3    0    0  0.88353413858E+01  0.82510651105E+01  0.47110974344E+01  0.12974504698E+02  0.51100000000E-03 0.  1.
        -12    1    3    3    0    0  0.28111687030E+01  0.22121756985E+02 -0.88159815446E+01  0.23979081137E+02  0.00000000000E+00 0.  1.
</event>
<event>
 7    1  0.8856730E-013  0.5930194E+02  0.7816164E-02  0.1266605E+00
        -11   -1    0    0    0    0  0.00000000000E+00  0.00000000000E+00  0.45593999997E+02  0.45594000000E+02  0.51100000000E-03 0. -1.
         11   -1    0    0    0    0 -0.00000000000E+00 -0.00000000000E+00 -0.45593999997E+02  0.45594000000E+02  0.51100000000E-03 0.  1.
    9900012    2    1    2    0    0 -0.17407921058E+02 -0.30074247633E+01  0.26545061144E+02  0.59301943637E+02  0.49999999287E+02 0.  0.
        -12    1    1    2    0    0  0.17407921058E+02  0.30074247633E+01 -0.26545061144E+02  0.31886056363E+02  0.00000000000E+00 0.  1.
         11    1    3    3    0    0 -0.50185215400E+01  0.10783362479E+02 -0.19215339671E+01  0.12048184836E+02  0.51100000000E-03 0. -1.
        -11    1    3    3    0    0  0.96742366476E+01 -0.58596858356E+01  0.13251498528E+01  0.11387835405E+02  0.51100000000E-03 0.  1.
         12    1    3    3    0    0 -0.22063636165E+02 -0.79311014065E+01  0.27141445258E+02  0.35865923396E+02  0.00000000000E+00 0. -1.
</event>
<event>
 7    1  0.7313719E-013  0.5930190E+02  0.7816164E-02  0.1266605E+00
        -11   -1    0    0    0    0  0.00000000000E+00  0.00000000000E+00  0.45593999997E+02  0.45594000000E+02  0.51100000000E-03 0.  1.
         11   -1    0    0    0    0 -0.00000000000E+00 -0.00000000000E+00 -0.45593999997E+02  0.45594000000E+02  0.51100000000E-03 0. -1.
    9900012    2    1    2    0    0 -0.10313016924E+02 -0.96217261201E+01 -0.28596980206E+02  0.59301902583E+02  0.49999924415E+02 0.  0.
        -12    1    1    2    0    0  0.10313016924E+02  0.96217261201E+01  0.28596980206E+02  0.31886097417E+02  0.00000000000E+00 0.  1.
         11    1    3    3    0    0  0.40556711608E+01  0.49694663905E+01 -0.27084236639E+02  0.27833432044E+02  0.51100000000E-03 0. -1.
        -11    1    3    3    0    0  0.78475669543E+00  0.58324468198E+01 -0.13443209404E+01  0.60365949034E+01  0.51100000000E-03 0.  1.
        -12    1    3    3    0    0 -0.15153444780E+02 -0.20423639330E+02 -0.16842262647E+00  0.25431875636E+02  0.00000000000E+00 0.  1.
</event>
<event>
 7    1  0.7313719E-013  0.5930194E+02  0.7816164E-02  0.1266605E+00
        -11   -1    0    0    0    0  0.00000000000E+00  0.00000000000E+00  0.45593999997E+02  0.45594000000E+02  0.51100000000E-03 0.  1.
         11   -1    0    0    0    0 -0.00000000000E+00 -0.00000000000E+00 -0.45593999997E+02  0.45594000000E+02  0.51100000000E-03 0. -1.
    9900012    2    1    2    0    0 -0.20020338606E+02 -0.82822107907E+01 -0.23394696166E+02  0.59301940630E+02  0.49999993803E+02 0.  0.
        -12    1    1    2    0    0  0.20020338606E+02  0.82822107907E+01  0.23394696166E+02  0.31886059370E+02  0.00000000000E+00 0.  1.
         11    1    3    3    0    0  0.10765120959E+02 -0.86098214507E+00 -0.19150731447E+02  0.21985896269E+02  0.51100000000E-03 0. -1.
        -11    1    3    3    0    0  0.67596371068E+00 -0.51808126580E+01  0.10625568262E+01  0.53316764723E+01  0.51100000000E-03 0.  1.
         12    1    3    3    0    0 -0.31461423276E+02 -0.22404159877E+01 -0.53065215445E+01  0.31984367888E+02  0.00000000000E+00 0. -1.
</event>
<event>
 7    1  0.7313719E-013  0.5930210E+02  0.7816164E-02  0.1266604E+00
        -11   -1    0    0    0    0  0.00000000000E+00  0.00000000000E+00  0.45593999997E+02  0.45594000000E+02  0.51100000000E-03 0. -1.
         11   -1    0    0    0    0 -0.00000000000E+00 -0.00000000000E+00 -0.45593999997E+02  0.45594000000E+02  0.51100000000E-03 0.  1.
    9900012    2    1    2    0    0  0.20195718206E+02  0.16794487980E+01  0.24617533371E+02  0.59302101370E+02  0.50000286955E+02 0.  0.
        -12    1    1    2    0    0 -0.20195718206E+02 -0.16794487980E+01 -0.24617533371E+02  0.31885898630E+02  0.00000000000E+00 0.  1.
         11    1    3    3    0    0  0.46698606432E+01  0.23284957032E+01  0.19447365204E+02  0.20135280090E+02  0.51100000000E-03 0. -1.
        -11    1    3    3    0    0  0.82148033346E+01  0.16996241950E+02  0.66382643287E+01  0.20010541917E+02  0.51100000000E-03 0.  1.
        -12    1    3    3    0    0  0.73110542283E+01 -0.17645288855E+02 -0.14680961610E+01  0.19156279364E+02  0.00000000000E+00 0.  1.
</event>
<event>
 7    1  0.7313719E-013  0.5930226E+02  0.7816164E-02  0.1266604E+00
        -11   -1    0    0    0    0  0.00000000000E+00  0.00000000000E+00  0.45593999997E+02  0.45594000000E+02  0.51100000000E-03 0.  1.
         11   -1    0    0    0    0 -0.00000000000E+00 -0.00000000000E+00 -0.45593999997E+02  0.45594000000E+02  0.51100000000E-03 0. -1.
    9900012    2    1    2    0    0  0.18114120883E+02 -0.14342618597E+02 -0.21974262468E+02  0.59302261894E+02  0.50000579708E+02 0.  0.
        -12    1    1    2    0    0 -0.18114120883E+02  0.14342618597E+02  0.21974262468E+02  0.31885738106E+02  0.00000000000E+00 0.  1.
         11    1    3    3    0    0 -0.41899208809E+01 -0.12753508694E+02 -0.12552208256E+02  0.18378393656E+02  0.51100000000E-03 0. -1.
        -11    1    3    3    0    0 -0.78908697757E+01  0.43659067958E+01 -0.14763488492E+01  0.91381931558E+01  0.51100000000E-03 0.  1.
         12    1    3    3    0    0  0.30194911539E+02 -0.59550166988E+01 -0.79457053621E+01  0.31785675083E+02  0.00000000000E+00 0. -1.
</event>
<event>
 7    1  0.7313719E-013  0.5930195E+02  0.7816164E-02  0.1266605E+00
        -11   -1    0    0    0    0  0.00000000000E+00  0.00000000000E+00  0.45593999997E+02  0.45594000000E+02  0.51100000000E-03 0. -1.
         11   -1    0    0    0    0 -0.00000000000E+00 -0.00000000000E+00 -0.45593999997E+02  0.45594000000E+02  0.51100000000E-03 0.  1.
    9900012    2    1    2    0    0  0.30798012701E+02  0.63997601540E+01  0.52197684255E+01  0.59301945074E+02  0.50000001908E+02 0.  0.
        -12    1    1    2    0    0 -0.30798012701E+02 -0.63997601540E+01 -0.52197684255E+01  0.31886054926E+02  0.00000000000E+00 0.  1.
         11    1    3    3    0    0  0.16609289512E+02 -0.13278132718E+02 -0.15953127581E+01  0.21324219321E+02  0.51100000000E-03 0. -1.
        -11    1    3    3    0    0  0.71225390056E+01 -0.30059556084E+01 -0.70553420791E+01  0.10466335706E+02  0.51100000000E-03 0.  1.
        -12    1    3    3    0    0  0.70661841829E+01  0.22683848481E+02  0.13870423263E+02  0.27511390047E+02  0.00000000000E+00 0.  1.
</event>
<event>
 7    1  0.7313719E-013  0.5930197E+02  0.7816164E-02  0.1266605E+00
        -11   -1    0    0    0    0  0.00000000000E+00  0.00000000000E+00  0.45593999997E+02  0.45594000000E+02  0.51100000000E-03 0.  1.
         11   -1    0    0    0    0 -0.00000000000E+00 -0.00000000000E+00 -0.45593999997E+02  0.45594000000E+02  0.51100000000E-03 0. -1.
    9900012    2    1    2    0    0  0.58130332059E+01 -0.31066041223E+02 -0.42223658991E+01  0.59301974125E+02  0.50000054891E+02 0.  0.
        -12    1    1    2    0    0 -0.58130332059E+01  0.31066041223E+02  0.42223658991E+01  0.31886025875E+02  0.00000000000E+00 0.  1.
         11    1    3    3    0    0 -0.14573656197E+02 -0.68160533123E+01 -0.14604688033E+01  0.16154968496E+02  0.51100000000E-03 0.  1.
        -11    1    3    3    0    0  0.32131405419E+01  0.67824082829E+01  0.55065649662E+00  0.75251948212E+01  0.51100000000E-03 0. -1.
         12    1    3    3    0    0  0.17173548861E+02 -0.31032396193E+02 -0.33125535924E+01  0.35621810809E+02  0.00000000000E+00 0. -1.
</event>
<event>
 7    1  0.7313719E-013  0.5930194E+02  0.7816164E-02  0.1266605E+00
        -11   -1    0    0    0    0  0.00000000000E+00  0.00000000000E+00  0.45593999997E+02  0.45594000000E+02  0.51100000000E-03 0. -1.
         11   -1    0    0    0    0 -0.00000000000E+00 -0.00000000000E+00 -0.45593999997E+02  0.45594000000E+02  0.51100000000E-03 0.  1.
    9900012    2    1    2    0    0  0.15338768255E+02 -0.27004514307E+02  0.72249070088E+01  0.59301939004E+02  0.49999990838E+02 0.  0.
        -12    1    1    2    0    0 -0.15338768255E+02  0.27004514307E+02 -0.72249070088E+01  0.31886060996E+02  0.00000000000E+00 0.  1.
         11    1    3    3    0    0  0.31838152626E+01 -0.17370236679E+02  0.17084566822E+02  0.24571207249E+02  0.51100000000E-03 0.  1.
        -11    1    3    3    0    0 -0.15788506716E+01 -0.38400939671E+01  0.94588605545E+01  0.10330011344E+02  0.51100000000E-03 0. -1.
        -12    1    3    3    0    0  0.13733803664E+02 -0.57941836615E+01 -0.19318520368E+02  0.24400720411E+02  0.00000000000E+00 0.  1.
</event>
<event>
 7    1  0.7313719E-013  0.5930195E+02  0.7816164E-02  0.1266605E+00
        -11   -1    0    0    0    0  0.00000000000E+00  0.00000000000E+00  0.45593999997E+02  0.45594000000E+02  0.51100000000E-03 0.  1.
         11   -1    0    0    0    0 -0.00000000000E+00 -0.00000000000E+00 -0.45593999997E+02  0.45594000000E+02  0.51100000000E-03 0. -1.
    9900012    2    1    2    0    0 -0.57132892480E+00 -0.22415895381E+02 -0.22669828083E+02  0.59301954655E+02  0.50000019381E+02 0.  0.
        -12    1    1    2    0    0  0.57132892480E+00  0.22415895381E+02  0.22669828083E+02  0.31886045345E+02  0.00000000000E+00 0.  1.
         11    1    3    3    0    0 -0.69503409850E+01 -0.17469511725E+02  0.16609578981E+01  0.18874582409E+02  0.51100000000E-03 0. -1.
        -11    1    3    3    0    0  0.32136704279E+01 -0.17478688691E+02 -0.20092802843E+02  0.26824484381E+02  0.51100000000E-03 0.  1.
        -12    1    3    3    0    0  0.31653416323E+01  0.12532305036E+02 -0.42379831379E+01  0.13602887864E+02  0.00000000000E+00 0.  1.
</event>
<event>
 7    1  0.7313719E-013  0.5930197E+02  0.7816164E-02  0.1266605E+00
        -11   -1    0    0    0    0  0.00000000000E+00  0.00000000000E+00  0.45593999997E+02  0.45594000000E+02  0.51100000000E-03 0.  1.
         11   -1    0    0    0    0 -0.00000000000E+00 -0.00000000000E+00 -0.45593999997E+02  0.45594000000E+02  0.51100000000E-03 0. -1.
    9900012    2    1    2    0    0 -0.27769528625E+02 -0.11234796818E+02 -0.10924809908E+02  0.59301970910E+02  0.50000049027E+02 0.  0.
        -12    1    1    2    0    0  0.27769528625E+02  0.11234796818E+02  0.10924809908E+02  0.31886029090E+02  0.00000000000E+00 0.  1.
         11    1    3    3    0    0  0.44861648779E+01 -0.35693333162E+01 -0.70890268310E+01  0.91170234893E+01  0.51100000000E-03 0. -1.
        -11    1    3    3    0    0 -0.42571767477E+01  0.65570077020E+01  0.12532863073E+02  0.14771274858E+02  0.51100000000E-03 0.  1.
        -12    1    3    3    0    0 -0.27998516755E+02 -0.14222471204E+02 -0.16368646150E+02  0.35413672563E+02  0.00000000000E+00 0.  1.
</event>
<event>
 7    1  0.7313719E-013  0.5930220E+02  0.7816164E-02  0.1266604E+00
        -11   -1    0    0    0    0  0.00000000000E+00  0.00000000000E+00  0.45593999997E+02  0.45594000000E+02  0.51100000000E-03 0.  1.
         11   -1    0    0    0    0 -0.00000000000E+00 -0.00000000000E+00 -0.45593999997E+02  0.45594000000E+02  0.51100000000E-03 0. -1.
    9900012    2    1    2    0    0  0.71079401109E+01  0.29655106942E+02 -0.93143103824E+01  0.59302195035E+02  0.50000457776E+02 0.  0.
        -12    1    1    2    0    0 -0.71079401109E+01 -0.29655106942E+02  0.93143103824E+01  0.31885804965E+02  0.00000000000E+00 0.  1.
         11    1    3    3    0    0  0.43878734711E+01 -0.22445462997E+01  0.14494605266E+01  0.51373492941E+01  0.51100000000E-03 0. -1.
        -11    1    3    3    0    0 -0.12798527431E+02 -0.30813703828E+01  0.29900681320E+01  0.13499542790E+02  0.51100000000E-03 0.  1.
         12    1    3    3    0    0  0.15518594071E+02  0.34981023624E+02 -0.13753839041E+02  0.40665302951E+02  0.00000000000E+00 0. -1.
</event>
<event>
 7    1  0.7313719E-013  0.5930195E+02  0.7816164E-02  0.1266605E+00
        -11   -1    0    0    0    0  0.00000000000E+00  0.00000000000E+00  0.45593999997E+02  0.45594000000E+02  0.51100000000E-03 0. -1.
         11   -1    0    0    0    0 -0.00000000000E+00 -0.00000000000E+00 -0.45593999997E+02  0.45594000000E+02  0.51100000000E-03 0.  1.
    9900012    2    1    2    0    0  0.15239042832E+02 -0.60141164968E+01  0.27355483198E+02  0.59301945294E+02  0.50000002310E+02 0.  0.
        -12    1    1    2    0    0 -0.15239042832E+02  0.60141164968E+01 -0.27355483198E+02  0.31886054706E+02  0.00000000000E+00 0.  1.
         11    1    3    3    0    0 -0.31408769067E+01  0.11421860057E+02  0.21681411585E+02  0.24706428383E+02  0.51100000000E-03 0. -1.
        -11    1    3    3    0    0 -0.22509061846E+01 -0.64829090585E+01 -0.54122855428E+01  0.87399956276E+01  0.51100000000E-03 0.  1.
        -12    1    3    3    0    0  0.20630825924E+02 -0.10953067495E+02  0.11086357156E+02  0.25855521283E+02  0.00000000000E+00 0.  1.
</event>
<event>
 7    1  0.7313719E-013  0.5930196E+02  0.7816164E-02  0.1266605E+00
        -11   -1    0    0    0    0  0.00000000000E+00  0.00000000000E+00  0.45593999997E+02  0.45594000000E+02  0.51100000000E-03 0. -1.
         11   -1    0    0    0    0 -0.00000000000E+00 -0.00000000000E+00 -0.45593999997E+02  0.45594000000E+02  0.51100000000E-03 0.  1.
    9900012    2    1    2    0    0 -0.15659287769E+02  0.22169499879E+02 -0.16733793116E+02  0.59301955241E+02  0.50000020451E+02 0.  0.
        -12    1    1    2    0    0  0.15659287769E+02 -0.22169499879E+02  0.16733793116E+02  0.31886044759E+02  0.00000000000E+00 0.  1.
         11    1    3    3    0    0 -0.13126011963E+02 -0.86677104800E+01 -0.49156054629E+01  0.16479823189E+02  0.51100000000E-03 0. -1.
        -11    1    3    3    0    0 -0.11259531720E+02  0.97194310884E+01 -0.13260462445E+02  0.19926973171E+02  0.51100000000E-03 0.  1.
        -12    1    3    3    0    0  0.87262559142E+01  0.21117779271E+02  0.14422747926E+01  0.22895158881E+02  0.00000000000E+00 0.  1.
</event>
<event>
 7    1  0.7313719E-013  0.5930194E+02  0.7816164E-02  0.1266605E+00
        -11   -1    0    0    0    0  0.00000000000E+00  0.00000000000E+00  0.45593999997E+02  0.45594000000E+02  0.51100000000E-03 0.  1.
         11   -1    0    0    0    0 -0.00000000000E+00 -0.00000000000E+00 -0.45593999997E+02  0.45594000000E+02  0.51100000000E-03 0. -1.
    9900012    2    1    2    0    0  0.16966031468E+02  0.25520214595E+02 -0.88087038172E+01  0.59301939728E+02  0.49999992158E+02 0.  0.
        -12    1    1    2    0    0 -0.16966031468E+02 -0.25520214595E+02  0.88087038172E+01  0.31886060272E+02  0.00000000000E+00 0.  1.
         11    1    3    3    0    0  0.10923396842E+02  0.25369385446E+01 -0.18232483982E+02  0.21405142563E+02  0.51100000000E-03 0. -1.
        -11    1    3    3    0    0 -0.44680027612E+01  0.25498861883E+02  0.62134523408E+01  0.26622584327E+02  0.51100000000E-03 0.  1.
         12    1    3    3    0    0  0.10510637387E+02 -0.25155858329E+01  0.32103278239E+01  0.11274212837E+02  0.00000000000E+00 0. -1.
</event>
<event>
 7    1  0.7313719E-013  0.5930201E+02  0.7816164E-02  0.1266605E+00
        -11   -1    0    0    0    0  0.00000000000E+00  0.00000000000E+00  0.45593999997E+02  0.45594000000E+02  0.51100000000E-03 0. -1.
         11   -1    0    0    0    0 -0.00000000000E+00 -0.00000000000E+00 -0.45593999997E+02  0.45594000000E+02  0.51100000000E-03 0.  1.
    9900012    2    1    2    0    0  0.21868923077E+02 -0.15013137494E+02  0.17693852794E+02  0.59302007454E+02  0.50000115674E+02 0.  0.
        -12    1    1    2    0    0 -0.21868923077E+02  0.15013137494E+02 -0.17693852794E+02  0.31885992546E+02  0.00000000000E+00 0.  1.
         11    1    3    3    0    0  0.56216830766E+01  0.65413874386E+00  0.16438198257E+02  0.17385211540E+02  0.51100000000E-03 0. -1.
        -11    1    3    3    0    0  0.44905886842E+01 -0.19435726252E+02  0.13846940582E+02  0.24282722364E+02  0.51100000000E-03 0.  1.
         12    1    3    3    0    0  0.11756651316E+02  0.37684500144E+01 -0.12591286045E+02  0.17634073549E+02  0.00000000000E+00 0. -1.
</event>
<event>
 7    1  0.7313719E-013  0.5930191E+02  0.7816164E-02  0.1266605E+00
        -11   -1    0    0    0    0  0.00000000000E+00  0.00000000000E+00  0.45593999997E+02  0.45594000000E+02  0.51100000000E-03 0.  1.
         11   -1    0    0    0    0 -0.00000000000E+00 -0.00000000000E+00 -0.45593999997E+02  0.45594000000E+02  0.51100000000E-03 0. -1.
    9900012    2    1    2    0    0  0.20615246061E+02  0.22595882088E+02 -0.90089048484E+01  0.59301911747E+02  0.49999941128E+02 0.  0.
        -12    1    1    2    0    0 -0.20615246061E+02 -0.22595882088E+02  0.90089048484E+01  0.31886088253E+02  0.00000000000E+00 0.  1.
         11    1    3    3    0    0  0.31243154871E+02  0.27183124150E+02 -0.12577587691E+02  0.43281089141E+02  0.51100000000E-03 0. -1.
        -11    1    3    3    0    0  0.77914032310E+00  0.12432046415E+01  0.28313212997E+01  0.31888866375E+01  0.51100000000E-03 0.  1.
        -12    1    3    3    0    0 -0.11407049132E+02 -0.58304467035E+01  0.73736154237E+00  0.12831935969E+02  0.00000000000E+00 0.  1.
</event>
<event>
 7    1  0.7313719E-013  0.5930193E+02  0.7816164E-02  0.1266605E+00
        -11   -1    0    0    0    0  0.00000000000E+00  0.00000000000E+00  0.45593999997E+02  0.45594000000E+02  0.51100000000E-03 0. -1.
         11   -1    0    0    0    0 -0.00000000000E+00 -0.00000000000E+00 -0.45593999997E+02  0.45594000000E+02  0.51100000000E-03 0.  1.
    9900012    2    1    2    0    0  0.24981119263E+02  0.16999410452E+02  0.10182580629E+02  0.59301933708E+02  0.49999981179E+02 0.  0.
        -12    1    1    2    0    0 -0.24981119263E+02 -0.16999410452E+02 -0.10182580629E+02  0.31886066292E+02  0.00000000000E+00 0.  1.
         11    1    3    3    0    0  0.20124060337E+01  0.52839393936E+01 -0.41126172452E+01  0.69916674997E+01  0.51100000000E-03 0. -1.
        -11    1    3    3    0    0  0.11659752340E+02 -0.12843174604E+02 -0.61592261993E+01  0.18407417695E+02  0.51100000000E-03 0.  1.
         12    1    3    3    0    0  0.11308960888E+02  0.24558645662E+02  0.20454424073E+02  0.33902848513E+02  0.00000000000E+00 0. -1.
</event>
<event>
 7    1  0.7313719E-013  0.5930173E+02  0.7816164E-02  0.1266606E+00
        -11   -1    0    0    0    0  0.00000000000E+00  0.00000000000E+00  0.45593999997E+02  0.45594000000E+02  0.51100000000E-03 0.  1.
         11   -1    0    0    0    0 -0.00000000000E+00 -0.00000000000E+00 -0.45593999997E+02  0.45594000000E+02  0.51100000000E-03 0. -1.
    9900012    2    1    2    0    0 -0.11835412577E+02  0.20473705009E+02  0.21388891411E+02  0.59301729233E+02  0.49999608264E+02 0.  0.
        -12    1    1    2    0    0  0.11835412577E+02 -0.20473705009E+02 -0.21388891411E+02  0.31886270767E+02  0.00000000000E+00 0.  1.
         11    1    3    3    0    0 -0.81736563144E+00 -0.58156301249E+01  0.21446230874E+02  0.22235792302E+02  0.51100000000E-03 0.  1.
        -11    1    3    3    0    0 -0.81793891233E+01  0.19064790292E+01 -0.76608880858E+01  0.11367773539E+02  0.51100000000E-03 0. -1.
        -12    1    3    3    0    0 -0.28386578221E+01  0.24382856104E+02  0.76035486228E+01  0.25698163391E+02  0.00000000000E+00 0.  1.
</event>
<event>
 7    1  0.7313719E-013  0.5930188E+02  0.7816164E-02  0.1266605E+00
        -11   -1    0    0    0    0  0.00000000000E+00  0.00000000000E+00  0.45593999997E+02  0.45594000000E+02  0.51100000000E-03 0. -1.
         11   -1    0    0    0    0 -0.00000000000E+00 -0.00000000000E+00 -0.45593999997E+02  0.45594000000E+02  0.51100000000E-03 0.  1.
    9900012    2    1    2    0    0 -0.61550817096E+01 -0.17061165604E+02  0.26225111360E+02  0.59301876554E+02  0.49999876943E+02 0.  0.
        -12    1    1    2    0    0  0.61550817096E+01  0.17061165604E+02 -0.26225111360E+02  0.31886123446E+02  0.00000000000E+00 0.  1.
         11    1    3    3    0    0 -0.14289938754E+02  0.54452346385E+00  0.25123533016E+01  0.14519324184E+02  0.51100000000E-03 0. -1.
        -11    1    3    3    0    0  0.28763341362E+00  0.68868213910E+01 -0.31626582503E+01  0.75837622142E+01  0.51100000000E-03 0.  1.
         12    1    3    3    0    0  0.78472236305E+01 -0.24492510458E+02  0.26875416309E+02  0.37198790155E+02  0.00000000000E+00 0. -1.
</event>
<event>
 7    1  0.7313719E-013  0.5930206E+02  0.7816164E-02  0.1266604E+00
        -11   -1    0    0    0    0  0.00000000000E+00  0.00000000000E+00  0.45593999997E+02  0.45594000000E+02  0.51100000000E-03 0. -1.
         11   -1    0    0    0    0 -0.00000000000E+00 -0.00000000000E+00 -0.45593999997E+02  0.45594000000E+02  0.51100000000E-03 0.  1.
    9900012    2    1    2    0    0 -0.58968582945E+01  0.12971162261E+01  0.31309067675E+02  0.59302060043E+02  0.50000211584E+02 0.  0.
        -12    1    1    2    0    0  0.58968582945E+01 -0.12971162261E+01 -0.31309067675E+02  0.31885939957E+02  0.00000000000E+00 0.  1.
         11    1    3    3    0    0 -0.79999688960E+01  0.57615657477E+01 -0.38919824822E+00  0.98664389594E+01  0.51100000000E-03 0. -1.
        -11    1    3    3    0    0 -0.56309752962E+01  0.15084319702E+02  0.87950574071E+01  0.18346596925E+02  0.51100000000E-03 0.  1.
         12    1    3    3    0    0  0.77340858976E+01 -0.19548769224E+02  0.22903208516E+02  0.31089024159E+02  0.00000000000E+00 0. -1.
</event>
<event>
 7    1  0.7313719E-013  0.5930200E+02  0.7816164E-02  0.1266605E+00
        -11   -1    0    0    0    0  0.00000000000E+00  0.00000000000E+00  0.45593999997E+02  0.45594000000E+02  0.51100000000E-03 0.  1.
         11   -1    0    0    0    0 -0.00000000000E+00 -0.00000000000E+00 -0.45593999997E+02  0.45594000000E+02  0.51100000000E-03 0. -1.
    9900012    2    1    2    0    0 -0.10704600148E+02  0.51966288365E+01 -0.29582490247E+02  0.59301997666E+02  0.50000097824E+02 0.  0.
        -12    1    1    2    0    0  0.10704600148E+02 -0.51966288365E+01  0.29582490247E+02  0.31886002334E+02  0.00000000000E+00 0.  1.
         11    1    3    3    0    0  0.57307509603E+01 -0.49316019029E+01 -0.32157664898E+02  0.33034491306E+02  0.51100000000E-03 0.  1.
        -11    1    3    3    0    0 -0.46897305062E+01  0.11193960698E+02 -0.39822027979E+01  0.12773263784E+02  0.51100000000E-03 0. -1.
        -12    1    3    3    0    0 -0.11745620602E+02 -0.10657299582E+01  0.65573774492E+01  0.13494242576E+02  0.00000000000E+00 0.  1.
</event>
<event>
 7    1  0.7313719E-013  0.5930193E+02  0.7816164E-02  0.1266605E+00
        -11   -1    0    0    0    0  0.00000000000E+00  0.00000000000E+00  0.45593999997E+02  0.45594000000E+02  0.51100000000E-03 0.  1.
         11   -1    0    0    0    0 -0.00000000000E+00 -0.00000000000E+00 -0.45593999997E+02  0.45594000000E+02  0.51100000000E-03 0. -1.
    9900012    2    1    2    0    0  0.49549548151E+01 -0.17295381683E+02 -0.26325646991E+02  0.59301929463E+02  0.49999973438E+02 0.  0.
        -12    1    1    2    0    0 -0.49549548151E+01  0.17295381683E+02  0.26325646991E+02  0.31886070537E+02  0.00000000000E+00 0.  1.
         11    1    3    3    0    0 -0.82051907591E+01 -0.54330467451E+01 -0.18983035115E+02  0.21382206967E+02  0.51100000000E-03 0. -1.
        -11    1    3    3    0    0 -0.81480980696E+01  0.54031272500E+01 -0.18842032463E+01  0.99566815940E+01  0.51100000000E-03 0.  1.
        -12    1    3    3    0    0  0.21308243644E+02 -0.17265462188E+02 -0.54584086295E+01  0.27963040902E+02  0.00000000000E+00 0.  1.
</event>
<event>
 7    1  0.7313719E-013  0.5930195E+02  0.7816164E-02  0.1266605E+00
        -11   -1    0    0    0    0  0.00000000000E+00  0.00000000000E+00  0.45593999997E+02  0.45594000000E+02  0.51100000000E-03 0.  1.
         11   -1    0    0    0    0 -0.00000000000E+00 -0.00000000000E+00 -0.45593999997E+02  0.45594000000E+02  0.51100000000E-03 0. -1.
    9900012    2    1    2    0    0 -0.15108477061E+02 -0.23628069600E+02 -0.15171306116E+02  0.59301948482E+02  0.50000008124E+02 0.  0.
        -12    1    1    2    0    0  0.15108477061E+02  0.23628069600E+02  0.15171306116E+02  0.31886051518E+02  0.00000000000E+00 0.  1.
         11    1    3    3    0    0 -0.20085876467E+01 -0.78053021321E+00 -0.13470546069E+02  0.13641820384E+02  0.51100000000E-03 0. -1.
        -11    1    3    3    0    0  0.12772244604E+02 -0.34075843852E+01 -0.14418641104E+01  0.13297399593E+02  0.51100000000E-03 0.  1.
         12    1    3    3    0    0 -0.25872134019E+02 -0.19439955001E+02 -0.25889593679E+00  0.32362728505E+02  0.00000000000E+00 0. -1.
</event>
<event>
 7    1  0.7313719E-013  0.5930194E+02  0.7816164E-02  0.1266605E+00
        -11   -1    0    0    0    0  0.00000000000E+00  0.00000000000E+00  0.45593999997E+02  0.45594000000E+02  0.51100000000E-03 0.  1.
         11   -1    0    0    0    0 -0.00000000000E+00 -0.00000000000E+00 -0.45593999997E+02  0.45594000000E+02  0.51100000000E-03 0. -1.
    9900012    2    1    2    0    0  0.15761600096E+02 -0.21942311242E+02 -0.16935990479E+02  0.59301939821E+02  0.49999992329E+02 0.  0.
        -12    1    1    2    0    0 -0.15761600096E+02  0.21942311242E+02  0.16935990479E+02  0.31886060179E+02  0.00000000000E+00 0.  1.
         11    1    3    3    0    0  0.56311261953E+01 -0.23094158294E+02 -0.99988424435E+01  0.25788109276E+02  0.51100000000E-03 0. -1.
        -11    1    3    3    0    0  0.55827682077E+01 -0.15000050017E+02 -0.36060713709E+01  0.16406478975E+02  0.51100000000E-03 0.  1.
         12    1    3    3    0    0  0.45477056929E+01  0.16151897069E+02 -0.33310766646E+01  0.17107351571E+02  0.00000000000E+00 0. -1.
</event>
<event>
 7    1  0.7313719E-013  0.5930195E+02  0.7816164E-02  0.1266605E+00
        -11   -1    0    0    0    0  0.00000000000E+00  0.00000000000E+00  0.45593999997E+02  0.45594000000E+02  0.51100000000E-03 0. -1.
         11   -1    0    0    0    0 -0.00000000000E+00 -0.00000000000E+00 -0.45593999997E+02  0.45594000000E+02  0.51100000000E-03 0.  1.
    9900012    2    1    2    0    0  0.30850683366E+02 -0.63474687497E+01 -0.49663923640E+01  0.59301951691E+02  0.50000013976E+02 0.  0.
        -12    1    1    2    0    0 -0.30850683366E+02  0.63474687497E+01  0.49663923640E+01  0.31886048309E+02  0.00000000000E+00 0.  1.
         11    1    3    3    0    0  0.69103835500E+01 -0.43823748601E+01  0.12803377965E+02  0.15194903678E+02  0.51100000000E-03 0. -1.
        -11    1    3    3    0    0  0.25104543910E+02 -0.34721398518E+00  0.11012186213E+01  0.25131083646E+02  0.51100000000E-03 0.  1.
         12    1    3    3    0    0 -0.11642440944E+01 -0.16178799045E+01 -0.18870988950E+02  0.18975964367E+02  0.00000000000E+00 0. -1.
</event>
<event>
 7    1  0.7313719E-013  0.5930195E+02  0.7816164E-02  0.1266605E+00
        -11   -1    0    0    0    0  0.00000000000E+00  0.00000000000E+00  0.45593999997E+02  0.45594000000E+02  0.51100000000E-03 0.  1.
         11   -1    0    0    0    0 -0.00000000000E+00 -0.00000000000E+00 -0.45593999997E+02  0.45594000000E+02  0.51100000000E-03 0. -1.
    9900012    2    1    2    0    0 -0.24676526722E+02 -0.63778163395E+01 -0.19160188865E+02  0.59301947411E+02  0.50000006171E+02 0.  0.
        -12    1    1    2    0    0  0.24676526722E+02  0.63778163395E+01  0.19160188865E+02  0.31886052589E+02  0.00000000000E+00 0.  1.
         11    1    3    3    0    0 -0.13306062288E+02 -0.16238650955E+02 -0.62435893717E+01  0.21902682187E+02  0.51100000000E-03 0. -1.
        -11    1    3    3    0    0 -0.12611742498E+02  0.83869480137E+01  0.74936356995E+01  0.16898269796E+02  0.51100000000E-03 0.  1.
        -12    1    3    3    0    0  0.12412780643E+01  0.14738866020E+01 -0.20410235193E+02  0.20500995429E+02  0.00000000000E+00 0.  1.
</event>
<event>
 7    1  0.7313719E-013  0.5930197E+02  0.7816164E-02  0.1266605E+00
        -11   -1    0    0    0    0  0.00000000000E+00  0.00000000000E+00  0.45593999997E+02  0.45594000000E+02  0.51100000000E-03 0. -1.
         11   -1    0    0    0    0 -0.00000000000E+00 -0.00000000000E+00 -0.45593999997E+02  0.45594000000E+02  0.51100000000E-03 0.  1.
    9900012    2    1    2    0    0  0.23496268249E+02  0.21348935952E+02 -0.29778167976E+01  0.59301967309E+02  0.50000042460E+02 0.  0.
        -12    1    1    2    0    0 -0.23496268249E+02 -0.21348935952E+02  0.29778167976E+01  0.31886032691E+02  0.00000000000E+00 0.  1.
         11    1    3    3    0    0  0.20866147131E+02  0.48474259149E+01  0.37332404464E+01  0.21744671039E+02  0.51100000000E-03 0. -1.
        -11    1    3    3    0    0  0.15893971135E+02  0.10643775624E+02  0.39848556835E+01  0.19539379546E+02  0.51100000000E-03 0.  1.
        -12    1    3    3    0    0 -0.13263850017E+02  0.58577344126E+01 -0.10695912927E+02  0.18017916724E+02  0.00000000000E+00 0.  1.
</event>
<event>
 7    1  0.7313719E-013  0.5930193E+02  0.7816164E-02  0.1266605E+00
        -11   -1    0    0    0    0  0.00000000000E+00  0.00000000000E+00  0.45593999997E+02  0.45594000000E+02  0.51100000000E-03 0.  1.
         11   -1    0    0    0    0 -0.00000000000E+00 -0.00000000000E+00 -0.45593999997E+02  0.45594000000E+02  0.51100000000E-03 0. -1.
    9900012    2    1    2    0    0 -0.29960989522E+00 -0.20639670062E+02 -0.24302992872E+02  0.59301933938E+02  0.49999981598E+02 0.  0.
        -12    1    1    2    0    0  0.29960989522E+00  0.20639670062E+02  0.24302992872E+02  0.31886066062E+02  0.00000000000E+00 0.  1.
         11    1    3    3    0    0 -0.47116188245E+01  0.40888142224E+01 -0.10891020257E+02  0.12551178279E+02  0.51100000000E-03 0. -1.
        -11    1    3    3    0    0 -0.50166801843E+01  0.87045967504E+01 -0.31794113834E+01  0.10537824333E+02  0.51100000000E-03 0.  1.
        -12    1    3    3    0    0  0.94286891136E+01 -0.33433081035E+02 -0.10232561233E+02  0.36212931327E+02  0.00000000000E+00 0.  1.
</event>
<event>
 7    1  0.7313719E-013  0.5930195E+02  0.7816164E-02  0.1266605E+00
        -11   -1    0    0    0    0  0.00000000000E+00  0.00000000000E+00  0.45593999997E+02  0.45594000000E+02  0.51100000000E-03 0.  1.
         11   -1    0    0    0    0 -0.00000000000E+00 -0.00000000000E+00 -0.45593999997E+02  0.45594000000E+02  0.51100000000E-03 0. -1.
    9900012    2    1    2    0    0  0.95810959324E+01 -0.12826046251E+02 -0.27575631271E+02  0.59301948164E+02  0.50000007544E+02 0.  0.
        -12    1    1    2    0    0 -0.95810959324E+01  0.12826046251E+02  0.27575631271E+02  0.31886051836E+02  0.00000000000E+00 0.  1.
         11    1    3    3    0    0 -0.11658554893E+02  0.29880413534E+01 -0.11487058598E+02  0.16637391888E+02  0.51100000000E-03 0. -1.
        -11    1    3    3    0    0  0.20304094828E+01 -0.16397572184E+02  0.15287788428E+01  0.16593375221E+02  0.51100000000E-03 0.  1.
         12    1    3    3    0    0  0.19209241343E+02  0.58348457959E+00 -0.17617351516E+02  0.26071181056E+02  0.00000000000E+00 0. -1.
</event>
<event>
 7    1  0.7313719E-013  0.5930194E+02  0.7816164E-02  0.1266605E+00
        -11   -1    0    0    0    0  0.00000000000E+00  0.00000000000E+00  0.45593999997E+02  0.45594000000E+02  0.51100000000E-03 0.  1.
         11   -1    0    0    0    0 -0.00000000000E+00 -0.00000000000E+00 -0.45593999997E+02  0.45594000000E+02  0.51100000000E-03 0. -1.
    9900012    2    1    2    0    0 -0.29251536154E+02 -0.12431122071E+02 -0.25564736458E+01  0.59301941592E+02  0.49999995557E+02 0.  0.
        -12    1    1    2    0    0  0.29251536154E+02  0.12431122071E+02  0.25564736458E+01  0.31886058408E+02  0.00000000000E+00 0.  1.
         11    1    3    3    0    0  0.33275919827E+01  0.35423541677E+01  0.16148018854E+01  0.51213989146E+01  0.51100000000E-03 0. -1.
        -11    1    3    3    0    0 -0.28160573731E+02  0.82553262525E+01 -0.11583145994E+01  0.29368520858E+02  0.51100000000E-03 0.  1.
        -12    1    3    3    0    0 -0.44185544057E+01 -0.24228802491E+02 -0.30129609318E+01  0.24812021819E+02  0.00000000000E+00 0.  1.
</event>
<event>
 7    1  0.7313719E-013  0.5930195E+02  0.7816164E-02  0.1266605E+00
        -11   -1    0    0    0    0  0.00000000000E+00  0.00000000000E+00  0.45593999997E+02  0.45594000000E+02  0.51100000000E-03 0. -1.
         11   -1    0    0    0    0 -0.00000000000E+00 -0.00000000000E+00 -0.45593999997E+02  0.45594000000E+02  0.51100000000E-03 0.  1.
    9900012    2    1    2    0    0  0.29930607832E+02  0.10563828584E+02  0.30470410139E+01  0.59301949469E+02  0.50000009923E+02 0.  0.
        -12    1    1    2    0    0 -0.29930607832E+02 -0.10563828584E+02 -0.30470410139E+01  0.31886050531E+02  0.00000000000E+00 0.  1.
         11    1    3    3    0    0  0.77492714563E+00 -0.40694967235E+01 -0.15487571469E+01  0.44226648782E+01  0.51100000000E-03 0. -1.
        -11    1    3    3    0    0  0.29559074831E+02 -0.14554216292E+01 -0.11840631729E+02  0.31875660259E+02  0.51100000000E-03 0.  1.
         12    1    3    3    0    0 -0.40339414453E+00  0.16088746937E+02  0.16436429890E+02  0.23003624331E+02  0.00000000000E+00 0. -1.
</event>
<event>
 7    1  0.7313719E-013  0.5930191E+02  0.7816164E-02  0.1266605E+00
        -11   -1    0    0    0    0  0.00000000000E+00  0.00000000000E+00  0.45593999997E+02  0.45594000000E+02  0.51100000000E-03 0.  1.
         11   -1    0    0    0    0 -0.00000000000E+00 -0.00000000000E+00 -0.45593999997E+02  0.45594000000E+02  0.51100000000E-03 0. -1.
    9900012    2    1    2    0    0 -0.12559546708E+02 -0.23875807705E+02 -0.16997833895E+02  0.59301909550E+02  0.49999937120E+02 0.  0.
        -12    1    1    2    0    0  0.12559546708E+02  0.23875807705E+02  0.16997833895E+02  0.31886090450E+02  0.00000000000E+00 0.  1.
         11    1    3    3    0    0 -0.16452697561E+02 -0.10921685363E+02 -0.40167962291E+01  0.20152149275E+02  0.51100000000E-03 0. -1.
        -11    1    3    3    0    0  0.60607481060E+01 -0.20455958901E+02  0.28239329108E+01  0.21521001824E+02  0.51100000000E-03 0.  1.
         12    1    3    3    0    0 -0.21675972527E+01  0.75018365578E+01 -0.15804970576E+02  0.17628758451E+02  0.00000000000E+00 0. -1.
</event>
<event>
 7    1  0.7313719E-013  0.5930199E+02  0.7816164E-02  0.1266605E+00
        -11   -1    0    0    0    0  0.00000000000E+00  0.00000000000E+00  0.45593999997E+02  0.45594000000E+02  0.51100000000E-03 0. -1.
         11   -1    0    0    0    0 -0.00000000000E+00 -0.00000000000E+00 -0.45593999997E+02  0.45594000000E+02  0.51100000000E-03 0.  1.
    9900012    2    1    2    0    0 -0.31201524633E+02  0.37767484467E+00  0.65604635361E+01  0.59301992731E+02  0.50000088823E+02 0.  0.
        -12    1    1    2    0    0  0.31201524633E+02 -0.37767484467E+00 -0.65604635361E+01  0.31886007269E+02  0.00000000000E+00 0.  1.
         11    1    3    3    0    0 -0.79056615972E+01 -0.52281849650E+01  0.48874196118E+01  0.10663970838E+02  0.51100000000E-03 0. -1.
        -11    1    3    3    0    0 -0.56130985275E+01 -0.18131507970E+02  0.14742721611E+01  0.19037645206E+02  0.51100000000E-03 0.  1.
         12    1    3    3    0    0 -0.17682764509E+02  0.23737367779E+02  0.19877176323E+00  0.29600376686E+02  0.00000000000E+00 0. -1.
</event>
<event>
 7    1  0.7313719E-013  0.5930194E+02  0.7816164E-02  0.1266605E+00
        -11   -1    0    0    0    0  0.00000000000E+00  0.00000000000E+00  0.45593999997E+02  0.45594000000E+02  0.51100000000E-03 0.  1.
         11   -1    0    0    0    0 -0.00000000000E+00 -0.00000000000E+00 -0.45593999997E+02  0.45594000000E+02  0.51100000000E-03 0. -1.
    9900012    2    1    2    0    0  0.30168958939E+02 -0.92307724990E+01 -0.46203401970E+01  0.59301940539E+02  0.49999993637E+02 0.  0.
        -12    1    1    2    0    0 -0.30168958939E+02  0.92307724990E+01  0.46203401970E+01  0.31886059461E+02  0.00000000000E+00 0.  1.
         11    1    3    3    0    0  0.49802397122E+01  0.13482327654E+02 -0.73765711118E+00  0.14391667202E+02  0.51100000000E-03 0. -1.
        -11    1    3    3    0    0 -0.62517828425E+01 -0.64028553413E+01 -0.31381719551E+01  0.94831149267E+01  0.51100000000E-03 0.  1.
         12    1    3    3    0    0  0.31440502070E+02 -0.16310244812E+02 -0.74451113071E+00  0.35427158411E+02  0.00000000000E+00 0. -1.
</event>
<event>
 7    1  0.7313719E-013  0.5930196E+02  0.7816164E-02  0.1266605E+00
        -11   -1    0    0    0    0  0.00000000000E+00  0.00000000000E+00  0.45593999997E+02  0.45594000000E+02  0.51100000000E-03 0.  1.
         11   -1    0    0    0    0 -0.00000000000E+00 -0.00000000000E+00 -0.45593999997E+02  0.45594000000E+02  0.51100000000E-03 0. -1.
    9900012    2    1    2    0    0  0.73101753927E+01  0.75506200137E+01 -0.30104302784E+02  0.59301959591E+02  0.50000028384E+02 0.  0.
        -12    1    1    2    0    0 -0.73101753927E+01 -0.75506200137E+01  0.30104302784E+02  0.31886040409E+02  0.00000000000E+00 0.  1.
         11    1    3    3    0    0  0.85589557619E+01 -0.46632007231E+01 -0.24867033553E+02  0.26708997036E+02  0.51100000000E-03 0. -1.
        -11    1    3    3    0    0 -0.12361465187E+02 -0.29538046408E+01 -0.53503251634E+01  0.13789733973E+02  0.51100000000E-03 0.  1.
        -12    1    3    3    0    0  0.11112684818E+02  0.15167625378E+02  0.11305593229E+00  0.18803228582E+02  0.00000000000E+00 0.  1.
</event>
<event>
 7    1  0.7487383E-013  0.5930193E+02  0.7816164E-02  0.1266605E+00
        -11   -1    0    0    0    0  0.00000000000E+00  0.00000000000E+00  0.45593999997E+02  0.45594000000E+02  0.51100000000E-03 0.  1.
         11   -1    0    0    0    0 -0.00000000000E+00 -0.00000000000E+00 -0.45593999997E+02  0.45594000000E+02  0.51100000000E-03 0. -1.
    9900012    2    1    2    0    0  0.28443148000E+02  0.46448101920E+01 -0.13643110406E+02  0.59301931076E+02  0.49999976380E+02 0.  0.
        -12    1    1    2    0    0 -0.28443148000E+02 -0.46448101920E+01  0.13643110406E+02  0.31886068924E+02  0.00000000000E+00 0.  1.
         11    1    3    3    0    0  0.11246838912E+02 -0.78701292435E+01 -0.13906798664E+02  0.19540454681E+02  0.51100000000E-03 0. -1.
        -11    1    3    3    0    0 -0.69042648709E+01 -0.52371594551E+01  0.40945970294E+01  0.95844894314E+01  0.51100000000E-03 0.  1.
         12    1    3    3    0    0  0.24100573959E+02  0.17752098891E+02 -0.38309087712E+01  0.30176986963E+02  0.00000000000E+00 0. -1.
</event>
<event>
 7    1  0.7313719E-013  0.5930193E+02  0.7816164E-02  0.1266605E+00
        -11   -1    0    0    0    0  0.00000000000E+00  0.00000000000E+00  0.45593999997E+02  0.45594000000E+02  0.51100000000E-03 0.  1.
         11   -1    0    0    0    0 -0.00000000000E+00 -0.00000000000E+00 -0.45593999997E+02  0.45594000000E+02  0.51100000000E-03 0. -1.
    9900012    2    1    2    0    0  0.17289899687E+02 -0.12490086902E+02 -0.23701861675E+02  0.59301934879E+02  0.49999983316E+02 0.  0.
        -12    1    1    2    0    0 -0.17289899687E+02  0.12490086902E+02  0.23701861675E+02  0.31886065121E+02  0.00000000000E+00 0.  1.
         11    1    3    3    0    0  0.37331765422E+01  0.37979077127E+01  0.14639123862E+01  0.55230199914E+01  0.51100000000E-03 0. -1.
        -11    1    3    3    0    0  0.77892190989E+01 -0.27192720081E+02 -0.30434270243E+01  0.28449576585E+02  0.51100000000E-03 0.  1.
         12    1    3    3    0    0  0.57675040455E+01  0.10904725466E+02 -0.22122347037E+02  0.25329338303E+02  0.00000000000E+00 0. -1.
</event>
<event>
 7    1  0.7313719E-013  0.5930199E+02  0.7816164E-02  0.1266605E+00
        -11   -1    0    0    0    0  0.00000000000E+00  0.00000000000E+00  0.45593999997E+02  0.45594000000E+02  0.51100000000E-03 0.  1.
         11   -1    0    0    0    0 -0.00000000000E+00 -0.00000000000E+00 -0.45593999997E+02  0.45594000000E+02  0.51100000000E-03 0. -1.
    9900012    2    1    2    0    0 -0.18442814437E+02 -0.60417754037E+01 -0.25299749226E+02  0.59301987937E+02  0.50000080080E+02 0.  0.
        -12    1    1    2    0    0  0.18442814437E+02  0.60417754037E+01  0.25299749226E+02  0.31886012063E+02  0.00000000000E+00 0.  1.
         11    1    3    3    0    0  0.13976928312E+01 -0.70267733084E+01  0.56154627043E+01  0.91028847088E+01  0.51100000000E-03 0. -1.
        -11    1    3    3    0    0 -0.15414412300E+02 -0.28416030589E+01  0.28496287170E+01  0.15931076504E+02  0.51100000000E-03 0.  1.
         12    1    3    3    0    0 -0.44260949680E+01  0.38266009636E+01 -0.33764840647E+02  0.34268026724E+02  0.00000000000E+00 0. -1.
</event>
<event>
 7    1  0.7313719E-013  0.5930195E+02  0.7816164E-02  0.1266605E+00
        -11   -1    0    0    0    0  0.00000000000E+00  0.00000000000E+00  0.45593999997E+02  0.45594000000E+02  0.51100000000E-03 0.  1.
         11   -1    0    0    0    0 -0.00000000000E+00 -0.00000000000E+00 -0.45593999997E+02  0.45594000000E+02  0.51100000000E-03 0. -1.
    9900012    2    1    2    0    0 -0.13545246096E+01 -0.23478629600E+02  0.21532293517E+02  0.59301945855E+02  0.50000003333E+02 0.  0.
        -12    1    1    2    0    0  0.13545246096E+01  0.23478629600E+02 -0.21532293517E+02  0.31886054145E+02  0.00000000000E+00 0.  1.
         11    1    3    3    0    0  0.37382861818E+01 -0.20875321700E+02 -0.49883927442E+00  0.21213266617E+02  0.51100000000E-03 0. -1.
        -11    1    3    3    0    0  0.11782957971E+02 -0.68850470960E+01  0.91354847874E+01  0.16422516696E+02  0.51100000000E-03 0.  1.
        -12    1    3    3    0    0 -0.16875768763E+02  0.42817391959E+01  0.12895648004E+02  0.21666162542E+02  0.00000000000E+00 0.  1.
</event>
<event>
 7    1  0.7313719E-013  0.5930192E+02  0.7816164E-02  0.1266605E+00
        -11   -1    0    0    0    0  0.00000000000E+00  0.00000000000E+00  0.45593999997E+02  0.45594000000E+02  0.51100000000E-03 0. -1.
         11   -1    0    0    0    0 -0.00000000000E+00 -0.00000000000E+00 -0.45593999997E+02  0.45594000000E+02  0.51100000000E-03 0.  1.
    9900012    2    1    2    0    0 -0.66845234147E+01 -0.22674553135E+01  0.31094981282E+02  0.59301920470E+02  0.49999957036E+02 0.  0.
        -12    1    1    2    0    0  0.66845234147E+01  0.22674553135E+01 -0.31094981282E+02  0.31886079530E+02  0.00000000000E+00 0.  1.
         11    1    3    3    0    0 -0.10845952511E+02 -0.24783631325E+01  0.17378914165E+01  0.11260427901E+02  0.51100000000E-03 0.  1.
        -11    1    3    3    0    0 -0.16157071916E+01  0.15966305937E+02  0.26555795844E+02  0.31028111901E+02  0.51100000000E-03 0. -1.
         12    1    3    3    0    0  0.57771362879E+01 -0.15755398118E+02  0.28012940215E+01  0.17013380667E+02  0.00000000000E+00 0. -1.
</event>
<event>
 7    1  0.7313719E-013  0.5930194E+02  0.7816164E-02  0.1266605E+00
        -11   -1    0    0    0    0  0.00000000000E+00  0.00000000000E+00  0.45593999997E+02  0.45594000000E+02  0.51100000000E-03 0. -1.
         11   -1    0    0    0    0 -0.00000000000E+00 -0.00000000000E+00 -0.45593999997E+02  0.45594000000E+02  0.51100000000E-03 0.  1.
    9900012    2    1    2    0    0  0.22398924948E+02  0.22468174844E+02 -0.31921729740E+01  0.59301942107E+02  0.49999996498E+02 0.  0.
        -12    1    1    2    0    0 -0.22398924948E+02 -0.22468174844E+02  0.31921729740E+01  0.31886057893E+02  0.00000000000E+00 0.  1.
         11    1    3    3    0    0  0.12387736000E+02  0.26491717303E+02 -0.12427975670E+02  0.31776117893E+02  0.51100000000E-03 0. -1.
        -11    1    3    3    0    0  0.66250252375E+01 -0.19873296200E+01 -0.75745206346E+01  0.10257377907E+02  0.51100000000E-03 0.  1.
         12    1    3    3    0    0  0.33861637107E+01 -0.20362128388E+01  0.16810323330E+02  0.17268446307E+02  0.00000000000E+00 0. -1.
</event>
<event>
 7    1  0.7313719E-013  0.5930195E+02  0.7816164E-02  0.1266605E+00
        -11   -1    0    0    0    0  0.00000000000E+00  0.00000000000E+00  0.45593999997E+02  0.45594000000E+02  0.51100000000E-03 0.  1.
         11   -1    0    0    0    0 -0.00000000000E+00 -0.00000000000E+00 -0.45593999997E+02  0.45594000000E+02  0.51100000000E-03 0. -1.
    9900012    2    1    2    0    0 -0.22858536885E+02 -0.42845656391E+01 -0.21813992351E+02  0.59301945470E+02  0.50000002630E+02 0.  0.
        -12    1    1    2    0    0  0.22858536885E+02  0.42845656391E+01  0.21813992351E+02  0.31886054530E+02  0.00000000000E+00 0.  1.
         11    1    3    3    0    0 -0.19276703675E+02 -0.11224275688E+02 -0.65994472839E+01  0.23262166150E+02  0.51100000000E-03 0. -1.
        -11    1    3    3    0    0  0.43501089125E+01 -0.57049647337E+01  0.65058966720E+01  0.96848728402E+01  0.51100000000E-03 0.  1.
         12    1    3    3    0    0 -0.79319421223E+01  0.12644674782E+02 -0.21720441739E+02  0.26354906479E+02  0.00000000000E+00 0. -1.
</event>
<event>
 7    1  0.7313719E-013  0.5930205E+02  0.7816164E-02  0.1266604E+00
        -11   -1    0    0    0    0  0.00000000000E+00  0.00000000000E+00  0.45593999997E+02  0.45594000000E+02  0.51100000000E-03 0. -1.
         11   -1    0    0    0    0 -0.00000000000E+00 -0.00000000000E+00 -0.45593999997E+02  0.45594000000E+02  0.51100000000E-03 0.  1.
    9900012    2    1    2    0    0 -0.13965552771E+02 -0.28448299648E+02 -0.35173118862E+01  0.59302048549E+02  0.50000190621E+02 0.  0.
        -12    1    1    2    0    0  0.13965552771E+02  0.28448299648E+02  0.35173118862E+01  0.31885951451E+02  0.00000000000E+00 0.  1.
         11    1    3    3    0    0 -0.14046320088E+02 -0.22673193080E+02 -0.87844190330E+01  0.28080933219E+02  0.51100000000E-03 0. -1.
        -11    1    3    3    0    0 -0.11737988098E+02  0.53374615873E+01  0.73870609063E+01  0.14860603281E+02  0.51100000000E-03 0.  1.
         12    1    3    3    0    0  0.11818755415E+02 -0.11112568155E+02 -0.21199537595E+01  0.16360512049E+02  0.00000000000E+00 0. -1.
</event>
<event>
 7    1  0.7313719E-013  0.5930194E+02  0.7816164E-02  0.1266605E+00
        -11   -1    0    0    0    0  0.00000000000E+00  0.00000000000E+00  0.45593999997E+02  0.45594000000E+02  0.51100000000E-03 0. -1.
         11   -1    0    0    0    0 -0.00000000000E+00 -0.00000000000E+00 -0.45593999997E+02  0.45594000000E+02  0.51100000000E-03 0.  1.
    9900012    2    1    2    0    0  0.27132269810E+01  0.31440000061E+02  0.45700891315E+01  0.59301938481E+02  0.49999989885E+02 0.  0.
        -12    1    1    2    0    0 -0.27132269810E+01 -0.31440000061E+02 -0.45700891315E+01  0.31886061519E+02  0.00000000000E+00 0.  1.
         11    1    3    3    0    0 -0.35812332281E+01  0.26316243259E+02 -0.44239349271E+00  0.26562484880E+02  0.51100000000E-03 0. -1.
        -11    1    3    3    0    0  0.40220419851E+01  0.14597738758E+02  0.13142769905E+02  0.20050017446E+02  0.51100000000E-03 0.  1.
        -12    1    3    3    0    0  0.22724182240E+01 -0.94739819558E+01 -0.81302872804E+01  0.12689436155E+02  0.00000000000E+00 0.  1.
</event>
<event>
 7    1  0.7313719E-013  0.5930189E+02  0.7816164E-02  0.1266605E+00
        -11   -1    0    0    0    0  0.00000000000E+00  0.00000000000E+00  0.45593999997E+02  0.45594000000E+02  0.51100000000E-03 0.  1.
         11   -1    0    0    0    0 -0.00000000000E+00 -0.00000000000E+00 -0.45593999997E+02  0.45594000000E+02  0.51100000000E-03 0. -1.
    9900012    2    1    2    0    0 -0.27205701906E+02  0.13176787160E+02 -0.10146247968E+02  0.59301885719E+02  0.49999893660E+02 0.  0.
        -12    1    1    2    0    0  0.27205701906E+02 -0.13176787160E+02  0.10146247968E+02  0.31886114281E+02  0.00000000000E+00 0.  1.
         11    1    3    3    0    0 -0.29307645743E+01  0.60797964485E+01 -0.18853196409E+02  0.20024892533E+02  0.51100000000E-03 0. -1.
        -11    1    3    3    0    0 -0.76361627441E+01 -0.10795433062E+02 -0.32653162563E+00  0.13227206039E+02  0.51100000000E-03 0.  1.
        -12    1    3    3    0    0 -0.16638774588E+02  0.17892423774E+02  0.90334800671E+01  0.26049787147E+02  0.00000000000E+00 0.  1.
</event>
<event>
 7    1  0.7313719E-013  0.5930186E+02  0.7816164E-02  0.1266605E+00
        -11   -1    0    0    0    0  0.00000000000E+00  0.00000000000E+00  0.45593999997E+02  0.45594000000E+02  0.51100000000E-03 0.  1.
         11   -1    0    0    0    0 -0.00000000000E+00 -0.00000000000E+00 -0.45593999997E+02  0.45594000000E+02  0.51100000000E-03 0. -1.
    9900012    2    1    2    0    0  0.67592926541E+01  0.22765890266E+02 -0.21277977083E+02  0.59301857155E+02  0.49999841565E+02 0.  0.
        -12    1    1    2    0    0 -0.67592926541E+01 -0.22765890266E+02  0.21277977083E+02  0.31886142845E+02  0.00000000000E+00 0.  1.
         11    1    3    3    0    0  0.96897981492E+01  0.37996293054E+01 -0.86661313491E+01  0.13543677634E+02  0.51100000000E-03 0. -1.
        -11    1    3    3    0    0  0.15179021588E+02  0.13376290052E+02 -0.16859089600E+02  0.26335465334E+02  0.51100000000E-03 0.  1.
         12    1    3    3    0    0 -0.18109527084E+02  0.55899709087E+01  0.42472438660E+01  0.19422714187E+02  0.00000000000E+00 0. -1.
</event>
<event>
 7    1  0.7313719E-013  0.5930195E+02  0.7816164E-02  0.1266605E+00
        -11   -1    0    0    0    0  0.00000000000E+00  0.00000000000E+00  0.45593999997E+02  0.45594000000E+02  0.51100000000E-03 0. -1.
         11   -1    0    0    0    0 -0.00000000000E+00 -0.00000000000E+00 -0.45593999997E+02  0.45594000000E+02  0.51100000000E-03 0.  1.
    9900012    2    1    2    0    0  0.24083106925E+02  0.14624071396E+02  0.14928512770E+02  0.59301952944E+02  0.50000016261E+02 0.  0.
        -12    1    1    2    0    0 -0.24083106925E+02 -0.14624071396E+02 -0.14928512770E+02  0.31886047056E+02  0.00000000000E+00 0.  1.
         11    1    3    3    0    0 -0.50552148894E-01  0.77927942046E+01  0.27132705797E+02  0.28229663851E+02  0.51100000000E-03 0. -1.
        -11    1    3    3    0    0  0.64434227440E+01 -0.37134190403E+01 -0.60236045555E+01  0.95703181624E+01  0.51100000000E-03 0.  1.
        -12    1    3    3    0    0  0.17690236330E+02  0.10544696232E+02 -0.61805884718E+01  0.21501970930E+02  0.00000000000E+00 0.  1.
</event>
<event>
 7    1  0.7313719E-013  0.5930193E+02  0.7816164E-02  0.1266605E+00
        -11   -1    0    0    0    0  0.00000000000E+00  0.00000000000E+00  0.45593999997E+02  0.45594000000E+02  0.51100000000E-03 0.  1.
         11   -1    0    0    0    0 -0.00000000000E+00 -0.00000000000E+00 -0.45593999997E+02  0.45594000000E+02  0.51100000000E-03 0. -1.
    9900012    2    1    2    0    0 -0.20823660781E+02  0.24035620502E+02  0.23206202493E+01  0.59301934398E+02  0.49999982437E+02 0.  0.
        -12    1    1    2    0    0  0.20823660781E+02 -0.24035620502E+02 -0.23206202493E+01  0.31886065602E+02  0.00000000000E+00 0.  1.
         11    1    3    3    0    0 -0.12075332188E+02  0.10466287943E+02  0.68322543797E+01  0.17379198225E+02  0.51100000000E-03 0. -1.
        -11    1    3    3    0    0 -0.17176606265E+02  0.13506032337E+02  0.10853502132E+02  0.24397688847E+02  0.51100000000E-03 0.  1.
         12    1    3    3    0    0  0.84282776723E+01  0.63300221999E-01 -0.15365136262E+02  0.17525047326E+02  0.00000000000E+00 0. -1.
</event>
<event>
 7    1  0.7313719E-013  0.5930182E+02  0.7816164E-02  0.1266605E+00
        -11   -1    0    0    0    0  0.00000000000E+00  0.00000000000E+00  0.45593999997E+02  0.45594000000E+02  0.51100000000E-03 0. -1.
         11   -1    0    0    0    0 -0.00000000000E+00 -0.00000000000E+00 -0.45593999997E+02  0.45594000000E+02  0.51100000000E-03 0.  1.
    9900012    2    1    2    0    0 -0.23530071897E+02  0.90209236949E+01  0.19536813857E+02  0.59301820494E+02  0.49999774704E+02 0.  0.
        -12    1    1    2    0    0  0.23530071897E+02 -0.90209236949E+01 -0.19536813857E+02  0.31886179506E+02  0.00000000000E+00 0.  1.
         11    1    3    3    0    0 -0.20290330674E+02  0.46132619847E+01 -0.44819860282E+01  0.21285391799E+02  0.51100000000E-03 0. -1.
        -11    1    3    3    0    0 -0.66495052507E+01  0.75594976581E+00 -0.51364101033E+01  0.84362366692E+01  0.51100000000E-03 0.  1.
        -12    1    3    3    0    0  0.34097640276E+01  0.36517119444E+01  0.29155209988E+02  0.29580192026E+02  0.00000000000E+00 0.  1.
</event>
<event>
 7    1  0.7313719E-013  0.5930193E+02  0.7816164E-02  0.1266605E+00
        -11   -1    0    0    0    0  0.00000000000E+00  0.00000000000E+00  0.45593999997E+02  0.45594000000E+02  0.51100000000E-03 0. -1.
         11   -1    0    0    0    0 -0.00000000000E+00 -0.00000000000E+00 -0.45593999997E+02  0.45594000000E+02  0.51100000000E-03 0.  1.
    9900012    2    1    2    0    0 -0.29443862450E+02 -0.38366580084E+01  0.11621542853E+02  0.59301933467E+02  0.49999980739E+02 0.  0.
        -12    1    1    2    0    0  0.29443862450E+02  0.38366580084E+01 -0.11621542853E+02  0.31886066533E+02  0.00000000000E+00 0.  1.
         11    1    3    3    0    0 -0.38385985274E+01 -0.26707316217E+01 -0.57363923921E+01  0.74009353455E+01  0.51100000000E-03 0. -1.
        -11    1    3    3    0    0 -0.17142355925E+02 -0.13453429468E+02 -0.73843707505E+01  0.23008347676E+02  0.51100000000E-03 0.  1.
         12    1    3    3    0    0 -0.84629079976E+01  0.12287503082E+02  0.24742305996E+02  0.28892650445E+02  0.00000000000E+00 0. -1.
</event>
<event>
 7    1  0.7313719E-013  0.5930190E+02  0.7816164E-02  0.1266605E+00
        -11   -1    0    0    0    0  0.00000000000E+00  0.00000000000E+00  0.45593999997E+02  0.45594000000E+02  0.51100000000E-03 0.  1.
         11   -1    0    0    0    0 -0.00000000000E+00 -0.00000000000E+00 -0.45593999997E+02  0.45594000000E+02  0.51100000000E-03 0. -1.
    9900012    2    1    2    0    0  0.18649978369E+02 -0.46345186471E+01 -0.25444506791E+02  0.59301899860E+02  0.49999919449E+02 0.  0.
        -12    1    1    2    0    0 -0.18649978369E+02  0.46345186471E+01  0.25444506791E+02  0.31886100140E+02  0.00000000000E+00 0.  1.
         11    1    3    3    0    0  0.92497720415E-01 -0.15744483949E+01 -0.18270737874E+02  0.18338683331E+02  0.51100000000E-03 0. -1.
        -11    1    3    3    0    0  0.22131550853E+02  0.11233095810E+02 -0.59069403035E+00  0.24826133495E+02  0.51100000000E-03 0.  1.
         12    1    3    3    0    0 -0.35740702042E+01 -0.14293166062E+02 -0.65830748866E+01  0.16137083034E+02  0.00000000000E+00 0. -1.
</event>
<event>
 7    1  0.7313719E-013  0.5930195E+02  0.7816164E-02  0.1266605E+00
        -11   -1    0    0    0    0  0.00000000000E+00  0.00000000000E+00  0.45593999997E+02  0.45594000000E+02  0.51100000000E-03 0.  1.
         11   -1    0    0    0    0 -0.00000000000E+00 -0.00000000000E+00 -0.45593999997E+02  0.45594000000E+02  0.51100000000E-03 0. -1.
    9900012    2    1    2    0    0 -0.30348247862E+02 -0.92713342420E+01 -0.31219267332E+01  0.59301949548E+02  0.50000010067E+02 0.  0.
        -12    1    1    2    0    0  0.30348247862E+02  0.92713342420E+01  0.31219267332E+01  0.31886050452E+02  0.00000000000E+00 0.  1.
         11    1    3    3    0    0 -0.88927444268E+01 -0.22599541769E+02 -0.13895940693E+01  0.24325936026E+02  0.51100000000E-03 0. -1.
        -11    1    3    3    0    0  0.38997921844E+01  0.94392407197E+00  0.45505971165E+01  0.60669025139E+01  0.51100000000E-03 0.  1.
         12    1    3    3    0    0 -0.25355295620E+02  0.12384283455E+02 -0.62829297804E+01  0.28909111008E+02  0.00000000000E+00 0. -1.
</event>
<event>
 7    1  0.7313719E-013  0.5930195E+02  0.7816164E-02  0.1266605E+00
        -11   -1    0    0    0    0  0.00000000000E+00  0.00000000000E+00  0.45593999997E+02  0.45594000000E+02  0.51100000000E-03 0. -1.
         11   -1    0    0    0    0 -0.00000000000E+00 -0.00000000000E+00 -0.45593999997E+02  0.45594000000E+02  0.51100000000E-03 0.  1.
    9900012    2    1    2    0    0  0.30479908717E+02 -0.35260399288E+01 -0.86754000416E+01  0.59301947267E+02  0.50000005908E+02 0.  0.
        -12    1    1    2    0    0 -0.30479908717E+02  0.35260399288E+01  0.86754000416E+01  0.31886052733E+02  0.00000000000E+00 0.  1.
         11    1    3    3    0    0  0.25060353864E+01 -0.19927210585E+01 -0.43426812073E+01  0.53953712480E+01  0.51100000000E-03 0. -1.
        -11    1    3    3    0    0 -0.64539438026E-02 -0.11277107703E+02 -0.18029204074E+02  0.21265591917E+02  0.51100000000E-03 0.  1.
         12    1    3    3    0    0  0.27980327275E+02  0.97437888323E+01  0.13696485240E+02  0.32640984102E+02  0.00000000000E+00 0. -1.
</event>
<event>
 7    1  0.7313719E-013  0.5930195E+02  0.7816164E-02  0.1266605E+00
        -11   -1    0    0    0    0  0.00000000000E+00  0.00000000000E+00  0.45593999997E+02  0.45594000000E+02  0.51100000000E-03 0.  1.
         11   -1    0    0    0    0 -0.00000000000E+00 -0.00000000000E+00 -0.45593999997E+02  0.45594000000E+02  0.51100000000E-03 0. -1.
    9900012    2    1    2    0    0 -0.27155792388E+02 -0.20167815777E+01  0.16589629109E+02  0.59301948785E+02  0.50000008676E+02 0.  0.
        -12    1    1    2    0    0  0.27155792388E+02  0.20167815777E+01 -0.16589629109E+02  0.31886051215E+02  0.00000000000E+00 0.  1.
         11    1    3    3    0    0 -0.79583685341E+01  0.11607292447E+02 -0.26471435679E+01  0.14320343467E+02  0.51100000000E-03 0. -1.
        -11    1    3    3    0    0  0.52369833334E+01  0.14319815333E+01  0.15022200020E+02  0.15973198154E+02  0.51100000000E-03 0.  1.
        -12    1    3    3    0    0 -0.24434407187E+02 -0.15056055558E+02  0.42145726567E+01  0.29008407164E+02  0.00000000000E+00 0.  1.
</event>
<event>
 7    1  0.7313719E-013  0.5930193E+02  0.7816164E-02  0.1266605E+00
        -11   -1    0    0    0    0  0.00000000000E+00  0.00000000000E+00  0.45593999997E+02  0.45594000000E+02  0.51100000000E-03 0.  1.
         11   -1    0    0    0    0 -0.00000000000E+00 -0.00000000000E+00 -0.45593999997E+02  0.45594000000E+02  0.51100000000E-03 0. -1.
    9900012    2    1    2    0    0 -0.22154327280E+02 -0.55068002974E+01 -0.22261683622E+02  0.59301927422E+02  0.49999969716E+02 0.  0.
        -12    1    1    2    0    0  0.22154327280E+02  0.55068002974E+01  0.22261683622E+02  0.31886072578E+02  0.00000000000E+00 0.  1.
         11    1    3    3    0    0 -0.76632233637E+01  0.10041861052E+02 -0.21460288241E+02  0.24901966536E+02  0.51100000000E-03 0. -1.
        -11    1    3    3    0    0  0.47671965263E+01 -0.14120997195E+02 -0.20707065047E+01  0.15047144254E+02  0.51100000000E-03 0.  1.
        -12    1    3    3    0    0 -0.19258300443E+02 -0.14276641540E+01  0.12693111244E+01  0.19352816633E+02  0.00000000000E+00 0.  1.
</event>
<event>
 7    1  0.7313719E-013  0.5930194E+02  0.7816164E-02  0.1266605E+00
        -11   -1    0    0    0    0  0.00000000000E+00  0.00000000000E+00  0.45593999997E+02  0.45594000000E+02  0.51100000000E-03 0.  1.
         11   -1    0    0    0    0 -0.00000000000E+00 -0.00000000000E+00 -0.45593999997E+02  0.45594000000E+02  0.51100000000E-03 0. -1.
    9900012    2    1    2    0    0 -0.27285064261E+01 -0.26131029148E+02 -0.18067799630E+02  0.59301940113E+02  0.49999992860E+02 0.  0.
        -12    1    1    2    0    0  0.27285064261E+01  0.26131029148E+02  0.18067799630E+02  0.31886059887E+02  0.00000000000E+00 0.  1.
         11    1    3    3    0    0 -0.10690999271E+01 -0.64348632487E+01  0.20832897146E+01  0.68476664624E+01  0.51100000000E-03 0. -1.
        -11    1    3    3    0    0 -0.66055580126E+01 -0.29747640624E+02 -0.25782396171E+02  0.39916005210E+02  0.51100000000E-03 0.  1.
        -12    1    3    3    0    0  0.49461515137E+01  0.10051474724E+02  0.56313068257E+01  0.12538268441E+02  0.00000000000E+00 0.  1.
</event>
<event>
 7    1  0.7313719E-013  0.5930196E+02  0.7816164E-02  0.1266605E+00
        -11   -1    0    0    0    0  0.00000000000E+00  0.00000000000E+00  0.45593999997E+02  0.45594000000E+02  0.51100000000E-03 0.  1.
         11   -1    0    0    0    0 -0.00000000000E+00 -0.00000000000E+00 -0.45593999997E+02  0.45594000000E+02  0.51100000000E-03 0. -1.
    9900012    2    1    2    0    0  0.64208509179E+01 -0.95775270603E+01 -0.29728158955E+02  0.59301956251E+02  0.50000022293E+02 0.  0.
        -12    1    1    2    0    0 -0.64208509179E+01  0.95775270603E+01  0.29728158955E+02  0.31886043749E+02  0.00000000000E+00 0.  1.
         11    1    3    3    0    0  0.50899450305E+01 -0.19464484734E+02 -0.32345056214E+00  0.20121588578E+02  0.51100000000E-03 0. -1.
        -11    1    3    3    0    0  0.34625727378E+01 -0.69215100250E+01 -0.41866344864E+01  0.87991260688E+01  0.51100000000E-03 0.  1.
        -12    1    3    3    0    0 -0.21316668504E+01  0.16808467698E+02 -0.25218073906E+02  0.30381241605E+02  0.00000000000E+00 0.  1.
</event>
<event>
 7    1  0.7313719E-013  0.5930193E+02  0.7816164E-02  0.1266605E+00
        -11   -1    0    0    0    0  0.00000000000E+00  0.00000000000E+00  0.45593999997E+02  0.45594000000E+02  0.51100000000E-03 0.  1.
         11   -1    0    0    0    0 -0.00000000000E+00 -0.00000000000E+00 -0.45593999997E+02  0.45594000000E+02  0.51100000000E-03 0. -1.
    9900012    2    1    2    0    0  0.12291619476E+02  0.10254757688E+02 -0.27576752051E+02  0.59301933792E+02  0.49999981332E+02 0.  0.
        -12    1    1    2    0    0 -0.12291619476E+02 -0.10254757688E+02  0.27576752051E+02  0.31886066208E+02  0.00000000000E+00 0.  1.
         11    1    3    3    0    0 -0.41617065821E+01  0.11673016211E+01 -0.14191549478E+01  0.45493291568E+01  0.51100000000E-03 0.  1.
        -11    1    3    3    0    0 -0.97168668969E+01  0.17969381033E+02 -0.12160381383E+02  0.23773746710E+02  0.51100000000E-03 0. -1.
         12    1    3    3    0    0  0.26170192955E+02 -0.88819249666E+01 -0.13997215720E+02  0.30978857924E+02  0.00000000000E+00 0. -1.
</event>
<event>
 7    1  0.7313719E-013  0.5930201E+02  0.7816164E-02  0.1266605E+00
        -11   -1    0    0    0    0  0.00000000000E+00  0.00000000000E+00  0.45593999997E+02  0.45594000000E+02  0.51100000000E-03 0. -1.
         11   -1    0    0    0    0 -0.00000000000E+00 -0.00000000000E+00 -0.45593999997E+02  0.45594000000E+02  0.51100000000E-03 0.  1.
    9900012    2    1    2    0    0  0.18548909532E+02 -0.97312047564E+01  0.24040754150E+02  0.59302011683E+02  0.50000123388E+02 0.  0.
        -12    1    1    2    0    0 -0.18548909532E+02  0.97312047564E+01 -0.24040754150E+02  0.31885988317E+02  0.00000000000E+00 0.  1.
         11    1    3    3    0    0  0.56956407496E+01  0.14492071766E+02 -0.66198711071E+00  0.15585207564E+02  0.51100000000E-03 0. -1.
        -11    1    3    3    0    0 -0.31084860967E+01  0.22745994702E+01 -0.40860216795E+00  0.38734280110E+01  0.51100000000E-03 0.  1.
         12    1    3    3    0    0  0.15961754879E+02 -0.26497875993E+02  0.25111343428E+02  0.39843376108E+02  0.00000000000E+00 0. -1.
</event>
<event>
 7    1  0.7313719E-013  0.5930198E+02  0.7816164E-02  0.1266605E+00
        -11   -1    0    0    0    0  0.00000000000E+00  0.00000000000E+00  0.45593999997E+02  0.45594000000E+02  0.51100000000E-03 0. -1.
         11   -1    0    0    0    0 -0.00000000000E+00 -0.00000000000E+00 -0.45593999997E+02  0.45594000000E+02  0.51100000000E-03 0.  1.
    9900012    2    1    2    0    0 -0.89673636409E+00 -0.17658146641E+02  0.26534954344E+02  0.59301982987E+02  0.50000071052E+02 0.  0.
        -12    1    1    2    0    0  0.89673636409E+00  0.17658146641E+02 -0.26534954344E+02  0.31886017013E+02  0.00000000000E+00 0.  1.
         11    1    3    3    0    0  0.18601384243E+02 -0.32618235830E+01 -0.16522197589E+01  0.18957342093E+02  0.51100000000E-03 0. -1.
        -11    1    3    3    0    0 -0.17047206753E+02 -0.31712652858E+01  0.15966294026E+02  0.23570887272E+02  0.51100000000E-03 0.  1.
        -12    1    3    3    0    0 -0.24509138546E+01 -0.11225057773E+02  0.12220880077E+02  0.16773753622E+02  0.00000000000E+00 0.  1.
</event>
<event>
 7    1  0.7313719E-013  0.5930195E+02  0.7816164E-02  0.1266605E+00
        -11   -1    0    0    0    0  0.00000000000E+00  0.00000000000E+00  0.45593999997E+02  0.45594000000E+02  0.51100000000E-03 0. -1.
         11   -1    0    0    0    0 -0.00000000000E+00 -0.00000000000E+00 -0.45593999997E+02  0.45594000000E+02  0.51100000000E-03 0.  1.
    9900012    2    1    2    0    0 -0.17962916885E+02 -0.10242573897E+02  0.24272272387E+02  0.59301954308E+02  0.50000018749E+02 0.  0.
        -12    1    1    2    0    0  0.17962916885E+02  0.10242573897E+02 -0.24272272387E+02  0.31886045692E+02  0.00000000000E+00 0.  1.
         11    1    3    3    0    0 -0.22919081571E+02  0.10845514208E+02  0.15507487441E+02  0.29721905146E+02  0.51100000000E-03 0. -1.
        -11    1    3    3    0    0  0.23932499906E+01 -0.66129385971E+00 -0.44647968957E+01  0.51087539251E+01  0.51100000000E-03 0.  1.
         12    1    3    3    0    0  0.25629146959E+01 -0.20426794245E+02  0.13229581842E+02  0.24471295237E+02  0.00000000000E+00 0. -1.
</event>
<event>
 7    1  0.7313719E-013  0.5930196E+02  0.7816164E-02  0.1266605E+00
        -11   -1    0    0    0    0  0.00000000000E+00  0.00000000000E+00  0.45593999997E+02  0.45594000000E+02  0.51100000000E-03 0. -1.
         11   -1    0    0    0    0 -0.00000000000E+00 -0.00000000000E+00 -0.45593999997E+02  0.45594000000E+02  0.51100000000E-03 0.  1.
    9900012    2    1    2    0    0  0.25209898848E+02  0.55651691869E+01  0.18713879770E+02  0.59301962239E+02  0.50000033214E+02 0.  0.
        -12    1    1    2    0    0 -0.25209898848E+02 -0.55651691869E+01 -0.18713879770E+02  0.31886037761E+02  0.00000000000E+00 0.  1.
         11    1    3    3    0    0  0.13951706085E+02  0.25325837758E+01  0.36609854395E+01  0.14644688385E+02  0.51100000000E-03 0. -1.
        -11    1    3    3    0    0  0.76883762262E+01  0.57593622690E+01 -0.13046198868E+02  0.16201379197E+02  0.51100000000E-03 0.  1.
         12    1    3    3    0    0  0.35698165375E+01 -0.27267768578E+01  0.28099093198E+02  0.28455894657E+02  0.00000000000E+00 0. -1.
</event>
<event>
 7    1  0.7313719E-013  0.5930195E+02  0.7816164E-02  0.1266605E+00
        -11   -1    0    0    0    0  0.00000000000E+00  0.00000000000E+00  0.45593999997E+02  0.45594000000E+02  0.51100000000E-03 0.  1.
         11   -1    0    0    0    0 -0.00000000000E+00 -0.00000000000E+00 -0.45593999997E+02  0.45594000000E+02  0.51100000000E-03 0. -1.
    9900012    2    1    2    0    0  0.63038269651E+01  0.28405651005E+02 -0.13042281544E+02  0.59301947387E+02  0.50000006126E+02 0.  0.
        -12    1    1    2    0    0 -0.63038269651E+01 -0.28405651005E+02  0.13042281544E+02  0.31886052613E+02  0.00000000000E+00 0.  1.
         11    1    3    3    0    0  0.97302928797E+01  0.24997456059E+02  0.11520489593E+01  0.26849182967E+02  0.51100000000E-03 0. -1.
        -11    1    3    3    0    0  0.12497901471E+02  0.42639068826E+01 -0.56822831269E+01  0.14375909880E+02  0.51100000000E-03 0.  1.
         12    1    3    3    0    0 -0.15924367385E+02 -0.85571193643E+00 -0.85120473760E+01  0.18076854540E+02  0.00000000000E+00 0. -1.
</event>
<event>
 7    1  0.7313719E-013  0.5930195E+02  0.7816164E-02  0.1266605E+00
        -11   -1    0    0    0    0  0.00000000000E+00  0.00000000000E+00  0.45593999997E+02  0.45594000000E+02  0.51100000000E-03 0.  1.
         11   -1    0    0    0    0 -0.00000000000E+00 -0.00000000000E+00 -0.45593999997E+02  0.45594000000E+02  0.51100000000E-03 0. -1.
    9900012    2    1    2    0    0 -0.22941171611E+02 -0.19041415834E+02  0.11306969885E+02  0.59301945998E+02  0.50000003593E+02 0.  0.
        -12    1    1    2    0    0  0.22941171611E+02  0.19041415834E+02 -0.11306969885E+02  0.31886054002E+02  0.00000000000E+00 0.  1.
         11    1    3    3    0    0 -0.35409237315E+01  0.99026042093E+00 -0.89642591776E+00  0.37844862612E+01  0.51100000000E-03 0. -1.
        -11    1    3    3    0    0 -0.50182978685E+01  0.53585303399E+01  0.23199852372E+02  0.24333727854E+02  0.51100000000E-03 0.  1.
         12    1    3    3    0    0 -0.14381950011E+02 -0.25390206595E+02 -0.10996456570E+02  0.31183731883E+02  0.00000000000E+00 0. -1.
</event>
<event>
 7    1  0.7313719E-013  0.5930193E+02  0.7816164E-02  0.1266605E+00
        -11   -1    0    0    0    0  0.00000000000E+00  0.00000000000E+00  0.45593999997E+02  0.45594000000E+02  0.51100000000E-03 0. -1.
         11   -1    0    0    0    0 -0.00000000000E+00 -0.00000000000E+00 -0.45593999997E+02  0.45594000000E+02  0.51100000000E-03 0.  1.
    9900012    2    1    2    0    0 -0.36438031262E+01 -0.22241599682E+02  0.22555605319E+02  0.59301931115E+02  0.49999976450E+02 0.  0.
        -12    1    1    2    0    0  0.36438031262E+01  0.22241599682E+02 -0.22555605319E+02  0.31886068885E+02  0.00000000000E+00 0.  1.
         11    1    3    3    0    0  0.43537388076E+01 -0.14552899222E+02  0.25967317863E+02  0.30083941142E+02  0.51100000000E-03 0. -1.
        -11    1    3    3    0    0 -0.39175808902E+01  0.10035696487E+02 -0.21553846244E+01  0.10986734144E+02  0.51100000000E-03 0.  1.
         12    1    3    3    0    0 -0.40799610435E+01 -0.17724396947E+02 -0.12563279194E+01  0.18231255828E+02  0.00000000000E+00 0. -1.
</event>
<event>
 7    1  0.7313719E-013  0.5930185E+02  0.7816164E-02  0.1266605E+00
        -11   -1    0    0    0    0  0.00000000000E+00  0.00000000000E+00  0.45593999997E+02  0.45594000000E+02  0.51100000000E-03 0.  1.
         11   -1    0    0    0    0 -0.00000000000E+00 -0.00000000000E+00 -0.45593999997E+02  0.45594000000E+02  0.51100000000E-03 0. -1.
    9900012    2    1    2    0    0 -0.24716735611E+02  0.12067699442E+02 -0.16130107346E+02  0.59301847016E+02  0.49999823074E+02 0.  0.
        -12    1    1    2    0    0  0.24716735611E+02 -0.12067699442E+02  0.16130107346E+02  0.31886152984E+02  0.00000000000E+00 0.  1.
         11    1    3    3    0    0  0.36157984332E+01  0.19811593709E+01 -0.86129609728E+01  0.95489312356E+01  0.51100000000E-03 0. -1.
        -11    1    3    3    0    0 -0.10649390086E+02  0.75369116220E+01  0.15728173605E+02  0.20435018748E+02  0.51100000000E-03 0.  1.
         12    1    3    3    0    0 -0.17683143958E+02  0.25496284491E+01 -0.23245319979E+02  0.29317897032E+02  0.00000000000E+00 0. -1.
</event>
<event>
 7    1  0.7313719E-013  0.5930197E+02  0.7816164E-02  0.1266605E+00
        -11   -1    0    0    0    0  0.00000000000E+00  0.00000000000E+00  0.45593999997E+02  0.45594000000E+02  0.51100000000E-03 0. -1.
         11   -1    0    0    0    0 -0.00000000000E+00 -0.00000000000E+00 -0.45593999997E+02  0.45594000000E+02  0.51100000000E-03 0.  1.
    9900012    2    1    2    0    0 -0.65784947191E+01  0.30931087508E+02 -0.40878240670E+01  0.59301967434E+02  0.50000042687E+02 0.  0.
        -12    1    1    2    0    0  0.65784947191E+01 -0.30931087508E+02  0.40878240670E+01  0.31886032566E+02  0.00000000000E+00 0.  1.
         11    1    3    3    0    0 -0.77518283078E+01  0.11853291265E+02 -0.62734429367E+00  0.14176914935E+02  0.51100000000E-03 0. -1.
        -11    1    3    3    0    0 -0.19747158931E+02  0.10586961712E+02 -0.12939149060E+01  0.22443445818E+02  0.51100000000E-03 0.  1.
        -12    1    3    3    0    0  0.20920492520E+02  0.84908345311E+01 -0.21665648673E+01  0.22681606681E+02  0.00000000000E+00 0.  1.
</event>
<event>
 7    1  0.7313719E-013  0.5930193E+02  0.7816164E-02  0.1266605E+00
        -11   -1    0    0    0    0  0.00000000000E+00  0.00000000000E+00  0.45593999997E+02  0.45594000000E+02  0.51100000000E-03 0.  1.
         11   -1    0    0    0    0 -0.00000000000E+00 -0.00000000000E+00 -0.45593999997E+02  0.45594000000E+02  0.51100000000E-03 0. -1.
    9900012    2    1    2    0    0  0.66293886923E+01 -0.13530031009E+02 -0.28101790153E+02  0.59301934966E+02  0.49999983473E+02 0.  0.
        -12    1    1    2    0    0 -0.66293886923E+01  0.13530031009E+02  0.28101790153E+02  0.31886065034E+02  0.00000000000E+00 0.  1.
         11    1    3    3    0    0 -0.11456338978E+02  0.35965782951E+01  0.16735761637E+01  0.12123693152E+02  0.51100000000E-03 0. -1.
        -11    1    3    3    0    0  0.67530251781E+01  0.20711902756E+01 -0.22723950433E+02  0.23796451453E+02  0.51100000000E-03 0.  1.
        -12    1    3    3    0    0  0.11332702492E+02 -0.19197799580E+02 -0.70514158836E+01  0.23381790360E+02  0.00000000000E+00 0.  1.
</event>
<event>
 7    1  0.7313719E-013  0.5930195E+02  0.7816164E-02  0.1266605E+00
        -11   -1    0    0    0    0  0.00000000000E+00  0.00000000000E+00  0.45593999997E+02  0.45594000000E+02  0.51100000000E-03 0.  1.
         11   -1    0    0    0    0 -0.00000000000E+00 -0.00000000000E+00 -0.45593999997E+02  0.45594000000E+02  0.51100000000E-03 0. -1.
    9900012    2    1    2    0    0 -0.27673639334E+01 -0.13575274368E+02 -0.28718879548E+02  0.59301946312E+02  0.50000004166E+02 0.  0.
        -12    1    1    2    0    0  0.27673639334E+01  0.13575274368E+02  0.28718879548E+02  0.31886053688E+02  0.00000000000E+00 0.  1.
         11    1    3    3    0    0 -0.12948127331E+02 -0.18996223319E+02 -0.71539242344E-01  0.22989467586E+02  0.51100000000E-03 0. -1.
        -11    1    3    3    0    0  0.11458620570E+01 -0.32372740360E+01  0.14421185817E+01  0.37246005561E+01  0.51100000000E-03 0.  1.
         12    1    3    3    0    0  0.90349013401E+01  0.86582229872E+01 -0.30089458887E+02  0.32587878170E+02  0.00000000000E+00 0. -1.
</event>
<event>
 7    1  0.7313719E-013  0.5930183E+02  0.7816164E-02  0.1266605E+00
        -11   -1    0    0    0    0  0.00000000000E+00  0.00000000000E+00  0.45593999997E+02  0.45594000000E+02  0.51100000000E-03 0.  1.
         11   -1    0    0    0    0 -0.00000000000E+00 -0.00000000000E+00 -0.45593999997E+02  0.45594000000E+02  0.51100000000E-03 0. -1.
    9900012    2    1    2    0    0 -0.12318803574E+02 -0.60678963724E+01 -0.28777691364E+02  0.59301830457E+02  0.49999792874E+02 0.  0.
        -12    1    1    2    0    0  0.12318803574E+02  0.60678963724E+01  0.28777691364E+02  0.31886169543E+02  0.00000000000E+00 0.  1.
         11    1    3    3    0    0 -0.28408767665E+02 -0.42859839802E+01 -0.11318875803E+02  0.30879518919E+02  0.51100000000E-03 0. -1.
        -11    1    3    3    0    0  0.43094937242E+00  0.54160435091E+00  0.27019158392E+01  0.27891579550E+01  0.51100000000E-03 0.  1.
         12    1    3    3    0    0  0.15659014719E+02 -0.23235167431E+01 -0.20160731400E+02  0.25633153583E+02  0.00000000000E+00 0. -1.
</event>
<event>
 7    1  0.7313719E-013  0.5930200E+02  0.7816164E-02  0.1266605E+00
        -11   -1    0    0    0    0  0.00000000000E+00  0.00000000000E+00  0.45593999997E+02  0.45594000000E+02  0.51100000000E-03 0.  1.
         11   -1    0    0    0    0 -0.00000000000E+00 -0.00000000000E+00 -0.45593999997E+02  0.45594000000E+02  0.51100000000E-03 0. -1.
    9900012    2    1    2    0    0  0.15878900169E+02  0.22728666250E+02 -0.15747554214E+02  0.59301996742E+02  0.50000096137E+02 0.  0.
        -12    1    1    2    0    0 -0.15878900169E+02 -0.22728666250E+02  0.15747554214E+02  0.31886003258E+02  0.00000000000E+00 0.  1.
         11    1    3    3    0    0  0.19072204341E+02 -0.99000288479E+01 -0.14746972420E+02  0.26062094034E+02  0.51100000000E-03 0. -1.
        -11    1    3    3    0    0 -0.14870428527E+01  0.13174517541E+02  0.22337275352E+01  0.13445026882E+02  0.51100000000E-03 0.  1.
        -12    1    3    3    0    0 -0.17062613200E+01  0.19454177557E+02 -0.32343093286E+01  0.19794875825E+02  0.00000000000E+00 0.  1.
</event>
<event>
 7    1  0.7313719E-013  0.5930196E+02  0.7816164E-02  0.1266605E+00
        -11   -1    0    0    0    0  0.00000000000E+00  0.00000000000E+00  0.45593999997E+02  0.45594000000E+02  0.51100000000E-03 0. -1.
         11   -1    0    0    0    0 -0.00000000000E+00 -0.00000000000E+00 -0.45593999997E+02  0.45594000000E+02  0.51100000000E-03 0.  1.
    9900012    2    1    2    0    0  0.90826385753E+00  0.31562036823E+02  0.44421495062E+01  0.59301955970E+02  0.50000021780E+02 0.  0.
        -12    1    1    2    0    0 -0.90826385753E+00 -0.31562036823E+02 -0.44421495062E+01  0.31886044030E+02  0.00000000000E+00 0.  1.
         11    1    3    3    0    0  0.14374861898E+02  0.96898819079E+01  0.91607153397E+01  0.19607375443E+02  0.51100000000E-03 0.  1.
        -11    1    3    3    0    0  0.13525520994E+01  0.19037524197E+02 -0.12403959044E+02  0.22762137969E+02  0.51100000000E-03 0. -1.
         12    1    3    3    0    0 -0.14819150140E+02  0.28346307183E+01  0.76853932103E+01  0.16932442558E+02  0.00000000000E+00 0. -1.
</event>
<event>
 7    1  0.7313719E-013  0.5930193E+02  0.7816164E-02  0.1266605E+00
        -11   -1    0    0    0    0  0.00000000000E+00  0.00000000000E+00  0.45593999997E+02  0.45594000000E+02  0.51100000000E-03 0. -1.
         11   -1    0    0    0    0 -0.00000000000E+00 -0.00000000000E+00 -0.45593999997E+02  0.45594000000E+02  0.51100000000E-03 0.  1.
    9900012    2    1    2    0    0 -0.22928618850E+01 -0.31305846586E+02 -0.56042773278E+01  0.59301934541E+02  0.49999982698E+02 0.  0.
        -12    1    1    2    0    0  0.22928618850E+01  0.31305846586E+02  0.56042773278E+01  0.31886065459E+02  0.00000000000E+00 0.  1.
         11    1    3    3    0    0 -0.78076027735E+01 -0.10865089821E+02  0.96550093277E+01  0.16499334631E+02  0.51100000000E-03 0. -1.
        -11    1    3    3    0    0  0.11644481994E+02 -0.24590399636E+02 -0.15860994031E+01  0.27254310241E+02  0.51100000000E-03 0.  1.
         12    1    3    3    0    0 -0.61297411053E+01  0.41496428706E+01 -0.13673187252E+02  0.15548289668E+02  0.00000000000E+00 0. -1.
</event>
<event>
 7    1  0.7313719E-013  0.5930187E+02  0.7816164E-02  0.1266605E+00
        -11   -1    0    0    0    0  0.00000000000E+00  0.00000000000E+00  0.45593999997E+02  0.45594000000E+02  0.51100000000E-03 0.  1.
         11   -1    0    0    0    0 -0.00000000000E+00 -0.00000000000E+00 -0.45593999997E+02  0.45594000000E+02  0.51100000000E-03 0. -1.
    9900012    2    1    2    0    0 -0.85832792859E+01  0.18976968593E+02 -0.24143888264E+02  0.59301868833E+02  0.49999862863E+02 0.  0.
        -12    1    1    2    0    0  0.85832792859E+01 -0.18976968593E+02  0.24143888264E+02  0.31886131167E+02  0.00000000000E+00 0.  1.
         11    1    3    3    0    0 -0.15119551926E+02  0.13058381712E+02 -0.26173013313E+01  0.20148758024E+02  0.51100000000E-03 0. -1.
        -11    1    3    3    0    0 -0.35065427491E+01 -0.11809439112E+02 -0.76374802005E+01  0.14494474749E+02  0.51100000000E-03 0.  1.
        -12    1    3    3    0    0  0.10042815389E+02  0.17728025992E+02 -0.13889106732E+02  0.24658636060E+02  0.00000000000E+00 0.  1.
</event>
<event>
 7    1  0.7313719E-013  0.5930196E+02  0.7816164E-02  0.1266605E+00
        -11   -1    0    0    0    0  0.00000000000E+00  0.00000000000E+00  0.45593999997E+02  0.45594000000E+02  0.51100000000E-03 0.  1.
         11   -1    0    0    0    0 -0.00000000000E+00 -0.00000000000E+00 -0.45593999997E+02  0.45594000000E+02  0.51100000000E-03 0. -1.
    9900012    2    1    2    0    0 -0.14183436100E+00  0.31882718819E+02  0.43813301887E+00  0.59301955453E+02  0.50000020838E+02 0.  0.
        -12    1    1    2    0    0  0.14183436100E+00 -0.31882718819E+02 -0.43813301887E+00  0.31886044547E+02  0.00000000000E+00 0.  1.
         11    1    3    3    0    0 -0.55507929980E+01 -0.24135048757E+01  0.80124974704E+01  0.10041734146E+02  0.51100000000E-03 0. -1.
        -11    1    3    3    0    0  0.94323232508E+01 -0.39319913275E+01 -0.10777639243E+01  0.10275740997E+02  0.51100000000E-03 0.  1.
         12    1    3    3    0    0 -0.40233646138E+01  0.38228215022E+02 -0.64966005272E+01  0.38984480310E+02  0.00000000000E+00 0. -1.
</event>
<event>
 7    1  0.7313719E-013  0.5930194E+02  0.7816164E-02  0.1266605E+00
        -11   -1    0    0    0    0  0.00000000000E+00  0.00000000000E+00  0.45593999997E+02  0.45594000000E+02  0.51100000000E-03 0. -1.
         11   -1    0    0    0    0 -0.00000000000E+00 -0.00000000000E+00 -0.45593999997E+02  0.45594000000E+02  0.51100000000E-03 0.  1.
    9900012    2    1    2    0    0  0.26828415882E+02 -0.37530656039E+01  0.16818789121E+02  0.59301936153E+02  0.49999985639E+02 0.  0.
        -12    1    1    2    0    0 -0.26828415882E+02  0.37530656039E+01 -0.16818789121E+02  0.31886063847E+02  0.00000000000E+00 0.  1.
         11    1    3    3    0    0  0.26350253596E+01 -0.15489312571E+01  0.16187380375E+02  0.16473428009E+02  0.51100000000E-03 0. -1.
        -11    1    3    3    0    0  0.25887128189E+02 -0.13561708763E+02  0.64912765489E+01  0.29936600040E+02  0.51100000000E-03 0.  1.
        -12    1    3    3    0    0 -0.16937376665E+01  0.11357574416E+02 -0.58598678033E+01  0.12891908105E+02  0.00000000000E+00 0.  1.
</event>
<event>
 7    1  0.7313719E-013  0.5930194E+02  0.7816164E-02  0.1266605E+00
        -11   -1    0    0    0    0  0.00000000000E+00  0.00000000000E+00  0.45593999997E+02  0.45594000000E+02  0.51100000000E-03 0. -1.
         11   -1    0    0    0    0 -0.00000000000E+00 -0.00000000000E+00 -0.45593999997E+02  0.45594000000E+02  0.51100000000E-03 0.  1.
    9900012    2    1    2    0    0 -0.11503915440E+01  0.27777758578E+02  0.15613888428E+02  0.59301940598E+02  0.49999993745E+02 0.  0.
        -12    1    1    2    0    0  0.11503915440E+01 -0.27777758578E+02 -0.15613888428E+02  0.31886059402E+02  0.00000000000E+00 0.  1.
         11    1    3    3    0    0  0.60880849717E+01  0.71816737963E+01 -0.33138692721E+01  0.99811295430E+01  0.51100000000E-03 0. -1.
        -11    1    3    3    0    0 -0.18706044378E+02  0.18767650182E+02 -0.70900342279E+00  0.26507423031E+02  0.51100000000E-03 0.  1.
         12    1    3    3    0    0  0.11467567862E+02  0.18284345999E+01  0.19636761123E+02  0.22813388024E+02  0.00000000000E+00 0. -1.
</event>
<event>
 7    1  0.7313719E-013  0.5930194E+02  0.7816164E-02  0.1266605E+00
        -11   -1    0    0    0    0  0.00000000000E+00  0.00000000000E+00  0.45593999997E+02  0.45594000000E+02  0.51100000000E-03 0.  1.
         11   -1    0    0    0    0 -0.00000000000E+00 -0.00000000000E+00 -0.45593999997E+02  0.45594000000E+02  0.51100000000E-03 0. -1.
    9900012    2    1    2    0    0  0.19494894938E+02 -0.17833830157E+02 -0.17850048799E+02  0.59301942407E+02  0.49999997044E+02 0.  0.
        -12    1    1    2    0    0 -0.19494894938E+02  0.17833830157E+02  0.17850048799E+02  0.31886057593E+02  0.00000000000E+00 0.  1.
         11    1    3    3    0    0  0.97346813791E+01 -0.60537059588E+01 -0.10146976703E+02  0.15309229695E+02  0.51100000000E-03 0. -1.
        -11    1    3    3    0    0  0.26439932715E+01 -0.19050005266E+02 -0.20191418908E+02  0.27885243388E+02  0.51100000000E-03 0.  1.
        -12    1    3    3    0    0  0.71162202874E+01  0.72698810679E+01  0.12488346811E+02  0.16107469323E+02  0.00000000000E+00 0.  1.
</event>
<event>
 7    1  0.7313719E-013  0.5930179E+02  0.7816164E-02  0.1266605E+00
        -11   -1    0    0    0    0  0.00000000000E+00  0.00000000000E+00  0.45593999997E+02  0.45594000000E+02  0.51100000000E-03 0.  1.
         11   -1    0    0    0    0 -0.00000000000E+00 -0.00000000000E+00 -0.45593999997E+02  0.45594000000E+02  0.51100000000E-03 0. -1.
    9900012    2    1    2    0    0 -0.18182818928E+00  0.77511019248E+01 -0.30929237609E+02  0.59301790102E+02  0.49999719276E+02 0.  0.
        -12    1    1    2    0    0  0.18182818928E+00 -0.77511019248E+01  0.30929237609E+02  0.31886209898E+02  0.00000000000E+00 0.  1.
         11    1    3    3    0    0 -0.67623479678E+01  0.97806158516E+01 -0.26386437182E+02  0.28941904981E+02  0.51100000000E-03 0. -1.
        -11    1    3    3    0    0 -0.55537222655E+01 -0.12652212329E+02 -0.31561194899E+01  0.14173334058E+02  0.51100000000E-03 0.  1.
        -12    1    3    3    0    0  0.12134242044E+02  0.10622698402E+02 -0.13866809369E+01  0.16186551064E+02  0.00000000000E+00 0.  1.
</event>
<event>
 7    1  0.7313719E-013  0.5930195E+02  0.7816164E-02  0.1266605E+00
        -11   -1    0    0    0    0  0.00000000000E+00  0.00000000000E+00  0.45593999997E+02  0.45594000000E+02  0.51100000000E-03 0.  1.
         11   -1    0    0    0    0 -0.00000000000E+00 -0.00000000000E+00 -0.45593999997E+02  0.45594000000E+02  0.51100000000E-03 0. -1.
    9900012    2    1    2    0    0 -0.10373801313E+02  0.56283326832E+01 -0.29621378520E+02  0.59301953712E+02  0.50000017662E+02 0.  0.
        -12    1    1    2    0    0  0.10373801313E+02 -0.56283326832E+01  0.29621378520E+02  0.31886046288E+02  0.00000000000E+00 0.  1.
         11    1    3    3    0    0  0.69439801588E+01 -0.74901579245E+01 -0.12841655780E+01  0.10294192910E+02  0.51100000000E-03 0. -1.
        -11    1    3    3    0    0 -0.20336568923E+01  0.21287103750E+02 -0.94632498611E+01  0.23384388908E+02  0.51100000000E-03 0.  1.
         12    1    3    3    0    0 -0.15284124579E+02 -0.81686131423E+01 -0.18873963081E+02  0.25623371894E+02  0.00000000000E+00 0. -1.
</event>
<event>
 7    1  0.7313719E-013  0.5930195E+02  0.7816164E-02  0.1266605E+00
        -11   -1    0    0    0    0  0.00000000000E+00  0.00000000000E+00  0.45593999997E+02  0.45594000000E+02  0.51100000000E-03 0. -1.
         11   -1    0    0    0    0 -0.00000000000E+00 -0.00000000000E+00 -0.45593999997E+02  0.45594000000E+02  0.51100000000E-03 0.  1.
    9900012    2    1    2    0    0 -0.10920455438E+02 -0.23249078045E+02  0.18892970157E+02  0.59301948218E+02  0.50000007642E+02 0.  0.
        -12    1    1    2    0    0  0.10920455438E+02  0.23249078045E+02 -0.18892970157E+02  0.31886051782E+02  0.00000000000E+00 0.  1.
         11    1    3    3    0    0  0.10584745542E+02 -0.17165532249E+02  0.25372896596E+01  0.20325603918E+02  0.51100000000E-03 0. -1.
        -11    1    3    3    0    0 -0.97693622981E+00  0.71287883220E+01  0.12270059890E+02  0.14224218688E+02  0.51100000000E-03 0.  1.
         12    1    3    3    0    0 -0.20528264751E+02 -0.13212334118E+02  0.40856206072E+01  0.24752125611E+02  0.00000000000E+00 0. -1.
</event>
<event>
 7    1  0.7313719E-013  0.5930192E+02  0.7816164E-02  0.1266605E+00
        -11   -1    0    0    0    0  0.00000000000E+00  0.00000000000E+00  0.45593999997E+02  0.45594000000E+02  0.51100000000E-03 0.  1.
         11   -1    0    0    0    0 -0.00000000000E+00 -0.00000000000E+00 -0.45593999997E+02  0.45594000000E+02  0.51100000000E-03 0. -1.
    9900012    2    1    2    0    0 -0.87631865175E+01  0.23763512182E+02 -0.19370702670E+02  0.59301920418E+02  0.49999956942E+02 0.  0.
        -12    1    1    2    0    0  0.87631865175E+01 -0.23763512182E+02  0.19370702670E+02  0.31886079582E+02  0.00000000000E+00 0.  1.
         11    1    3    3    0    0  0.64918785949E+01 -0.13927281107E+01 -0.95510736169E+01  0.11632161741E+02  0.51100000000E-03 0. -1.
        -11    1    3    3    0    0 -0.14927327831E+02  0.25676372537E+02  0.72635779396E+01  0.30575493252E+02  0.51100000000E-03 0.  1.
         12    1    3    3    0    0 -0.32773728124E+00 -0.52013224436E+00 -0.17083206992E+02  0.17094265425E+02  0.00000000000E+00 0. -1.
</event>
<event>
 7    1  0.7313719E-013  0.5930193E+02  0.7816164E-02  0.1266605E+00
        -11   -1    0    0    0    0  0.00000000000E+00  0.00000000000E+00  0.45593999997E+02  0.45594000000E+02  0.51100000000E-03 0.  1.
         11   -1    0    0    0    0 -0.00000000000E+00 -0.00000000000E+00 -0.45593999997E+02  0.45594000000E+02  0.51100000000E-03 0. -1.
    9900012    2    1    2    0    0  0.88757863593E+00  0.28127147559E+02  0.14993250082E+02  0.59301925082E+02  0.49999965448E+02 0.  0.
        -12    1    1    2    0    0 -0.88757863593E+00 -0.28127147559E+02 -0.14993250082E+02  0.31886074918E+02  0.00000000000E+00 0.  1.
         11    1    3    3    0    0 -0.39592689054E+01  0.17355259054E+02  0.12211596834E+02  0.21587124046E+02  0.51100000000E-03 0.  1.
        -11    1    3    3    0    0  0.48325681523E+00  0.22769753822E+02 -0.42073081384E+01  0.23160238952E+02  0.51100000000E-03 0. -1.
         12    1    3    3    0    0  0.43635907261E+01 -0.11997865317E+02  0.69889613865E+01  0.14554562084E+02  0.00000000000E+00 0. -1.
</event>
<event>
 7    1  0.7313719E-013  0.5930196E+02  0.7816164E-02  0.1266605E+00
        -11   -1    0    0    0    0  0.00000000000E+00  0.00000000000E+00  0.45593999997E+02  0.45594000000E+02  0.51100000000E-03 0.  1.
         11   -1    0    0    0    0 -0.00000000000E+00 -0.00000000000E+00 -0.45593999997E+02  0.45594000000E+02  0.51100000000E-03 0. -1.
    9900012    2    1    2    0    0  0.30624573116E+02 -0.21470641371E+01  0.86165742216E+01  0.59301957375E+02  0.50000024342E+02 0.  0.
        -12    1    1    2    0    0 -0.30624573116E+02  0.21470641371E+01 -0.86165742216E+01  0.31886042625E+02  0.00000000000E+00 0.  1.
         11    1    3    3    0    0 -0.41359641097E+00  0.22184940641E+01  0.27200794625E+01  0.35343472449E+01  0.51100000000E-03 0. -1.
        -11    1    3    3    0    0  0.59385352513E+01  0.19158595209E+02  0.72836791665E+01  0.21339399096E+02  0.51100000000E-03 0.  1.
         12    1    3    3    0    0  0.25099634276E+02 -0.23524153410E+02 -0.13871844075E+01  0.34428211034E+02  0.00000000000E+00 0. -1.
</event>
<event>
 7    1  0.7313719E-013  0.5930195E+02  0.7816164E-02  0.1266605E+00
        -11   -1    0    0    0    0  0.00000000000E+00  0.00000000000E+00  0.45593999997E+02  0.45594000000E+02  0.51100000000E-03 0. -1.
         11   -1    0    0    0    0 -0.00000000000E+00 -0.00000000000E+00 -0.45593999997E+02  0.45594000000E+02  0.51100000000E-03 0.  1.
    9900012    2    1    2    0    0  0.30718539362E+02  0.64483010817E+01  0.56134654742E+01  0.59301949099E+02  0.50000009250E+02 0.  0.
        -12    1    1    2    0    0 -0.30718539362E+02 -0.64483010817E+01 -0.56134654742E+01  0.31886050901E+02  0.00000000000E+00 0.  1.
         11    1    3    3    0    0  0.38179246764E+00  0.74180856713E+01  0.19071560968E+01  0.76688333633E+01  0.51100000000E-03 0.  1.
        -11    1    3    3    0    0  0.72938652937E+01 -0.52372664912E+01 -0.17729296369E+02  0.19873534694E+02  0.51100000000E-03 0. -1.
         12    1    3    3    0    0  0.23042881601E+02  0.42674819017E+01  0.21435605747E+02  0.31759581042E+02  0.00000000000E+00 0. -1.
</event>
<event>
 7    1  0.7313719E-013  0.5930186E+02  0.7816164E-02  0.1266605E+00
        -11   -1    0    0    0    0  0.00000000000E+00  0.00000000000E+00  0.45593999997E+02  0.45594000000E+02  0.51100000000E-03 0. -1.
         11   -1    0    0    0    0 -0.00000000000E+00 -0.00000000000E+00 -0.45593999997E+02  0.45594000000E+02  0.51100000000E-03 0.  1.
    9900012    2    1    2    0    0 -0.18447767561E+02 -0.24745971459E+01  0.25889809077E+02  0.59301859232E+02  0.49999845353E+02 0.  0.
        -12    1    1    2    0    0  0.18447767561E+02  0.24745971459E+01 -0.25889809077E+02  0.31886140768E+02  0.00000000000E+00 0.  1.
         11    1    3    3    0    0 -0.14254212384E+01 -0.12522003787E+02  0.11667603437E+02  0.17174556028E+02  0.51100000000E-03 0. -1.
        -11    1    3    3    0    0 -0.24863003982E+02  0.27056731350E+01  0.17920144577E+02  0.30767210079E+02  0.51100000000E-03 0.  1.
        -12    1    3    3    0    0  0.78406576593E+01  0.73417335063E+01 -0.36979389372E+01  0.11360093124E+02  0.00000000000E+00 0.  1.
</event>
<event>
 7    1  0.7313719E-013  0.5930196E+02  0.7816164E-02  0.1266605E+00
        -11   -1    0    0    0    0  0.00000000000E+00  0.00000000000E+00  0.45593999997E+02  0.45594000000E+02  0.51100000000E-03 0.  1.
         11   -1    0    0    0    0 -0.00000000000E+00 -0.00000000000E+00 -0.45593999997E+02  0.45594000000E+02  0.51100000000E-03 0. -1.
    9900012    2    1    2    0    0 -0.15710983551E+02  0.24224866946E+02 -0.13529250011E+02  0.59301956211E+02  0.50000022219E+02 0.  0.
        -12    1    1    2    0    0  0.15710983551E+02 -0.24224866946E+02  0.13529250011E+02  0.31886043789E+02  0.00000000000E+00 0.  1.
         11    1    3    3    0    0 -0.10842041825E+02  0.26708136104E+02 -0.80810608713E+01  0.29936231396E+02  0.51100000000E-03 0. -1.
        -11    1    3    3    0    0 -0.45919572413E+01  0.12223336372E+02  0.14155306493E+01  0.13133916044E+02  0.51100000000E-03 0.  1.
         12    1    3    3    0    0 -0.27698448397E+00 -0.14706605531E+02 -0.68637197886E+01  0.16231808771E+02  0.00000000000E+00 0. -1.
</event>
<event>
 7    1  0.7313719E-013  0.5930196E+02  0.7816164E-02  0.1266605E+00
        -11   -1    0    0    0    0  0.00000000000E+00  0.00000000000E+00  0.45593999997E+02  0.45594000000E+02  0.51100000000E-03 0.  1.
         11   -1    0    0    0    0 -0.00000000000E+00 -0.00000000000E+00 -0.45593999997E+02  0.45594000000E+02  0.51100000000E-03 0. -1.
    9900012    2    1    2    0    0 -0.46524837468E+01  0.21313861710E+02 -0.23254964424E+02  0.59301957969E+02  0.50000025426E+02 0.  0.
        -12    1    1    2    0    0  0.46524837468E+01 -0.21313861710E+02  0.23254964424E+02  0.31886042031E+02  0.00000000000E+00 0.  1.
         11    1    3    3    0    0 -0.11956980350E+02  0.28827364112E+01 -0.23031144816E+02  0.26109637686E+02  0.51100000000E-03 0. -1.
        -11    1    3    3    0    0 -0.14489801254E+01 -0.65358226429E+01  0.60963135234E+00  0.67222147890E+01  0.51100000000E-03 0.  1.
        -12    1    3    3    0    0  0.87534767285E+01  0.24966947942E+02 -0.83345096014E+00  0.26470105494E+02  0.00000000000E+00 0.  1.
</event>
<event>
 7    1  0.7313719E-013  0.5930194E+02  0.7816164E-02  0.1266605E+00
        -11   -1    0    0    0    0  0.00000000000E+00  0.00000000000E+00  0.45593999997E+02  0.45594000000E+02  0.51100000000E-03 0.  1.
         11   -1    0    0    0    0 -0.00000000000E+00 -0.00000000000E+00 -0.45593999997E+02  0.45594000000E+02  0.51100000000E-03 0. -1.
    9900012    2    1    2    0    0 -0.18506279278E+02  0.11703627655E+02 -0.23178949058E+02  0.59301937960E+02  0.49999988934E+02 0.  0.
        -12    1    1    2    0    0  0.18506279278E+02 -0.11703627655E+02  0.23178949058E+02  0.31886062040E+02  0.00000000000E+00 0.  1.
         11    1    3    3    0    0 -0.15288429841E+02  0.25663969174E+01 -0.14510790108E+02  0.21234064848E+02  0.51100000000E-03 0. -1.
        -11    1    3    3    0    0 -0.19431776780E+02  0.62157210193E+01 -0.67103768076E+01  0.21476924681E+02  0.51100000000E-03 0.  1.
        -12    1    3    3    0    0  0.16213927343E+02  0.29215097181E+01 -0.19577821416E+01  0.16590948431E+02  0.00000000000E+00 0.  1.
</event>
<event>
 7    1  0.7313719E-013  0.5930194E+02  0.7816164E-02  0.1266605E+00
        -11   -1    0    0    0    0  0.00000000000E+00  0.00000000000E+00  0.45593999997E+02  0.45594000000E+02  0.51100000000E-03 0.  1.
         11   -1    0    0    0    0 -0.00000000000E+00 -0.00000000000E+00 -0.45593999997E+02  0.45594000000E+02  0.51100000000E-03 0. -1.
    9900012    2    1    2    0    0  0.75285929249E+01 -0.30707403497E+02 -0.41347858215E+01  0.59301940433E+02  0.49999993444E+02 0.  0.
        -12    1    1    2    0    0 -0.75285929249E+01  0.30707403497E+02  0.41347858215E+01  0.31886059567E+02  0.00000000000E+00 0.  1.
         11    1    3    3    0    0  0.12261758908E+02 -0.18567488704E+02  0.96885876403E+01  0.24268726770E+02  0.51100000000E-03 0. -1.
        -11    1    3    3    0    0  0.63969552234E+01  0.72326986595E+01 -0.24452613309E+01  0.99605355914E+01  0.51100000000E-03 0.  1.
        -12    1    3    3    0    0 -0.11130121206E+02 -0.19372613452E+02 -0.11378112131E+02  0.25072678072E+02  0.00000000000E+00 0.  1.
</event>
<event>
 7    1  0.7313719E-013  0.5930194E+02  0.7816164E-02  0.1266605E+00
        -11   -1    0    0    0    0  0.00000000000E+00  0.00000000000E+00  0.45593999997E+02  0.45594000000E+02  0.51100000000E-03 0.  1.
         11   -1    0    0    0    0 -0.00000000000E+00 -0.00000000000E+00 -0.45593999997E+02  0.45594000000E+02  0.51100000000E-03 0. -1.
    9900012    2    1    2    0    0 -0.14638176818E+02 -0.48703370435E+01  0.27905638125E+02  0.59301936545E+02  0.49999986354E+02 0.  0.
        -12    1    1    2    0    0  0.14638176818E+02  0.48703370435E+01 -0.27905638125E+02  0.31886063455E+02  0.00000000000E+00 0.  1.
         11    1    3    3    0    0  0.47642212957E+01 -0.31505773340E+01 -0.78705464261E+01  0.97246821747E+01  0.51100000000E-03 0. -1.
        -11    1    3    3    0    0  0.52321430972E+01 -0.68655376002E+01  0.56230228870E+01  0.10301908298E+02  0.51100000000E-03 0.  1.
        -12    1    3    3    0    0 -0.24634541211E+02  0.51457778907E+01  0.30153161664E+02  0.39275346073E+02  0.00000000000E+00 0.  1.
</event>
<event>
 7    1  0.7313719E-013  0.5930195E+02  0.7816164E-02  0.1266605E+00
        -11   -1    0    0    0    0  0.00000000000E+00  0.00000000000E+00  0.45593999997E+02  0.45594000000E+02  0.51100000000E-03 0.  1.
         11   -1    0    0    0    0 -0.00000000000E+00 -0.00000000000E+00 -0.45593999997E+02  0.45594000000E+02  0.51100000000E-03 0. -1.
    9900012    2    1    2    0    0 -0.25077724150E+02 -0.11480929842E+02 -0.16000515371E+02  0.59301945200E+02  0.50000002139E+02 0.  0.
        -12    1    1    2    0    0  0.25077724150E+02  0.11480929842E+02  0.16000515371E+02  0.31886054800E+02  0.00000000000E+00 0.  1.
         11    1    3    3    0    0  0.16666232867E+01  0.10604492258E+02  0.36586918320E+01  0.11341027970E+02  0.51100000000E-03 0. -1.
        -11    1    3    3    0    0 -0.21341118509E+01  0.58467263387E+01 -0.94790111870E+00  0.62958048781E+01  0.51100000000E-03 0.  1.
         12    1    3    3    0    0 -0.24610235586E+02 -0.27932148439E+02 -0.18711306084E+02  0.41665112352E+02  0.00000000000E+00 0. -1.
</event>
<event>
 7    1  0.7313719E-013  0.5930193E+02  0.7816164E-02  0.1266605E+00
        -11   -1    0    0    0    0  0.00000000000E+00  0.00000000000E+00  0.45593999997E+02  0.45594000000E+02  0.51100000000E-03 0. -1.
         11   -1    0    0    0    0 -0.00000000000E+00 -0.00000000000E+00 -0.45593999997E+02  0.45594000000E+02  0.51100000000E-03 0.  1.
    9900012    2    1    2    0    0  0.68456683027E+01 -0.23266669437E+02  0.20700731715E+02  0.59301931338E+02  0.49999976857E+02 0.  0.
        -12    1    1    2    0    0 -0.68456683027E+01  0.23266669437E+02 -0.20700731715E+02  0.31886068662E+02  0.00000000000E+00 0.  1.
         11    1    3    3    0    0 -0.32831896519E+00  0.10708918436E+02 -0.35150407755E+01  0.11275825438E+02  0.51100000000E-03 0. -1.
        -11    1    3    3    0    0  0.24646346172E+01 -0.95353799637E+01 -0.37950893171E+01  0.10554648172E+02  0.51100000000E-03 0.  1.
        -12    1    3    3    0    0  0.47093526507E+01 -0.24440207909E+02  0.28010861807E+02  0.37471457727E+02  0.00000000000E+00 0.  1.
</event>
<event>
 7    1  0.7313719E-013  0.5930196E+02  0.7816164E-02  0.1266605E+00
        -11   -1    0    0    0    0  0.00000000000E+00  0.00000000000E+00  0.45593999997E+02  0.45594000000E+02  0.51100000000E-03 0. -1.
         11   -1    0    0    0    0 -0.00000000000E+00 -0.00000000000E+00 -0.45593999997E+02  0.45594000000E+02  0.51100000000E-03 0.  1.
    9900012    2    1    2    0    0 -0.12584238539E+02  0.96377881781E+01  0.27667125050E+02  0.59301955575E+02  0.50000021059E+02 0.  0.
        -12    1    1    2    0    0  0.12584238539E+02 -0.96377881781E+01 -0.27667125050E+02  0.31886044425E+02  0.00000000000E+00 0.  1.
         11    1    3    3    0    0 -0.59477151673E+01  0.37339612799E+01 -0.92492296956E+01  0.11613183576E+02  0.51100000000E-03 0.  1.
        -11    1    3    3    0    0 -0.15300806177E+02  0.35872798342E+01  0.84507445254E+01  0.17843719611E+02  0.51100000000E-03 0. -1.
        -12    1    3    3    0    0  0.86642828049E+01  0.23165470640E+01  0.28465610220E+02  0.29845052388E+02  0.00000000000E+00 0.  1.
</event>
<event>
 7    1  0.7313719E-013  0.5930195E+02  0.7816164E-02  0.1266605E+00
        -11   -1    0    0    0    0  0.00000000000E+00  0.00000000000E+00  0.45593999997E+02  0.45594000000E+02  0.51100000000E-03 0. -1.
         11   -1    0    0    0    0 -0.00000000000E+00 -0.00000000000E+00 -0.45593999997E+02  0.45594000000E+02  0.51100000000E-03 0.  1.
    9900012    2    1    2    0    0  0.21336941061E+02 -0.23385320683E+02  0.38186507026E+01  0.59301947085E+02  0.50000005576E+02 0.  0.
        -12    1    1    2    0    0 -0.21336941061E+02  0.23385320683E+02 -0.38186507026E+01  0.31886052915E+02  0.00000000000E+00 0.  1.
         11    1    3    3    0    0  0.86388458051E+01  0.26407220279E+01 -0.28098562938E+01  0.94603574101E+01  0.51100000000E-03 0. -1.
        -11    1    3    3    0    0  0.20611450841E+02 -0.32762235267E+02  0.29547202096E+01  0.38819149105E+02  0.51100000000E-03 0.  1.
         12    1    3    3    0    0 -0.79133555851E+01  0.67361925560E+01  0.36737867869E+01  0.11022440570E+02  0.00000000000E+00 0. -1.
</event>
<event>
 7    1  0.7313719E-013  0.5930198E+02  0.7816164E-02  0.1266605E+00
        -11   -1    0    0    0    0  0.00000000000E+00  0.00000000000E+00  0.45593999997E+02  0.45594000000E+02  0.51100000000E-03 0. -1.
         11   -1    0    0    0    0 -0.00000000000E+00 -0.00000000000E+00 -0.45593999997E+02  0.45594000000E+02  0.51100000000E-03 0.  1.
    9900012    2    1    2    0    0  0.63568530854E+00 -0.17430903917E+01  0.31831989930E+02  0.59301983585E+02  0.50000072143E+02 0.  0.
        -12    1    1    2    0    0 -0.63568530854E+00  0.17430903917E+01 -0.31831989930E+02  0.31886016415E+02  0.00000000000E+00 0.  1.
         11    1    3    3    0    0  0.23310559293E+01  0.79218370787E+01  0.13754008470E+02  0.16042508335E+02  0.51100000000E-03 0.  1.
        -11    1    3    3    0    0  0.63296057393E+00 -0.19212109646E+02  0.24782203252E+02  0.31363408527E+02  0.51100000000E-03 0. -1.
         12    1    3    3    0    0 -0.23283311947E+01  0.95471821759E+01 -0.67042217911E+01  0.11896066723E+02  0.00000000000E+00 0. -1.
</event>
<event>
 7    1  0.7313719E-013  0.5930194E+02  0.7816164E-02  0.1266605E+00
        -11   -1    0    0    0    0  0.00000000000E+00  0.00000000000E+00  0.45593999997E+02  0.45594000000E+02  0.51100000000E-03 0.  1.
         11   -1    0    0    0    0 -0.00000000000E+00 -0.00000000000E+00 -0.45593999997E+02  0.45594000000E+02  0.51100000000E-03 0. -1.
    9900012    2    1    2    0    0 -0.23751327279E+02 -0.73871310939E+01 -0.19950574831E+02  0.59301942084E+02  0.49999996455E+02 0.  0.
        -12    1    1    2    0    0  0.23751327279E+02  0.73871310939E+01  0.19950574831E+02  0.31886057916E+02  0.00000000000E+00 0.  1.
         11    1    3    3    0    0 -0.21364263934E+02 -0.16562498310E+02  0.14721431184E+01  0.27072409005E+02  0.51100000000E-03 0. -1.
        -11    1    3    3    0    0  0.34784217306E+01 -0.38014296019E+01  0.13898831254E+01  0.53368586376E+01  0.51100000000E-03 0.  1.
         12    1    3    3    0    0 -0.58654850760E+01  0.12976796818E+02 -0.22812601075E+02  0.26892674442E+02  0.00000000000E+00 0. -1.
</event>
<event>
 7    1  0.7313719E-013  0.5930195E+02  0.7816164E-02  0.1266605E+00
        -11   -1    0    0    0    0  0.00000000000E+00  0.00000000000E+00  0.45593999997E+02  0.45594000000E+02  0.51100000000E-03 0.  1.
         11   -1    0    0    0    0 -0.00000000000E+00 -0.00000000000E+00 -0.45593999997E+02  0.45594000000E+02  0.51100000000E-03 0. -1.
    9900012    2    1    2    0    0 -0.19325859476E+02  0.24977992342E+02 -0.43967181299E+01  0.59301951700E+02  0.50000013991E+02 0.  0.
        -12    1    1    2    0    0  0.19325859476E+02 -0.24977992342E+02  0.43967181299E+01  0.31886048300E+02  0.00000000000E+00 0.  1.
         11    1    3    3    0    0 -0.10089688689E+02  0.21815207875E+02 -0.18920375721E+02  0.30588980535E+02  0.51100000000E-03 0. -1.
        -11    1    3    3    0    0 -0.12060392641E+02  0.82141399314E+01  0.17589136787E+01  0.14697582899E+02  0.51100000000E-03 0.  1.
         12    1    3    3    0    0  0.28242218544E+01 -0.50513554646E+01  0.12764743912E+02  0.14015388266E+02  0.00000000000E+00 0. -1.
</event>
<event>
 7    1  0.7313719E-013  0.5930192E+02  0.7816164E-02  0.1266605E+00
        -11   -1    0    0    0    0  0.00000000000E+00  0.00000000000E+00  0.45593999997E+02  0.45594000000E+02  0.51100000000E-03 0. -1.
         11   -1    0    0    0    0 -0.00000000000E+00 -0.00000000000E+00 -0.45593999997E+02  0.45594000000E+02  0.51100000000E-03 0.  1.
    9900012    2    1    2    0    0 -0.14905453334E+02  0.11280680509E+02  0.25832064936E+02  0.59301923560E+02  0.49999962672E+02 0.  0.
        -12    1    1    2    0    0  0.14905453334E+02 -0.11280680509E+02 -0.25832064936E+02  0.31886076440E+02  0.00000000000E+00 0.  1.
         11    1    3    3    0    0 -0.11983586220E+02  0.46225785731E+01 -0.79871452629E+00  0.12869052666E+02  0.51100000000E-03 0. -1.
        -11    1    3    3    0    0 -0.17275234934E+00  0.21203739041E+02  0.22812028206E+02  0.31145096305E+02  0.51100000000E-03 0.  1.
         12    1    3    3    0    0 -0.27491147644E+01 -0.14545637104E+02  0.38187512563E+01  0.15287774590E+02  0.00000000000E+00 0. -1.
</event>
<event>
 7    1  0.7313719E-013  0.5930196E+02  0.7816164E-02  0.1266605E+00
        -11   -1    0    0    0    0  0.00000000000E+00  0.00000000000E+00  0.45593999997E+02  0.45594000000E+02  0.51100000000E-03 0. -1.
         11   -1    0    0    0    0 -0.00000000000E+00 -0.00000000000E+00 -0.45593999997E+02  0.45594000000E+02  0.51100000000E-03 0.  1.
    9900012    2    1    2    0    0  0.29179792635E+02  0.12855066075E+02  0.82249123045E-01  0.59301956236E+02  0.50000022265E+02 0.  0.
        -12    1    1    2    0    0 -0.29179792635E+02 -0.12855066075E+02 -0.82249123045E-01  0.31886043764E+02  0.00000000000E+00 0.  1.
         11    1    3    3    0    0  0.67694608171E+01  0.25749633822E+01  0.11463898375E+02  0.13560125456E+02  0.51100000000E-03 0. -1.
        -11    1    3    3    0    0  0.17897368013E+02  0.11412595525E+02  0.10280938339E+02  0.23585182038E+02  0.51100000000E-03 0.  1.
        -12    1    3    3    0    0  0.45129638052E+01 -0.11324928321E+01 -0.21662587591E+02  0.22156648741E+02  0.00000000000E+00 0.  1.
</event>
<event>
 7    1  0.7313719E-013  0.5930191E+02  0.7816164E-02  0.1266605E+00
        -11   -1    0    0    0    0  0.00000000000E+00  0.00000000000E+00  0.45593999997E+02  0.45594000000E+02  0.51100000000E-03 0. -1.
         11   -1    0    0    0    0 -0.00000000000E+00 -0.00000000000E+00 -0.45593999997E+02  0.45594000000E+02  0.51100000000E-03 0.  1.
    9900012    2    1    2    0    0 -0.98264130193E+01  0.16416691509E+02  0.25507969873E+02  0.59301910871E+02  0.49999939529E+02 0.  0.
        -12    1    1    2    0    0  0.98264130193E+01 -0.16416691509E+02 -0.25507969873E+02  0.31886089129E+02  0.00000000000E+00 0.  1.
         11    1    3    3    0    0 -0.24534374405E+01  0.27030712773E+02  0.74549396196E+01  0.28147023169E+02  0.51100000000E-03 0. -1.
        -11    1    3    3    0    0  0.60721744595E+01 -0.11356875552E+01  0.12235048447E+02  0.13706111762E+02  0.51100000000E-03 0.  1.
         12    1    3    3    0    0 -0.13445150038E+02 -0.94783337091E+01  0.58179818067E+01  0.17448775939E+02  0.00000000000E+00 0. -1.
</event>
<event>
 7    1  0.7313719E-013  0.5930193E+02  0.7816164E-02  0.1266605E+00
        -11   -1    0    0    0    0  0.00000000000E+00  0.00000000000E+00  0.45593999997E+02  0.45594000000E+02  0.51100000000E-03 0.  1.
         11   -1    0    0    0    0 -0.00000000000E+00 -0.00000000000E+00 -0.45593999997E+02  0.45594000000E+02  0.51100000000E-03 0. -1.
    9900012    2    1    2    0    0 -0.60376840703E-01 -0.25059610354E+02  0.19716335846E+02  0.59301927560E+02  0.49999969967E+02 0.  0.
        -12    1    1    2    0    0  0.60376840703E-01  0.25059610354E+02 -0.19716335846E+02  0.31886072440E+02  0.00000000000E+00 0.  1.
         11    1    3    3    0    0  0.27642957334E+01  0.11082303973E+02  0.31331900396E+01  0.11843803119E+02  0.51100000000E-03 0. -1.
        -11    1    3    3    0    0  0.48670746198E+01  0.74685026887E+00 -0.21540233761E+01  0.53745713917E+01  0.51100000000E-03 0.  1.
         12    1    3    3    0    0 -0.76917471939E+01 -0.36888764595E+02  0.18737169182E+02  0.42083553049E+02  0.00000000000E+00 0. -1.
</event>
<event>
 7    1  0.7313719E-013  0.5930195E+02  0.7816164E-02  0.1266605E+00
        -11   -1    0    0    0    0  0.00000000000E+00  0.00000000000E+00  0.45593999997E+02  0.45594000000E+02  0.51100000000E-03 0.  1.
         11   -1    0    0    0    0 -0.00000000000E+00 -0.00000000000E+00 -0.45593999997E+02  0.45594000000E+02  0.51100000000E-03 0. -1.
    9900012    2    1    2    0    0 -0.72043549107E+01 -0.24867341170E+02 -0.18612709392E+02  0.59301947603E+02  0.50000006520E+02 0.  0.
        -12    1    1    2    0    0  0.72043549107E+01  0.24867341170E+02  0.18612709392E+02  0.31886052397E+02  0.00000000000E+00 0.  1.
         11    1    3    3    0    0 -0.80928847803E+01  0.61458927008E+01  0.62620029623E+00  0.10181301893E+02  0.51100000000E-03 0. -1.
        -11    1    3    3    0    0  0.12960525736E+00 -0.19698559834E+02  0.67032187767E+01  0.20808248347E+02  0.51100000000E-03 0.  1.
         12    1    3    3    0    0  0.75892461228E+00 -0.11314674037E+02 -0.25942128465E+02  0.28312397363E+02  0.00000000000E+00 0. -1.
</event>
<event>
 7    1  0.7313719E-013  0.5930178E+02  0.7816164E-02  0.1266605E+00
        -11   -1    0    0    0    0  0.00000000000E+00  0.00000000000E+00  0.45593999997E+02  0.45594000000E+02  0.51100000000E-03 0.  1.
         11   -1    0    0    0    0 -0.00000000000E+00 -0.00000000000E+00 -0.45593999997E+02  0.45594000000E+02  0.51100000000E-03 0. -1.
    9900012    2    1    2    0    0 -0.20757780869E+02 -0.26217044457E+01 -0.24061836548E+02  0.59301783873E+02  0.49999707915E+02 0.  0.
        -12    1    1    2    0    0  0.20757780869E+02  0.26217044457E+01  0.24061836548E+02  0.31886216127E+02  0.00000000000E+00 0.  1.
         11    1    3    3    0    0  0.44548802023E+01  0.10575571528E+02  0.26458938904E+00  0.11478618321E+02  0.51100000000E-03 0. -1.
        -11    1    3    3    0    0 -0.12725877812E+02  0.82605968804E+01 -0.38782316232E+01  0.15659696922E+02  0.51100000000E-03 0.  1.
         12    1    3    3    0    0 -0.12486783260E+02 -0.21457872854E+02 -0.20448194314E+02  0.32163468630E+02  0.00000000000E+00 0. -1.
</event>
<event>
 7    1  0.7313719E-013  0.5930189E+02  0.7816164E-02  0.1266605E+00
        -11   -1    0    0    0    0  0.00000000000E+00  0.00000000000E+00  0.45593999997E+02  0.45594000000E+02  0.51100000000E-03 0.  1.
         11   -1    0    0    0    0 -0.00000000000E+00 -0.00000000000E+00 -0.45593999997E+02  0.45594000000E+02  0.51100000000E-03 0. -1.
    9900012    2    1    2    0    0  0.10633598719E+02  0.18520738110E+02 -0.23677688864E+02  0.59301888418E+02  0.49999898581E+02 0.  0.
        -12    1    1    2    0    0 -0.10633598719E+02 -0.18520738110E+02  0.23677688864E+02  0.31886111582E+02  0.00000000000E+00 0.  1.
         11    1    3    3    0    0 -0.18628889432E+01  0.81974762005E+01  0.67078746363E+01  0.10754745635E+02  0.51100000000E-03 0.  1.
        -11    1    3    3    0    0 -0.88001279802E+01  0.11975376067E+02 -0.57350360719E+01  0.15929297644E+02  0.51100000000E-03 0. -1.
        -12    1    3    3    0    0  0.21296615643E+02 -0.16521141575E+01 -0.24650527428E+02  0.32617845139E+02  0.00000000000E+00 0.  1.
</event>
<event>
 7    1  0.7313719E-013  0.5930190E+02  0.7816164E-02  0.1266605E+00
        -11   -1    0    0    0    0  0.00000000000E+00  0.00000000000E+00  0.45593999997E+02  0.45594000000E+02  0.51100000000E-03 0. -1.
         11   -1    0    0    0    0 -0.00000000000E+00 -0.00000000000E+00 -0.45593999997E+02  0.45594000000E+02  0.51100000000E-03 0.  1.
    9900012    2    1    2    0    0 -0.44035864727E+01  0.46604954339E+01  0.31234781562E+02  0.59301900039E+02  0.49999919775E+02 0.  0.
        -12    1    1    2    0    0  0.44035864727E+01 -0.46604954339E+01 -0.31234781562E+02  0.31886099961E+02  0.00000000000E+00 0.  1.
         11    1    3    3    0    0  0.48412132071E+00  0.11492036122E+02  0.95905449873E+01  0.14975974796E+02  0.51100000000E-03 0. -1.
        -11    1    3    3    0    0  0.13030178898E+02  0.52809247142E+01  0.17254023944E+02  0.22257022947E+02  0.51100000000E-03 0.  1.
         12    1    3    3    0    0 -0.17917886691E+02 -0.12112465402E+02  0.43902126306E+01  0.22068902296E+02  0.00000000000E+00 0. -1.
</event>
<event>
 7    1  0.7313719E-013  0.5930197E+02  0.7816164E-02  0.1266605E+00
        -11   -1    0    0    0    0  0.00000000000E+00  0.00000000000E+00  0.45593999997E+02  0.45594000000E+02  0.51100000000E-03 0.  1.
         11   -1    0    0    0    0 -0.00000000000E+00 -0.00000000000E+00 -0.45593999997E+02  0.45594000000E+02  0.51100000000E-03 0. -1.
    9900012    2    1    2    0    0  0.19054606200E+02 -0.25537396362E+02 -0.12174771512E+01  0.59301970442E+02  0.50000048173E+02 0.  0.
        -12    1    1    2    0    0 -0.19054606200E+02  0.25537396362E+02  0.12174771512E+01  0.31886029558E+02  0.00000000000E+00 0.  1.
         11    1    3    3    0    0  0.19633179883E+01 -0.72177918170E+01 -0.27993711622E+01  0.79867149318E+01  0.51100000000E-03 0. -1.
        -11    1    3    3    0    0  0.12109705849E+01 -0.10014638239E+02 -0.20517265388E+02  0.22863018350E+02  0.51100000000E-03 0.  1.
        -12    1    3    3    0    0  0.15880317627E+02 -0.83049663057E+01  0.22099159399E+02  0.28452237160E+02  0.00000000000E+00 0.  1.
</event>
<event>
 7    1  0.7313719E-013  0.5930193E+02  0.7816164E-02  0.1266605E+00
        -11   -1    0    0    0    0  0.00000000000E+00  0.00000000000E+00  0.45593999997E+02  0.45594000000E+02  0.51100000000E-03 0.  1.
         11   -1    0    0    0    0 -0.00000000000E+00 -0.00000000000E+00 -0.45593999997E+02  0.45594000000E+02  0.51100000000E-03 0. -1.
    9900012    2    1    2    0    0  0.30131990266E+02  0.94223242407E+01 -0.44725963388E+01  0.59301934870E+02  0.49999983298E+02 0.  0.
        -12    1    1    2    0    0 -0.30131990266E+02 -0.94223242407E+01  0.44725963388E+01  0.31886065130E+02  0.00000000000E+00 0.  1.
         11    1    3    3    0    0  0.19342915271E+02 -0.49434340657E+01  0.13322741232E+02  0.24001694643E+02  0.51100000000E-03 0.  1.
        -11    1    3    3    0    0 -0.21093040156E+01 -0.31067895726E+01  0.33180616608E+01  0.50110715745E+01  0.51100000000E-03 0. -1.
         12    1    3    3    0    0  0.12898379010E+02  0.17472547879E+02 -0.21113399232E+02  0.30289168652E+02  0.00000000000E+00 0. -1.
</event>
<event>
 7    1  0.7313719E-013  0.5930195E+02  0.7816164E-02  0.1266605E+00
        -11   -1    0    0    0    0  0.00000000000E+00  0.00000000000E+00  0.45593999997E+02  0.45594000000E+02  0.51100000000E-03 0.  1.
         11   -1    0    0    0    0 -0.00000000000E+00 -0.00000000000E+00 -0.45593999997E+02  0.45594000000E+02  0.51100000000E-03 0. -1.
    9900012    2    1    2    0    0 -0.19466115357E+02  0.16776365181E+02 -0.18877079890E+02  0.59301949430E+02  0.50000009852E+02 0.  0.
        -12    1    1    2    0    0  0.19466115357E+02 -0.16776365181E+02  0.18877079890E+02  0.31886050570E+02  0.00000000000E+00 0.  1.
         11    1    3    3    0    0 -0.29857757409E+02  0.18407012137E+02 -0.12510643557E+02  0.37240031898E+02  0.51100000000E-03 0. -1.
        -11    1    3    3    0    0 -0.39901692681E+01 -0.12436655970E+01  0.27745215208E+01  0.50165849774E+01  0.51100000000E-03 0.  1.
         12    1    3    3    0    0  0.14381811320E+02 -0.38698135867E+00 -0.91409578537E+01  0.17045332554E+02  0.00000000000E+00 0. -1.
</event>
<event>
 7    1  0.7313719E-013  0.5930193E+02  0.7816164E-02  0.1266605E+00
        -11   -1    0    0    0    0  0.00000000000E+00  0.00000000000E+00  0.45593999997E+02  0.45594000000E+02  0.51100000000E-03 0. -1.
         11   -1    0    0    0    0 -0.00000000000E+00 -0.00000000000E+00 -0.45593999997E+02  0.45594000000E+02  0.51100000000E-03 0.  1.
    9900012    2    1    2    0    0  0.19617711805E+02 -0.19423254464E+02  0.15956317058E+02  0.59301929617E+02  0.49999973718E+02 0.  0.
        -12    1    1    2    0    0 -0.19617711805E+02  0.19423254464E+02 -0.15956317058E+02  0.31886070383E+02  0.00000000000E+00 0.  1.
         11    1    3    3    0    0  0.19898830273E+02 -0.15997867896E+02  0.88836073427E+01  0.27033566230E+02  0.51100000000E-03 0.  1.
        -11    1    3    3    0    0  0.12763949602E+02 -0.67354982089E+01  0.11114746487E+02  0.18216007666E+02  0.51100000000E-03 0. -1.
        -12    1    3    3    0    0 -0.13045068070E+02  0.33101116402E+01 -0.40420367724E+01  0.14052355720E+02  0.00000000000E+00 0.  1.
</event>
<event>
 7    1  0.7313719E-013  0.5930202E+02  0.7816164E-02  0.1266605E+00
        -11   -1    0    0    0    0  0.00000000000E+00  0.00000000000E+00  0.45593999997E+02  0.45594000000E+02  0.51100000000E-03 0.  1.
         11   -1    0    0    0    0 -0.00000000000E+00 -0.00000000000E+00 -0.45593999997E+02  0.45594000000E+02  0.51100000000E-03 0. -1.
    9900012    2    1    2    0    0 -0.30349387161E+02 -0.24739779587E+01  0.94609718728E+01  0.59302017864E+02  0.50000134660E+02 0.  0.
        -12    1    1    2    0    0  0.30349387161E+02  0.24739779587E+01 -0.94609718728E+01  0.31885982136E+02  0.00000000000E+00 0.  1.
         11    1    3    3    0    0 -0.29007230243E+01 -0.13923929165E+01  0.73514734147E+01  0.80247812260E+01  0.51100000000E-03 0. -1.
        -11    1    3    3    0    0 -0.12687911943E+02 -0.14260210347E+02  0.17741786696E+02  0.26059695010E+02  0.51100000000E-03 0.  1.
         12    1    3    3    0    0 -0.14760752194E+02  0.13178625305E+02 -0.15632288237E+02  0.25217541628E+02  0.00000000000E+00 0. -1.
</event>
<event>
 7    1  0.7313719E-013  0.5930224E+02  0.7816164E-02  0.1266604E+00
        -11   -1    0    0    0    0  0.00000000000E+00  0.00000000000E+00  0.45593999997E+02  0.45594000000E+02  0.51100000000E-03 0.  1.
         11   -1    0    0    0    0 -0.00000000000E+00 -0.00000000000E+00 -0.45593999997E+02  0.45594000000E+02  0.51100000000E-03 0. -1.
    9900012    2    1    2    0    0  0.26539963881E+02  0.38335526156E+01 -0.17252131650E+02  0.59302237426E+02  0.50000535084E+02 0.  0.
        -12    1    1    2    0    0 -0.26539963881E+02 -0.38335526156E+01  0.17252131650E+02  0.31885762574E+02  0.00000000000E+00 0.  1.
         11    1    3    3    0    0  0.10154094600E+02 -0.11979342157E+02 -0.12788854123E+02  0.20252532328E+02  0.51100000000E-03 0. -1.
        -11    1    3    3    0    0  0.12811212300E+02  0.60813354166E+00 -0.15355759786E+02  0.20007407274E+02  0.51100000000E-03 0.  1.
        -12    1    3    3    0    0  0.35746569819E+01  0.15204761231E+02  0.10892482258E+02  0.19042297823E+02  0.00000000000E+00 0.  1.
</event>
<event>
 7    1  0.7313719E-013  0.5930194E+02  0.7816164E-02  0.1266605E+00
        -11   -1    0    0    0    0  0.00000000000E+00  0.00000000000E+00  0.45593999997E+02  0.45594000000E+02  0.51100000000E-03 0.  1.
         11   -1    0    0    0    0 -0.00000000000E+00 -0.00000000000E+00 -0.45593999997E+02  0.45594000000E+02  0.51100000000E-03 0. -1.
    9900012    2    1    2    0    0  0.24118581484E+02  0.19407779011E+02  0.76389155688E+01  0.59301938939E+02  0.49999990719E+02 0.  0.
        -12    1    1    2    0    0 -0.24118581484E+02 -0.19407779011E+02 -0.76389155688E+01  0.31886061061E+02  0.00000000000E+00 0.  1.
         11    1    3    3    0    0  0.13374177388E+01  0.41448984524E+01 -0.63000845619E+01  0.76589774211E+01  0.51100000000E-03 0. -1.
        -11    1    3    3    0    0 -0.47648602580E+00  0.14136185320E+02 -0.10704948390E+02  0.17738508805E+02  0.51100000000E-03 0.  1.
        -12    1    3    3    0    0  0.23257649771E+02  0.11266952385E+01  0.24643948521E+02  0.33904452712E+02  0.00000000000E+00 0.  1.
</event>
<event>
 7    1  0.7313719E-013  0.5930196E+02  0.7816164E-02  0.1266605E+00
        -11   -1    0    0    0    0  0.00000000000E+00  0.00000000000E+00  0.45593999997E+02  0.45594000000E+02  0.51100000000E-03 0.  1.
         11   -1    0    0    0    0 -0.00000000000E+00 -0.00000000000E+00 -0.45593999997E+02  0.45594000000E+02  0.51100000000E-03 0. -1.
    9900012    2    1    2    0    0 -0.16227693287E+02  0.27274007372E+01 -0.27311948357E+02  0.59301964385E+02  0.50000037126E+02 0.  0.
        -12    1    1    2    0    0  0.16227693287E+02 -0.27274007372E+01  0.27311948357E+02  0.31886035615E+02  0.00000000000E+00 0.  1.
         11    1    3    3    0    0 -0.20872324286E+02  0.77353012382E+01 -0.38010442632E+01  0.22581779028E+02  0.51100000000E-03 0. -1.
        -11    1    3    3    0    0  0.14753085247E+01 -0.14148239244E+02 -0.37385898221E+01  0.14708033963E+02  0.51100000000E-03 0.  1.
        -12    1    3    3    0    0  0.31693224741E+01  0.91403387427E+01 -0.19772314272E+02  0.22012151393E+02  0.00000000000E+00 0.  1.
</event>
<event>
 7    1  0.7313719E-013  0.5930196E+02  0.7816164E-02  0.1266605E+00
        -11   -1    0    0    0    0  0.00000000000E+00  0.00000000000E+00  0.45593999997E+02  0.45594000000E+02  0.51100000000E-03 0.  1.
         11   -1    0    0    0    0 -0.00000000000E+00 -0.00000000000E+00 -0.45593999997E+02  0.45594000000E+02  0.51100000000E-03 0. -1.
    9900012    2    1    2    0    0 -0.10671236005E+01  0.18291903538E+02 -0.26095732869E+02  0.59301956630E+02  0.50000022983E+02 0.  0.
        -12    1    1    2    0    0  0.10671236005E+01 -0.18291903538E+02  0.26095732869E+02  0.31886043370E+02  0.00000000000E+00 0.  1.
         11    1    3    3    0    0 -0.45761954460E+01  0.64986621134E+01  0.70054642706E+00  0.79790312434E+01  0.51100000000E-03 0. -1.
        -11    1    3    3    0    0 -0.13107224782E+02  0.21010172996E+02 -0.14695443101E+02  0.28795533664E+02  0.51100000000E-03 0.  1.
         12    1    3    3    0    0  0.16616296627E+02 -0.92169315707E+01 -0.12100836195E+02  0.22527391722E+02  0.00000000000E+00 0. -1.
</event>
<event>
 7    1  0.7313719E-013  0.5930192E+02  0.7816164E-02  0.1266605E+00
        -11   -1    0    0    0    0  0.00000000000E+00  0.00000000000E+00  0.45593999997E+02  0.45594000000E+02  0.51100000000E-03 0.  1.
         11   -1    0    0    0    0 -0.00000000000E+00 -0.00000000000E+00 -0.45593999997E+02  0.45594000000E+02  0.51100000000E-03 0. -1.
    9900012    2    1    2    0    0  0.19028232089E+02 -0.16045574324E+02  0.19929569058E+02  0.59301924753E+02  0.49999964848E+02 0.  0.
        -12    1    1    2    0    0 -0.19028232089E+02  0.16045574324E+02 -0.19929569058E+02  0.31886075247E+02  0.00000000000E+00 0.  1.
         11    1    3    3    0    0  0.11215919580E+02 -0.10605488760E+02  0.18802513559E+02  0.24327099298E+02  0.51100000000E-03 0. -1.
        -11    1    3    3    0    0  0.62642521463E+01 -0.87308105829E+00  0.17130406564E+02  0.18260721640E+02  0.51100000000E-03 0.  1.
         12    1    3    3    0    0  0.15480603618E+01 -0.45670045065E+01 -0.16003351065E+02  0.16714103816E+02  0.00000000000E+00 0. -1.
</event>
<event>
 7    1  0.7313719E-013  0.5930191E+02  0.7816164E-02  0.1266605E+00
        -11   -1    0    0    0    0  0.00000000000E+00  0.00000000000E+00  0.45593999997E+02  0.45594000000E+02  0.51100000000E-03 0. -1.
         11   -1    0    0    0    0 -0.00000000000E+00 -0.00000000000E+00 -0.45593999997E+02  0.45594000000E+02  0.51100000000E-03 0.  1.
    9900012    2    1    2    0    0  0.74713769951E+01  0.25989235280E+02  0.16895585620E+02  0.59301911527E+02  0.49999940727E+02 0.  0.
        -12    1    1    2    0    0 -0.74713769951E+01 -0.25989235280E+02 -0.16895585620E+02  0.31886088473E+02  0.00000000000E+00 0.  1.
         11    1    3    3    0    0  0.10927814478E+02  0.12141478251E+02  0.56844813012E+01  0.17295836242E+02  0.51100000000E-03 0.  1.
        -11    1    3    3    0    0 -0.18249206292E+02  0.63565389088E+01  0.15620544350E+02  0.24848350513E+02  0.51100000000E-03 0. -1.
         12    1    3    3    0    0  0.14792768809E+02  0.74912181207E+01 -0.44094400308E+01  0.17157724772E+02  0.00000000000E+00 0. -1.
</event>
<event>
 7    1  0.7313719E-013  0.5930195E+02  0.7816164E-02  0.1266605E+00
        -11   -1    0    0    0    0  0.00000000000E+00  0.00000000000E+00  0.45593999997E+02  0.45594000000E+02  0.51100000000E-03 0. -1.
         11   -1    0    0    0    0 -0.00000000000E+00 -0.00000000000E+00 -0.45593999997E+02  0.45594000000E+02  0.51100000000E-03 0.  1.
    9900012    2    1    2    0    0  0.19853668925E+02 -0.19952012731E+02  0.14982297094E+02  0.59301949633E+02  0.50000010223E+02 0.  0.
        -12    1    1    2    0    0 -0.19853668925E+02  0.19952012731E+02 -0.14982297094E+02  0.31886050367E+02  0.00000000000E+00 0.  1.
         11    1    3    3    0    0 -0.58983207484E+01 -0.76738402233E+01  0.54809069566E+00  0.96942464945E+01  0.51100000000E-03 0.  1.
        -11    1    3    3    0    0  0.26907716604E+02 -0.17981374318E+02  0.22677511838E+02  0.39517395899E+02  0.51100000000E-03 0. -1.
         12    1    3    3    0    0 -0.11557269309E+01  0.57032018102E+01 -0.82433054400E+01  0.10090307240E+02  0.00000000000E+00 0. -1.
</event>
<event>
 7    1  0.7313719E-013  0.5930188E+02  0.7816164E-02  0.1266605E+00
        -11   -1    0    0    0    0  0.00000000000E+00  0.00000000000E+00  0.45593999997E+02  0.45594000000E+02  0.51100000000E-03 0.  1.
         11   -1    0    0    0    0 -0.00000000000E+00 -0.00000000000E+00 -0.45593999997E+02  0.45594000000E+02  0.51100000000E-03 0. -1.
    9900012    2    1    2    0    0 -0.14702728049E+02 -0.28221930700E+02  0.20191464646E+01  0.59301881751E+02  0.49999886423E+02 0.  0.
        -12    1    1    2    0    0  0.14702728049E+02  0.28221930700E+02 -0.20191464646E+01  0.31886118249E+02  0.00000000000E+00 0.  1.
         11    1    3    3    0    0 -0.44220446295E+01  0.41199514616E+01  0.35560362908E+01  0.70124085102E+01  0.51100000000E-03 0. -1.
        -11    1    3    3    0    0  0.10216138530E+02  0.33202855434E+01 -0.29248927664E+01  0.11133228665E+02  0.51100000000E-03 0.  1.
         12    1    3    3    0    0 -0.20496821949E+02 -0.35662167705E+02  0.13880029402E+01  0.41156244576E+02  0.00000000000E+00 0. -1.
</event>
<event>
 7    1  0.1257385E-012  0.5930194E+02  0.7816164E-02  0.1266605E+00
        -11   -1    0    0    0    0  0.00000000000E+00  0.00000000000E+00  0.45593999997E+02  0.45594000000E+02  0.51100000000E-03 0. -1.
         11   -1    0    0    0    0 -0.00000000000E+00 -0.00000000000E+00 -0.45593999997E+02  0.45594000000E+02  0.51100000000E-03 0.  1.
    9900012    2    1    2    0    0 -0.12155596950E+02 -0.58296865123E+01  0.28895974531E+02  0.59301935236E+02  0.49999983967E+02 0.  0.
        -12    1    1    2    0    0  0.12155596950E+02  0.58296865123E+01 -0.28895974531E+02  0.31886064764E+02  0.00000000000E+00 0.  1.
         11    1    3    3    0    0 -0.26789365090E+01  0.25186499858E+01 -0.67724851550E+00  0.37388453275E+01  0.51100000000E-03 0. -1.
        -11    1    3    3    0    0  0.73172244382E+01  0.10607846413E+02 -0.40145152480E+01  0.13497574298E+02  0.51100000000E-03 0.  1.
         12    1    3    3    0    0 -0.16793884879E+02 -0.18956182911E+02  0.33587738294E+02  0.42065515611E+02  0.00000000000E+00 0. -1.
</event>
<event>
 7    1  0.7313719E-013  0.5930191E+02  0.7816164E-02  0.1266605E+00
        -11   -1    0    0    0    0  0.00000000000E+00  0.00000000000E+00  0.45593999997E+02  0.45594000000E+02  0.51100000000E-03 0. -1.
         11   -1    0    0    0    0 -0.00000000000E+00 -0.00000000000E+00 -0.45593999997E+02  0.45594000000E+02  0.51100000000E-03 0.  1.
    9900012    2    1    2    0    0  0.96102895721E+01  0.32730390437E+01  0.30226678230E+02  0.59301913268E+02  0.49999943902E+02 0.  0.
        -12    1    1    2    0    0 -0.96102895721E+01 -0.32730390437E+01 -0.30226678230E+02  0.31886086732E+02  0.00000000000E+00 0.  1.
         11    1    3    3    0    0  0.96228730397E+01  0.82936181031E+01 -0.10519093010E+01  0.12747168322E+02  0.51100000000E-03 0. -1.
        -11    1    3    3    0    0  0.85025055429E+01  0.81048374432E+01  0.18637736400E+00  0.11748009503E+02  0.51100000000E-03 0.  1.
         12    1    3    3    0    0 -0.85150890105E+01 -0.13125416503E+02  0.31092210167E+02  0.34806735444E+02  0.00000000000E+00 0. -1.
</event>
<event>
 7    1  0.7313719E-013  0.5930194E+02  0.7816164E-02  0.1266605E+00
        -11   -1    0    0    0    0  0.00000000000E+00  0.00000000000E+00  0.45593999997E+02  0.45594000000E+02  0.51100000000E-03 0.  1.
         11   -1    0    0    0    0 -0.00000000000E+00 -0.00000000000E+00 -0.45593999997E+02  0.45594000000E+02  0.51100000000E-03 0. -1.
    9900012    2    1    2    0    0  0.21180122000E+02 -0.15213209377E+02 -0.18348877422E+02  0.59301943327E+02  0.49999998723E+02 0.  0.
        -12    1    1    2    0    0 -0.21180122000E+02  0.15213209377E+02  0.18348877422E+02  0.31886056673E+02  0.00000000000E+00 0.  1.
         11    1    3    3    0    0  0.68702226278E+01  0.77891220151E+00 -0.12508583373E+02  0.14292351851E+02  0.51100000000E-03 0. -1.
        -11    1    3    3    0    0  0.21507366695E+02  0.41069545269E+01 -0.85157975939E+01  0.23493673756E+02  0.51100000000E-03 0.  1.
        -12    1    3    3    0    0 -0.71974673221E+01 -0.20099076105E+02  0.26755035452E+01  0.21515917721E+02  0.00000000000E+00 0.  1.
</event>
<event>
 7    1  0.7313719E-013  0.5930188E+02  0.7816164E-02  0.1266605E+00
        -11   -1    0    0    0    0  0.00000000000E+00  0.00000000000E+00  0.45593999997E+02  0.45594000000E+02  0.51100000000E-03 0.  1.
         11   -1    0    0    0    0 -0.00000000000E+00 -0.00000000000E+00 -0.45593999997E+02  0.45594000000E+02  0.51100000000E-03 0. -1.
    9900012    2    1    2    0    0  0.17735916585E+02  0.19880895246E+02 -0.17518901524E+02  0.59301880081E+02  0.49999883376E+02 0.  0.
        -12    1    1    2    0    0 -0.17735916585E+02 -0.19880895246E+02  0.17518901524E+02  0.31886119919E+02  0.00000000000E+00 0.  1.
         11    1    3    3    0    0  0.26311624079E+02  0.55518496900E+01 -0.11102642688E+02  0.29092838836E+02  0.51100000000E-03 0. -1.
        -11    1    3    3    0    0  0.66898308995E+01 -0.14101499219E+01 -0.45309036837E+01  0.82019173806E+01  0.51100000000E-03 0.  1.
        -12    1    3    3    0    0 -0.15265538393E+02  0.15739195478E+02 -0.18853551519E+01  0.22007123864E+02  0.00000000000E+00 0.  1.
</event>
<event>
 7    1  0.7313719E-013  0.5930193E+02  0.7816164E-02  0.1266605E+00
        -11   -1    0    0    0    0  0.00000000000E+00  0.00000000000E+00  0.45593999997E+02  0.45594000000E+02  0.51100000000E-03 0. -1.
         11   -1    0    0    0    0 -0.00000000000E+00 -0.00000000000E+00 -0.45593999997E+02  0.45594000000E+02  0.51100000000E-03 0.  1.
    9900012    2    1    2    0    0  0.40957968892E+01  0.22687268696E+02  0.22028026198E+02  0.59301927003E+02  0.49999968950E+02 0.  0.
        -12    1    1    2    0    0 -0.40957968892E+01 -0.22687268696E+02 -0.22028026198E+02  0.31886072997E+02  0.00000000000E+00 0.  1.
         11    1    3    3    0    0  0.31922585063E+01  0.14967102906E+02 -0.60057617378E+01  0.16440007849E+02  0.51100000000E-03 0. -1.
        -11    1    3    3    0    0 -0.12817716397E+02  0.24779754896E+01  0.23359474502E+01  0.13262385416E+02  0.51100000000E-03 0.  1.
        -12    1    3    3    0    0  0.13721254780E+02  0.52421903003E+01  0.25697840485E+02  0.29599533738E+02  0.00000000000E+00 0.  1.
</event>
<event>
 7    1  0.7313719E-013  0.5930194E+02  0.7816164E-02  0.1266605E+00
        -11   -1    0    0    0    0  0.00000000000E+00  0.00000000000E+00  0.45593999997E+02  0.45594000000E+02  0.51100000000E-03 0. -1.
         11   -1    0    0    0    0 -0.00000000000E+00 -0.00000000000E+00 -0.45593999997E+02  0.45594000000E+02  0.51100000000E-03 0.  1.
    9900012    2    1    2    0    0  0.21702754119E+02  0.21996632442E+02 -0.78650934053E+01  0.59301936125E+02  0.49999985588E+02 0.  0.
        -12    1    1    2    0    0 -0.21702754119E+02 -0.21996632442E+02  0.78650934053E+01  0.31886063875E+02  0.00000000000E+00 0.  1.
         11    1    3    3    0    0  0.36623452235E+01 -0.10435274443E+02  0.80086253096E+01  0.13654515914E+02  0.51100000000E-03 0. -1.
        -11    1    3    3    0    0  0.54092770792E+01 -0.19765776085E+01 -0.14326011629E+00  0.57608733091E+01  0.51100000000E-03 0.  1.
        -12    1    3    3    0    0  0.12631131816E+02  0.34408484493E+02 -0.15730458599E+02  0.39886546902E+02  0.00000000000E+00 0.  1.
</event>
<event>
 7    1  0.7313719E-013  0.5930194E+02  0.7816164E-02  0.1266605E+00
        -11   -1    0    0    0    0  0.00000000000E+00  0.00000000000E+00  0.45593999997E+02  0.45594000000E+02  0.51100000000E-03 0.  1.
         11   -1    0    0    0    0 -0.00000000000E+00 -0.00000000000E+00 -0.45593999997E+02  0.45594000000E+02  0.51100000000E-03 0. -1.
    9900012    2    1    2    0    0  0.28162343284E+02 -0.50509360481E+00 -0.14944841114E+02  0.59301937610E+02  0.49999988296E+02 0.  0.
        -12    1    1    2    0    0 -0.28162343284E+02  0.50509360481E+00  0.14944841114E+02  0.31886062390E+02  0.00000000000E+00 0.  1.
         11    1    3    3    0    0  0.13940188714E+02 -0.55012765485E+01 -0.13357802154E+01  0.15045837102E+02  0.51100000000E-03 0. -1.
        -11    1    3    3    0    0  0.78445713663E+01 -0.14828035476E+01  0.13488551691E+02  0.15674087956E+02  0.51100000000E-03 0.  1.
         12    1    3    3    0    0  0.63775832031E+01  0.64789864913E+01 -0.27097612590E+02  0.28582012552E+02  0.00000000000E+00 0. -1.
</event>
<event>
 7    1  0.7313719E-013  0.5930175E+02  0.7816164E-02  0.1266605E+00
        -11   -1    0    0    0    0  0.00000000000E+00  0.00000000000E+00  0.45593999997E+02  0.45594000000E+02  0.51100000000E-03 0.  1.
         11   -1    0    0    0    0 -0.00000000000E+00 -0.00000000000E+00 -0.45593999997E+02  0.45594000000E+02  0.51100000000E-03 0. -1.
    9900012    2    1    2    0    0 -0.44987679562E+01 -0.30422928850E+02 -0.84225671128E+01  0.59301746697E+02  0.49999640116E+02 0.  0.
        -12    1    1    2    0    0  0.44987679562E+01  0.30422928850E+02  0.84225671128E+01  0.31886253303E+02  0.00000000000E+00 0.  1.
         11    1    3    3    0    0  0.12055615280E+01 -0.30739695641E+02  0.25824164232E+01  0.30871526388E+02  0.51100000000E-03 0. -1.
        -11    1    3    3    0    0  0.60748500305E+00 -0.11460382488E+02 -0.59504274854E+00  0.11491887614E+02  0.51100000000E-03 0.  1.
         12    1    3    3    0    0 -0.63118144872E+01  0.11777149280E+02 -0.10409940787E+02  0.16938332695E+02  0.00000000000E+00 0. -1.
</event>
<event>
 7    1  0.7313719E-013  0.5930192E+02  0.7816164E-02  0.1266605E+00
        -11   -1    0    0    0    0  0.00000000000E+00  0.00000000000E+00  0.45593999997E+02  0.45594000000E+02  0.51100000000E-03 0.  1.
         11   -1    0    0    0    0 -0.00000000000E+00 -0.00000000000E+00 -0.45593999997E+02  0.45594000000E+02  0.51100000000E-03 0. -1.
    9900012    2    1    2    0    0 -0.20913706747E+02 -0.47001194446E+01  0.23606092942E+02  0.59301923467E+02  0.49999962502E+02 0.  0.
        -12    1    1    2    0    0  0.20913706747E+02  0.47001194446E+01 -0.23606092942E+02  0.31886076533E+02  0.00000000000E+00 0.  1.
         11    1    3    3    0    0  0.18383276201E+01  0.45820525826E+01 -0.86858488826E+01  0.99909271533E+01  0.51100000000E-03 0. -1.
        -11    1    3    3    0    0 -0.15389914338E+02 -0.12276732897E+02  0.42177737092E+01  0.20133485771E+02  0.51100000000E-03 0.  1.
        -12    1    3    3    0    0 -0.73621200286E+01  0.29945608699E+01  0.28074168115E+02  0.29177510543E+02  0.00000000000E+00 0.  1.
</event>
<event>
 7    1  0.7313719E-013  0.5930196E+02  0.7816164E-02  0.1266605E+00
        -11   -1    0    0    0    0  0.00000000000E+00  0.00000000000E+00  0.45593999997E+02  0.45594000000E+02  0.51100000000E-03 0.  1.
         11   -1    0    0    0    0 -0.00000000000E+00 -0.00000000000E+00 -0.45593999997E+02  0.45594000000E+02  0.51100000000E-03 0. -1.
    9900012    2    1    2    0    0 -0.45336415281E+01  0.12982635444E+02 -0.28768331959E+02  0.59301958347E+02  0.50000026115E+02 0.  0.
        -12    1    1    2    0    0  0.45336415281E+01 -0.12982635444E+02  0.28768331959E+02  0.31886041653E+02  0.00000000000E+00 0.  1.
         11    1    3    3    0    0 -0.30748764690E+00 -0.49558297016E+01 -0.21842117991E+02  0.22399395423E+02  0.51100000000E-03 0. -1.
        -11    1    3    3    0    0  0.17439742835E+01 -0.25918198245E+01 -0.14029246370E+02  0.14372846979E+02  0.51100000000E-03 0.  1.
        -12    1    3    3    0    0 -0.59701281646E+01  0.20530284970E+02  0.71030324026E+01  0.22529715945E+02  0.00000000000E+00 0.  1.
</event>
<event>
 7    1  0.7313719E-013  0.5930193E+02  0.7816164E-02  0.1266605E+00
        -11   -1    0    0    0    0  0.00000000000E+00  0.00000000000E+00  0.45593999997E+02  0.45594000000E+02  0.51100000000E-03 0. -1.
         11   -1    0    0    0    0 -0.00000000000E+00 -0.00000000000E+00 -0.45593999997E+02  0.45594000000E+02  0.51100000000E-03 0.  1.
    9900012    2    1    2    0    0 -0.16520268622E+02 -0.14309771140E+02 -0.23217069493E+02  0.59301934999E+02  0.49999983533E+02 0.  0.
        -12    1    1    2    0    0  0.16520268622E+02  0.14309771140E+02  0.23217069493E+02  0.31886065001E+02  0.00000000000E+00 0.  1.
         11    1    3    3    0    0  0.13962839927E+01  0.87343324319E+01 -0.94691055147E+01  0.12957705489E+02  0.51100000000E-03 0. -1.
        -11    1    3    3    0    0  0.31419496355E+01  0.36322869555E+01 -0.11289763108E+02  0.12268826649E+02  0.51100000000E-03 0.  1.
         12    1    3    3    0    0 -0.21058502250E+02 -0.26676390528E+02 -0.24582008701E+01  0.34075402861E+02  0.00000000000E+00 0. -1.
</event>
<event>
 7    1  0.7313719E-013  0.5930207E+02  0.7816164E-02  0.1266604E+00
        -11   -1    0    0    0    0  0.00000000000E+00  0.00000000000E+00  0.45593999997E+02  0.45594000000E+02  0.51100000000E-03 0. -1.
         11   -1    0    0    0    0 -0.00000000000E+00 -0.00000000000E+00 -0.45593999997E+02  0.45594000000E+02  0.51100000000E-03 0.  1.
    9900012    2    1    2    0    0 -0.28976871961E+02  0.17709502946E+01  0.13187768685E+02  0.59302068674E+02  0.50000227325E+02 0.  0.
        -12    1    1    2    0    0  0.28976871961E+02 -0.17709502946E+01 -0.13187768685E+02  0.31885931326E+02  0.00000000000E+00 0.  1.
         11    1    3    3    0    0 -0.37525326251E-01 -0.86599908957E+01 -0.10824033745E+01  0.87274536831E+01  0.51100000000E-03 0. -1.
        -11    1    3    3    0    0  0.72096905715E+01  0.98598571620E+01  0.18890483517E+01  0.12359810894E+02  0.51100000000E-03 0.  1.
        -12    1    3    3    0    0 -0.36149037207E+02  0.57108402825E+00  0.12381123708E+02  0.38214804097E+02  0.00000000000E+00 0.  1.
</event>
<event>
 7    1  0.7313719E-013  0.5930193E+02  0.7816164E-02  0.1266605E+00
        -11   -1    0    0    0    0  0.00000000000E+00  0.00000000000E+00  0.45593999997E+02  0.45594000000E+02  0.51100000000E-03 0.  1.
         11   -1    0    0    0    0 -0.00000000000E+00 -0.00000000000E+00 -0.45593999997E+02  0.45594000000E+02  0.51100000000E-03 0. -1.
    9900012    2    1    2    0    0 -0.26896709385E+02 -0.12452178624E+02 -0.11757189447E+02  0.59301933577E+02  0.49999980940E+02 0.  0.
        -12    1    1    2    0    0  0.26896709385E+02  0.12452178624E+02  0.11757189447E+02  0.31886066423E+02  0.00000000000E+00 0.  1.
         11    1    3    3    0    0 -0.16516178188E+02 -0.44829181904E+01 -0.13588813946E+02  0.21852609962E+02  0.51100000000E-03 0. -1.
        -11    1    3    3    0    0 -0.15328801640E+02  0.10291409899E+02  0.25980083306E+00  0.18464906557E+02  0.51100000000E-03 0.  1.
        -12    1    3    3    0    0  0.49482704429E+01 -0.18260670333E+02  0.15718236662E+01  0.18984417057E+02  0.00000000000E+00 0.  1.
</event>
<event>
 7    1  0.7313719E-013  0.5930188E+02  0.7816164E-02  0.1266605E+00
        -11   -1    0    0    0    0  0.00000000000E+00  0.00000000000E+00  0.45593999997E+02  0.45594000000E+02  0.51100000000E-03 0.  1.
         11   -1    0    0    0    0 -0.00000000000E+00 -0.00000000000E+00 -0.45593999997E+02  0.45594000000E+02  0.51100000000E-03 0. -1.
    9900012    2    1    2    0    0 -0.29042399728E+02  0.95202325055E+01 -0.90900347976E+01  0.59301881680E+02  0.49999886292E+02 0.  0.
        -12    1    1    2    0    0  0.29042399728E+02 -0.95202325055E+01  0.90900347976E+01  0.31886118320E+02  0.00000000000E+00 0.  1.
         11    1    3    3    0    0 -0.20854398412E+02  0.75876454869E+01 -0.12635838063E+02  0.25537084817E+02  0.51100000000E-03 0. -1.
        -11    1    3    3    0    0 -0.12434198249E+02 -0.26262102349E+01 -0.11713134625E+02  0.17283049190E+02  0.51100000000E-03 0.  1.
         12    1    3    3    0    0  0.42461969332E+01  0.45587972536E+01  0.15258937890E+02  0.16481747673E+02  0.00000000000E+00 0. -1.
</event>
<event>
 7    1  0.7313719E-013  0.5930194E+02  0.7816164E-02  0.1266605E+00
        -11   -1    0    0    0    0  0.00000000000E+00  0.00000000000E+00  0.45593999997E+02  0.45594000000E+02  0.51100000000E-03 0. -1.
         11   -1    0    0    0    0 -0.00000000000E+00 -0.00000000000E+00 -0.45593999997E+02  0.45594000000E+02  0.51100000000E-03 0.  1.
    9900012    2    1    2    0    0 -0.23846454966E+02 -0.18655577696E+02 -0.10001838436E+02  0.59301940887E+02  0.49999994273E+02 0.  0.
        -12    1    1    2    0    0  0.23846454966E+02  0.18655577696E+02  0.10001838436E+02  0.31886059113E+02  0.00000000000E+00 0.  1.
         11    1    3    3    0    0 -0.17387581217E+02  0.41469297267E+01  0.50259868265E+01  0.18568401939E+02  0.51100000000E-03 0. -1.
        -11    1    3    3    0    0 -0.15343299322E+02 -0.77684924119E+01  0.72808668469E+00  0.17213262878E+02  0.51100000000E-03 0.  1.
        -12    1    3    3    0    0  0.88844255726E+01 -0.15034015011E+02 -0.15755911947E+02  0.23520276070E+02  0.00000000000E+00 0.  1.
</event>
<event>
 7    1  0.7313719E-013  0.5930198E+02  0.7816164E-02  0.1266605E+00
        -11   -1    0    0    0    0  0.00000000000E+00  0.00000000000E+00  0.45593999997E+02  0.45594000000E+02  0.51100000000E-03 0. -1.
         11   -1    0    0    0    0 -0.00000000000E+00 -0.00000000000E+00 -0.45593999997E+02  0.45594000000E+02  0.51100000000E-03 0.  1.
    9900012    2    1    2    0    0 -0.24190317871E+02 -0.12027769695E+02 -0.16937519076E+02  0.59301979944E+02  0.50000065503E+02 0.  0.
        -12    1    1    2    0    0  0.24190317871E+02  0.12027769695E+02  0.16937519076E+02  0.31886020056E+02  0.00000000000E+00 0.  1.
         11    1    3    3    0    0 -0.42277195544E+01  0.64188816758E+01 -0.80056004488E-01  0.76864857915E+01  0.51100000000E-03 0. -1.
        -11    1    3    3    0    0 -0.32433124459E+02 -0.11030010617E+02 -0.11191725583E+02  0.36039192807E+02  0.51100000000E-03 0.  1.
        -12    1    3    3    0    0  0.12470526142E+02 -0.74166407544E+01 -0.56657374886E+01  0.15576301346E+02  0.00000000000E+00 0.  1.
</event>
<event>
 7    1  0.7313719E-013  0.5930193E+02  0.7816164E-02  0.1266605E+00
        -11   -1    0    0    0    0  0.00000000000E+00  0.00000000000E+00  0.45593999997E+02  0.45594000000E+02  0.51100000000E-03 0.  1.
         11   -1    0    0    0    0 -0.00000000000E+00 -0.00000000000E+00 -0.45593999997E+02  0.45594000000E+02  0.51100000000E-03 0. -1.
    9900012    2    1    2    0    0  0.16765665927E+02 -0.13899541622E+01 -0.27086927855E+02  0.59301934279E+02  0.49999982220E+02 0.  0.
        -12    1    1    2    0    0 -0.16765665927E+02  0.13899541622E+01  0.27086927855E+02  0.31886065721E+02  0.00000000000E+00 0.  1.
         11    1    3    3    0    0  0.24231218727E+02 -0.75640903460E+01 -0.82008486687E+01  0.26676231797E+02  0.51100000000E-03 0. -1.
        -11    1    3    3    0    0  0.44295628622E+01  0.66440281436E+01  0.23124308469E+01  0.83133310896E+01  0.51100000000E-03 0.  1.
        -12    1    3    3    0    0 -0.11895115662E+02 -0.46989195979E+00 -0.21198510033E+02  0.24312371392E+02  0.00000000000E+00 0.  1.
</event>
<event>
 7    1  0.7313719E-013  0.5930192E+02  0.7816164E-02  0.1266605E+00
        -11   -1    0    0    0    0  0.00000000000E+00  0.00000000000E+00  0.45593999997E+02  0.45594000000E+02  0.51100000000E-03 0.  1.
         11   -1    0    0    0    0 -0.00000000000E+00 -0.00000000000E+00 -0.45593999997E+02  0.45594000000E+02  0.51100000000E-03 0. -1.
    9900012    2    1    2    0    0  0.13049882119E+02 -0.17746447165E+02  0.23053980928E+02  0.59301923933E+02  0.49999963352E+02 0.  0.
        -12    1    1    2    0    0 -0.13049882119E+02  0.17746447165E+02 -0.23053980928E+02  0.31886076067E+02  0.00000000000E+00 0.  1.
         11    1    3    3    0    0 -0.10831228526E+02  0.80192088770E+01  0.64197567716E+01  0.14927709123E+02  0.51100000000E-03 0. -1.
        -11    1    3    3    0    0 -0.25266566689E+01 -0.28300024179E+01  0.72136575618E+01  0.81504455883E+01  0.51100000000E-03 0.  1.
        -12    1    3    3    0    0  0.26407767314E+02 -0.22935653624E+02  0.94205665948E+01  0.36223769222E+02  0.00000000000E+00 0.  1.
</event>
<event>
 7    1  0.7313719E-013  0.5930197E+02  0.7816164E-02  0.1266605E+00
        -11   -1    0    0    0    0  0.00000000000E+00  0.00000000000E+00  0.45593999997E+02  0.45594000000E+02  0.51100000000E-03 0.  1.
         11   -1    0    0    0    0 -0.00000000000E+00 -0.00000000000E+00 -0.45593999997E+02  0.45594000000E+02  0.51100000000E-03 0. -1.
    9900012    2    1    2    0    0  0.13272770551E+02  0.21674646380E+02 -0.19255189845E+02  0.59301967481E+02  0.50000042774E+02 0.  0.
        -12    1    1    2    0    0 -0.13272770551E+02 -0.21674646380E+02  0.19255189845E+02  0.31886032519E+02  0.00000000000E+00 0.  1.
         11    1    3    3    0    0 -0.96926311390E+01  0.13901383774E+01  0.34727769261E+00  0.97979684202E+01  0.51100000000E-03 0. -1.
        -11    1    3    3    0    0 -0.35024337939E+01 -0.57694470104E+01  0.13189511687E+01  0.68770047065E+01  0.51100000000E-03 0.  1.
         12    1    3    3    0    0  0.26467835484E+02  0.26053955013E+02 -0.20921418707E+02  0.42626994355E+02  0.00000000000E+00 0. -1.
</event>
<event>
 7    1  0.7313719E-013  0.5930178E+02  0.7816164E-02  0.1266605E+00
        -11   -1    0    0    0    0  0.00000000000E+00  0.00000000000E+00  0.45593999997E+02  0.45594000000E+02  0.51100000000E-03 0.  1.
         11   -1    0    0    0    0 -0.00000000000E+00 -0.00000000000E+00 -0.45593999997E+02  0.45594000000E+02  0.51100000000E-03 0. -1.
    9900012    2    1    2    0    0 -0.46864770440E+01 -0.10713453965E+02 -0.29664627055E+02  0.59301776310E+02  0.49999694121E+02 0.  0.
        -12    1    1    2    0    0  0.46864770440E+01  0.10713453965E+02  0.29664627055E+02  0.31886223690E+02  0.00000000000E+00 0.  1.
         11    1    3    3    0    0 -0.13930154698E+01  0.95072387973E+01 -0.13619658560E+01  0.97047943256E+01  0.51100000000E-03 0. -1.
        -11    1    3    3    0    0  0.86039057545E+01  0.69415574448E+01 -0.83846028555E+01  0.13874940695E+02  0.51100000000E-03 0.  1.
         12    1    3    3    0    0 -0.11897367329E+02 -0.27162250207E+02 -0.19918058343E+02  0.35722041289E+02  0.00000000000E+00 0. -1.
</event>
<event>
 7    1  0.7313719E-013  0.5930186E+02  0.7816164E-02  0.1266605E+00
        -11   -1    0    0    0    0  0.00000000000E+00  0.00000000000E+00  0.45593999997E+02  0.45594000000E+02  0.51100000000E-03 0.  1.
         11   -1    0    0    0    0 -0.00000000000E+00 -0.00000000000E+00 -0.45593999997E+02  0.45594000000E+02  0.51100000000E-03 0. -1.
    9900012    2    1    2    0    0 -0.19821035290E+02  0.69095974145E+01 -0.24002286967E+02  0.59301862635E+02  0.49999851559E+02 0.  0.
        -12    1    1    2    0    0  0.19821035290E+02 -0.69095974145E+01  0.24002286967E+02  0.31886137365E+02  0.00000000000E+00 0.  1.
         11    1    3    3    0    0  0.46573278407E+01  0.11936262120E+02 -0.11622326642E+02  0.17298656966E+02  0.51100000000E-03 0. -1.
        -11    1    3    3    0    0  0.64198246431E+01  0.93069675542E+00 -0.78946090013E+01  0.10217886104E+02  0.51100000000E-03 0.  1.
        -12    1    3    3    0    0 -0.30898187774E+02 -0.59573614610E+01 -0.44853513245E+01  0.31785319564E+02  0.00000000000E+00 0.  1.
</event>
<event>
 7    1  0.7313719E-013  0.5930199E+02  0.7816164E-02  0.1266605E+00
        -11   -1    0    0    0    0  0.00000000000E+00  0.00000000000E+00  0.45593999997E+02  0.45594000000E+02  0.51100000000E-03 0. -1.
         11   -1    0    0    0    0 -0.00000000000E+00 -0.00000000000E+00 -0.45593999997E+02  0.45594000000E+02  0.51100000000E-03 0.  1.
    9900012    2    1    2    0    0 -0.17343283187E+02 -0.25114155936E+02  0.92307735704E+01  0.59301992398E+02  0.50000088216E+02 0.  0.
        -12    1    1    2    0    0  0.17343283187E+02  0.25114155936E+02 -0.92307735704E+01  0.31886007602E+02  0.00000000000E+00 0.  1.
         11    1    3    3    0    0 -0.14629613770E+01 -0.60077107239E+01 -0.11021408195E+02  0.12637415994E+02  0.51100000000E-03 0. -1.
        -11    1    3    3    0    0  0.93902096693E+00 -0.21187195245E+02  0.13112880687E+01  0.21248493579E+02  0.51100000000E-03 0.  1.
         12    1    3    3    0    0 -0.16819342777E+02  0.20807500330E+01  0.18940893697E+02  0.25416082825E+02  0.00000000000E+00 0. -1.
</event>
<event>
 7    1  0.7313719E-013  0.5930203E+02  0.7816164E-02  0.1266604E+00
        -11   -1    0    0    0    0  0.00000000000E+00  0.00000000000E+00  0.45593999997E+02  0.45594000000E+02  0.51100000000E-03 0. -1.
         11   -1    0    0    0    0 -0.00000000000E+00 -0.00000000000E+00 -0.45593999997E+02  0.45594000000E+02  0.51100000000E-03 0.  1.
    9900012    2    1    2    0    0 -0.15913944163E+02 -0.41028217955E+01  0.27324498947E+02  0.59302031170E+02  0.50000158927E+02 0.  0.
        -12    1    1    2    0    0  0.15913944163E+02  0.41028217955E+01 -0.27324498947E+02  0.31885968830E+02  0.00000000000E+00 0.  1.
         11    1    3    3    0    0 -0.46224739320E+01  0.59322148630E+01  0.39128091645E+00  0.75307064376E+01  0.51100000000E-03 0. -1.
        -11    1    3    3    0    0 -0.26912807467E+02 -0.68354035076E+01  0.20770740202E+02  0.34676297318E+02  0.51100000000E-03 0.  1.
         12    1    3    3    0    0  0.15621337236E+02 -0.31996331509E+01  0.61624778287E+01  0.17095027415E+02  0.00000000000E+00 0. -1.
</event>
<event>
 7    1  0.7313719E-013  0.5930199E+02  0.7816164E-02  0.1266605E+00
        -11   -1    0    0    0    0  0.00000000000E+00  0.00000000000E+00  0.45593999997E+02  0.45594000000E+02  0.51100000000E-03 0.  1.
         11   -1    0    0    0    0 -0.00000000000E+00 -0.00000000000E+00 -0.45593999997E+02  0.45594000000E+02  0.51100000000E-03 0. -1.
    9900012    2    1    2    0    0 -0.28196069936E+02 -0.91863836816E+01 -0.11717932224E+02  0.59301985189E+02  0.50000075067E+02 0.  0.
        -12    1    1    2    0    0  0.28196069936E+02  0.91863836816E+01  0.11717932224E+02  0.31886014811E+02  0.00000000000E+00 0.  1.
         11    1    3    3    0    0 -0.75572982086E+01 -0.21481101976E+01  0.47455044689E+01  0.91786135424E+01  0.51100000000E-03 0. -1.
        -11    1    3    3    0    0 -0.25953181234E+02  0.88126934252E+01 -0.11198189282E+01  0.27431463254E+02  0.51100000000E-03 0.  1.
         12    1    3    3    0    0  0.53144095071E+01 -0.15850966909E+02 -0.15343617764E+02  0.22691908392E+02  0.00000000000E+00 0. -1.
</event>
<event>
 7    1  0.7313719E-013  0.5930199E+02  0.7816164E-02  0.1266605E+00
        -11   -1    0    0    0    0  0.00000000000E+00  0.00000000000E+00  0.45593999997E+02  0.45594000000E+02  0.51100000000E-03 0. -1.
         11   -1    0    0    0    0 -0.00000000000E+00 -0.00000000000E+00 -0.45593999997E+02  0.45594000000E+02  0.51100000000E-03 0.  1.
    9900012    2    1    2    0    0  0.49970324962E+01  0.23029841954E+02  0.21479615729E+02  0.59301986671E+02  0.50000077770E+02 0.  0.
        -12    1    1    2    0    0 -0.49970324962E+01 -0.23029841954E+02 -0.21479615729E+02  0.31886013329E+02  0.00000000000E+00 0.  1.
         11    1    3    3    0    0  0.57306031180E+01  0.98263567600E+01 -0.69424408241E+01  0.13326461801E+02  0.51100000000E-03 0. -1.
        -11    1    3    3    0    0 -0.92788761901E+00  0.23397074088E+02  0.26905724104E+02  0.35667941364E+02  0.51100000000E-03 0.  1.
         12    1    3    3    0    0  0.19431699727E+00 -0.10193588894E+02  0.15163324487E+01  0.10307583506E+02  0.00000000000E+00 0. -1.
</event>
<event>
 7    1  0.7313719E-013  0.5930197E+02  0.7816164E-02  0.1266605E+00
        -11   -1    0    0    0    0  0.00000000000E+00  0.00000000000E+00  0.45593999997E+02  0.45594000000E+02  0.51100000000E-03 0. -1.
         11   -1    0    0    0    0 -0.00000000000E+00 -0.00000000000E+00 -0.45593999997E+02  0.45594000000E+02  0.51100000000E-03 0.  1.
    9900012    2    1    2    0    0 -0.13051460810E+02  0.21504848747E+02  0.19593871751E+02  0.59301969217E+02  0.50000045939E+02 0.  0.
        -12    1    1    2    0    0  0.13051460810E+02 -0.21504848747E+02 -0.19593871751E+02  0.31886030783E+02  0.00000000000E+00 0.  1.
         11    1    3    3    0    0 -0.45567986856E+01  0.22371104058E+01  0.94834647126E+01  0.10756634253E+02  0.51100000000E-03 0. -1.
        -11    1    3    3    0    0  0.32970703551E+01  0.21289003139E+02 -0.11069270221E+02  0.24220261582E+02  0.51100000000E-03 0.  1.
         12    1    3    3    0    0 -0.11791732480E+02 -0.20212647982E+01  0.21179677260E+02  0.24325073383E+02  0.00000000000E+00 0. -1.
</event>
<event>
 7    1  0.7313719E-013  0.5930196E+02  0.7816164E-02  0.1266605E+00
        -11   -1    0    0    0    0  0.00000000000E+00  0.00000000000E+00  0.45593999997E+02  0.45594000000E+02  0.51100000000E-03 0.  1.
         11   -1    0    0    0    0 -0.00000000000E+00 -0.00000000000E+00 -0.45593999997E+02  0.45594000000E+02  0.51100000000E-03 0. -1.
    9900012    2    1    2    0    0  0.16548279032E+02 -0.21218668392E+02 -0.17106784307E+02  0.59301960789E+02  0.50000030569E+02 0.  0.
        -12    1    1    2    0    0 -0.16548279032E+02  0.21218668392E+02  0.17106784307E+02  0.31886039211E+02  0.00000000000E+00 0.  1.
         11    1    3    3    0    0  0.15458406047E+02  0.33060106737E+01 -0.67947979439E+01  0.17206432037E+02  0.51100000000E-03 0. -1.
        -11    1    3    3    0    0 -0.16261913492E+01 -0.28368348302E+02  0.24236307460E+01  0.28518093729E+02  0.51100000000E-03 0.  1.
         12    1    3    3    0    0  0.27160643346E+01  0.38436692364E+01 -0.12735617109E+02  0.13577435023E+02  0.00000000000E+00 0. -1.
</event>
<event>
 7    1  0.7313719E-013  0.5930195E+02  0.7816164E-02  0.1266605E+00
        -11   -1    0    0    0    0  0.00000000000E+00  0.00000000000E+00  0.45593999997E+02  0.45594000000E+02  0.51100000000E-03 0.  1.
         11   -1    0    0    0    0 -0.00000000000E+00 -0.00000000000E+00 -0.45593999997E+02  0.45594000000E+02  0.51100000000E-03 0. -1.
    9900012    2    1    2    0    0  0.19220051594E+02 -0.23510513352E+02  0.97244703285E+01  0.59301953765E+02  0.50000017758E+02 0.  0.
        -12    1    1    2    0    0 -0.19220051594E+02  0.23510513352E+02 -0.97244703285E+01  0.31886046235E+02  0.00000000000E+00 0.  1.
         11    1    3    3    0    0  0.73532699281E+01  0.13781633115E+00  0.32525383878E+01  0.80416775739E+01  0.51100000000E-03 0. -1.
        -11    1    3    3    0    0  0.23438339811E+02 -0.21012705623E+00  0.87566321565E+01  0.25021561371E+02  0.51100000000E-03 0.  1.
         12    1    3    3    0    0 -0.11571558145E+02 -0.23438202627E+02 -0.22847002158E+01  0.26238714820E+02  0.00000000000E+00 0. -1.
</event>
<event>
 7    1  0.7313719E-013  0.5930170E+02  0.7816164E-02  0.1266606E+00
        -11   -1    0    0    0    0  0.00000000000E+00  0.00000000000E+00  0.45593999997E+02  0.45594000000E+02  0.51100000000E-03 0. -1.
         11   -1    0    0    0    0 -0.00000000000E+00 -0.00000000000E+00 -0.45593999997E+02  0.45594000000E+02  0.51100000000E-03 0.  1.
    9900012    2    1    2    0    0 -0.31100514753E+02 -0.29705663397E+01  0.63773042744E+01  0.59301697422E+02  0.49999550248E+02 0.  0.
        -12    1    1    2    0    0  0.31100514753E+02  0.29705663397E+01 -0.63773042744E+01  0.31886302578E+02  0.00000000000E+00 0.  1.
         11    1    3    3    0    0 -0.64358665084E+01 -0.59888168320E+01  0.17087317897E+02  0.19216210291E+02  0.51100000000E-03 0. -1.
        -11    1    3    3    0    0  0.30747370360E+01 -0.70904803290E+01  0.19359949090E+01  0.79672451754E+01  0.51100000000E-03 0.  1.
         12    1    3    3    0    0 -0.27739385281E+02  0.10108730821E+02 -0.12646008532E+02  0.32118241956E+02  0.00000000000E+00 0. -1.
</event>
<event>
 7    1  0.7313719E-013  0.5930194E+02  0.7816164E-02  0.1266605E+00
        -11   -1    0    0    0    0  0.00000000000E+00  0.00000000000E+00  0.45593999997E+02  0.45594000000E+02  0.51100000000E-03 0.  1.
         11   -1    0    0    0    0 -0.00000000000E+00 -0.00000000000E+00 -0.45593999997E+02  0.45594000000E+02  0.51100000000E-03 0. -1.
    9900012    2    1    2    0    0 -0.12547629348E+02  0.24967168452E+02 -0.15359623300E+02  0.59301944574E+02  0.50000000995E+02 0.  0.
        -12    1    1    2    0    0  0.12547629348E+02 -0.24967168452E+02  0.15359623300E+02  0.31886055426E+02  0.00000000000E+00 0.  1.
         11    1    3    3    0    0 -0.64045278532E+01 -0.64827651894E+01 -0.33065814228E+01  0.96942097404E+01  0.51100000000E-03 0. -1.
        -11    1    3    3    0    0 -0.14550654697E+02 -0.92918697117E+00 -0.22876301810E+01  0.14758665002E+02  0.51100000000E-03 0.  1.
        -12    1    3    3    0    0  0.84075532026E+01  0.32379120612E+02 -0.97654116961E+01  0.34849069831E+02  0.00000000000E+00 0.  1.
</event>
<event>
 7    1  0.7313719E-013  0.5930192E+02  0.7816164E-02  0.1266605E+00
        -11   -1    0    0    0    0  0.00000000000E+00  0.00000000000E+00  0.45593999997E+02  0.45594000000E+02  0.51100000000E-03 0. -1.
         11   -1    0    0    0    0 -0.00000000000E+00 -0.00000000000E+00 -0.45593999997E+02  0.45594000000E+02  0.51100000000E-03 0.  1.
    9900012    2    1    2    0    0  0.18977039683E+02  0.11834895291E+02  0.22727287968E+02  0.59301915260E+02  0.49999947535E+02 0.  0.
        -12    1    1    2    0    0 -0.18977039683E+02 -0.11834895291E+02 -0.22727287968E+02  0.31886084740E+02  0.00000000000E+00 0.  1.
         11    1    3    3    0    0  0.13640848352E+02  0.62394894227E+01  0.15077446499E+02  0.21268130271E+02  0.51100000000E-03 0. -1.
        -11    1    3    3    0    0  0.10246041278E+02  0.16578267464E+02 -0.54612156473E+01  0.20239693441E+02  0.51100000000E-03 0.  1.
        -12    1    3    3    0    0 -0.49098499471E+01 -0.10982861596E+02  0.13111057116E+02  0.17794091548E+02  0.00000000000E+00 0.  1.
</event>
<event>
 7    1  0.7313719E-013  0.5930193E+02  0.7816164E-02  0.1266605E+00
        -11   -1    0    0    0    0  0.00000000000E+00  0.00000000000E+00  0.45593999997E+02  0.45594000000E+02  0.51100000000E-03 0. -1.
         11   -1    0    0    0    0 -0.00000000000E+00 -0.00000000000E+00 -0.45593999997E+02  0.45594000000E+02  0.51100000000E-03 0.  1.
    9900012    2    1    2    0    0 -0.42046297423E+00 -0.27744644175E+02  0.15709205161E+02  0.59301934135E+02  0.49999981959E+02 0.  0.
        -12    1    1    2    0    0  0.42046297423E+00  0.27744644175E+02 -0.15709205161E+02  0.31886065865E+02  0.00000000000E+00 0.  1.
         11    1    3    3    0    0 -0.63735364112E+01 -0.26095233565E+02  0.97087704878E+01  0.28562972637E+02  0.51100000000E-03 0. -1.
        -11    1    3    3    0    0 -0.34604267730E+01 -0.33945865976E+01 -0.10554821105E+02  0.11614732904E+02  0.51100000000E-03 0.  1.
        -12    1    3    3    0    0  0.94135002100E+01  0.17451759873E+01  0.16555255779E+02  0.19124228594E+02  0.00000000000E+00 0.  1.
</event>
<event>
 7    1  0.9227982E-013  0.5930192E+02  0.7816164E-02  0.1266605E+00
        -11   -1    0    0    0    0  0.00000000000E+00  0.00000000000E+00  0.45593999997E+02  0.45594000000E+02  0.51100000000E-03 0. -1.
         11   -1    0    0    0    0 -0.00000000000E+00 -0.00000000000E+00 -0.45593999997E+02  0.45594000000E+02  0.51100000000E-03 0.  1.
    9900012    2    1    2    0    0 -0.16098791626E+02 -0.15287987729E+02  0.22887303509E+02  0.59301916476E+02  0.49999949752E+02 0.  0.
        -12    1    1    2    0    0  0.16098791626E+02  0.15287987729E+02 -0.22887303509E+02  0.31886083524E+02  0.00000000000E+00 0.  1.
         11    1    3    3    0    0 -0.52177636095E+01 -0.20155992864E+01  0.11435963749E+02  0.12730630962E+02  0.51100000000E-03 0. -1.
        -11    1    3    3    0    0  0.12263789268E+02  0.23571962035E+01  0.13718672612E+02  0.18551519605E+02  0.51100000000E-03 0.  1.
         12    1    3    3    0    0 -0.23144817284E+02 -0.15629584646E+02 -0.22673328526E+01  0.28019765909E+02  0.00000000000E+00 0. -1.
</event>
<event>
 7    1  0.7313719E-013  0.5930194E+02  0.7816164E-02  0.1266605E+00
        -11   -1    0    0    0    0  0.00000000000E+00  0.00000000000E+00  0.45593999997E+02  0.45594000000E+02  0.51100000000E-03 0.  1.
         11   -1    0    0    0    0 -0.00000000000E+00 -0.00000000000E+00 -0.45593999997E+02  0.45594000000E+02  0.51100000000E-03 0. -1.
    9900012    2    1    2    0    0 -0.22211041993E+02  0.38052029117E+01 -0.22559046163E+02  0.59301944750E+02  0.50000001317E+02 0.  0.
        -12    1    1    2    0    0  0.22211041993E+02 -0.38052029117E+01  0.22559046163E+02  0.31886055250E+02  0.00000000000E+00 0.  1.
         11    1    3    3    0    0 -0.11569270012E+02  0.87147989167E+01  0.27135749821E+01  0.14736323090E+02  0.51100000000E-03 0. -1.
        -11    1    3    3    0    0 -0.44860604612E+01  0.54179750868E+01  0.71230632963E+01  0.10010855283E+02  0.51100000000E-03 0.  1.
         12    1    3    3    0    0 -0.61557115201E+01 -0.10327571092E+02 -0.32395684442E+02  0.34554766378E+02  0.00000000000E+00 0. -1.
</event>
<event>
 7    1  0.7313719E-013  0.5930195E+02  0.7816164E-02  0.1266605E+00
        -11   -1    0    0    0    0  0.00000000000E+00  0.00000000000E+00  0.45593999997E+02  0.45594000000E+02  0.51100000000E-03 0.  1.
         11   -1    0    0    0    0 -0.00000000000E+00 -0.00000000000E+00 -0.45593999997E+02  0.45594000000E+02  0.51100000000E-03 0. -1.
    9900012    2    1    2    0    0  0.30778918338E+02  0.28335280368E+01 -0.78325802604E+01  0.59301952758E+02  0.50000015922E+02 0.  0.
        -12    1    1    2    0    0 -0.30778918338E+02 -0.28335280368E+01  0.78325802604E+01  0.31886047242E+02  0.00000000000E+00 0.  1.
         11    1    3    3    0    0  0.25733689990E+02  0.11206557187E+02 -0.10307062996E+02  0.29900589833E+02  0.51100000000E-03 0. -1.
        -11    1    3    3    0    0  0.12230127471E+02 -0.10363721747E+02 -0.68753824056E+01  0.17442867594E+02  0.51100000000E-03 0.  1.
        -12    1    3    3    0    0 -0.71848991232E+01  0.19906925972E+01  0.93498651414E+01  0.11958495331E+02  0.00000000000E+00 0.  1.
</event>
<event>
 7    1  0.7313719E-013  0.5930188E+02  0.7816164E-02  0.1266605E+00
        -11   -1    0    0    0    0  0.00000000000E+00  0.00000000000E+00  0.45593999997E+02  0.45594000000E+02  0.51100000000E-03 0. -1.
         11   -1    0    0    0    0 -0.00000000000E+00 -0.00000000000E+00 -0.45593999997E+02  0.45594000000E+02  0.51100000000E-03 0.  1.
    9900012    2    1    2    0    0  0.57106846512E+01  0.26231061709E+02  0.17205926582E+02  0.59301883474E+02  0.49999889564E+02 0.  0.
        -12    1    1    2    0    0 -0.57106846512E+01 -0.26231061709E+02 -0.17205926582E+02  0.31886116526E+02  0.00000000000E+00 0.  1.
         11    1    3    3    0    0 -0.87763290779E+01  0.19369022918E+02  0.10606493570E+02  0.23763011320E+02  0.51100000000E-03 0. -1.
        -11    1    3    3    0    0  0.57926506763E+01  0.18943362128E+02  0.57643999676E+01  0.20630901043E+02  0.51100000000E-03 0.  1.
         12    1    3    3    0    0  0.86943630528E+01 -0.12081323337E+02  0.83503304461E+00  0.14907971111E+02  0.00000000000E+00 0. -1.
</event>
<event>
 7    1  0.7313719E-013  0.5930196E+02  0.7816164E-02  0.1266605E+00
        -11   -1    0    0    0    0  0.00000000000E+00  0.00000000000E+00  0.45593999997E+02  0.45594000000E+02  0.51100000000E-03 0.  1.
         11   -1    0    0    0    0 -0.00000000000E+00 -0.00000000000E+00 -0.45593999997E+02  0.45594000000E+02  0.51100000000E-03 0. -1.
    9900012    2    1    2    0    0  0.23552799062E+02  0.10855575669E+02 -0.18551050489E+02  0.59301963228E+02  0.50000035017E+02 0.  0.
        -12    1    1    2    0    0 -0.23552799062E+02 -0.10855575669E+02  0.18551050489E+02  0.31886036772E+02  0.00000000000E+00 0.  1.
         11    1    3    3    0    0  0.14342217821E+02 -0.14930112350E+01  0.31184296677E+01  0.14753064035E+02  0.51100000000E-03 0.  1.
        -11    1    3    3    0    0 -0.53289984463E+01 -0.96325783587E+01 -0.99636134361E+00  0.11053394341E+02  0.51100000000E-03 0. -1.
         12    1    3    3    0    0  0.14539579688E+02  0.21981165263E+02 -0.20673118813E+02  0.33495504852E+02  0.00000000000E+00 0. -1.
</event>
<event>
 7    1  0.7313719E-013  0.5930195E+02  0.7816164E-02  0.1266605E+00
        -11   -1    0    0    0    0  0.00000000000E+00  0.00000000000E+00  0.45593999997E+02  0.45594000000E+02  0.51100000000E-03 0.  1.
         11   -1    0    0    0    0 -0.00000000000E+00 -0.00000000000E+00 -0.45593999997E+02  0.45594000000E+02  0.51100000000E-03 0. -1.
    9900012    2    1    2    0    0  0.61400037070E+01  0.28078837527E+02  0.13805764066E+02  0.59301954716E+02  0.50000019493E+02 0.  0.
        -12    1    1    2    0    0 -0.61400037070E+01 -0.28078837527E+02 -0.13805764066E+02  0.31886045284E+02  0.00000000000E+00 0.  1.
         11    1    3    3    0    0 -0.13933507896E+02  0.33206207450E+01  0.19429413356E+01  0.14454901788E+02  0.51100000000E-03 0. -1.
        -11    1    3    3    0    0  0.85871150206E+00  0.14995964979E+02  0.17005723281E+02  0.22689446350E+02  0.51100000000E-03 0.  1.
        -12    1    3    3    0    0  0.19214800101E+02  0.97622518034E+01 -0.51429005507E+01  0.22157606578E+02  0.00000000000E+00 0.  1.
</event>
<event>
 7    1  0.7313719E-013  0.5930196E+02  0.7816164E-02  0.1266605E+00
        -11   -1    0    0    0    0  0.00000000000E+00  0.00000000000E+00  0.45593999997E+02  0.45594000000E+02  0.51100000000E-03 0.  1.
         11   -1    0    0    0    0 -0.00000000000E+00 -0.00000000000E+00 -0.45593999997E+02  0.45594000000E+02  0.51100000000E-03 0. -1.
    9900012    2    1    2    0    0  0.89147954274E+01 -0.39879233102E+01 -0.30353618348E+02  0.59301964551E+02  0.50000037429E+02 0.  0.
        -12    1    1    2    0    0 -0.89147954274E+01  0.39879233102E+01  0.30353618348E+02  0.31886035449E+02  0.00000000000E+00 0.  1.
         11    1    3    3    0    0  0.56549549382E+01 -0.24088532007E+02 -0.23898790165E+02  0.34400407864E+02  0.51100000000E-03 0. -1.
        -11    1    3    3    0    0 -0.36860828661E+01  0.15845802317E+01  0.24965508819E+00  0.40200036480E+01  0.51100000000E-03 0.  1.
        -12    1    3    3    0    0  0.69459233552E+01  0.18516028465E+02 -0.67044832718E+01  0.20881553039E+02  0.00000000000E+00 0.  1.
</event>
<event>
 7    1  0.7313719E-013  0.5930201E+02  0.7816164E-02  0.1266605E+00
        -11   -1    0    0    0    0  0.00000000000E+00  0.00000000000E+00  0.45593999997E+02  0.45594000000E+02  0.51100000000E-03 0.  1.
         11   -1    0    0    0    0 -0.00000000000E+00 -0.00000000000E+00 -0.45593999997E+02  0.45594000000E+02  0.51100000000E-03 0. -1.
    9900012    2    1    2    0    0 -0.16654236808E+02 -0.11634961598E+02 -0.24576013921E+02  0.59302009420E+02  0.50000119259E+02 0.  0.
        -12    1    1    2    0    0  0.16654236808E+02  0.11634961598E+02  0.24576013921E+02  0.31885990580E+02  0.00000000000E+00 0.  1.
         11    1    3    3    0    0  0.97292204386E+01 -0.15848620359E+02 -0.24979777013E+01  0.18763698742E+02  0.51100000000E-03 0.  1.
        -11    1    3    3    0    0  0.85726702536E+00 -0.19326768016E+01  0.25442409139E+01  0.33080671791E+01  0.51100000000E-03 0. -1.
         12    1    3    3    0    0 -0.27240724272E+02  0.61463355628E+01 -0.24622277134E+02  0.37230243498E+02  0.00000000000E+00 0. -1.
</event>
<event>
 7    1  0.7313719E-013  0.5930226E+02  0.7816164E-02  0.1266604E+00
        -11   -1    0    0    0    0  0.00000000000E+00  0.00000000000E+00  0.45593999997E+02  0.45594000000E+02  0.51100000000E-03 0.  1.
         11   -1    0    0    0    0 -0.00000000000E+00 -0.00000000000E+00 -0.45593999997E+02  0.45594000000E+02  0.51100000000E-03 0. -1.
    9900012    2    1    2    0    0 -0.83202764055E+01 -0.14550717672E+02 -0.27124708224E+02  0.59302263683E+02  0.50000582971E+02 0.  0.
        -12    1    1    2    0    0  0.83202764055E+01  0.14550717672E+02  0.27124708224E+02  0.31885736317E+02  0.00000000000E+00 0.  1.
         11    1    3    3    0    0  0.61044158193E+01  0.21033586141E+01 -0.35943094354E+01  0.73896597034E+01  0.51100000000E-03 0. -1.
        -11    1    3    3    0    0  0.95594856322E-01 -0.20316247023E+02  0.38749987441E+01  0.20682713724E+02  0.51100000000E-03 0.  1.
        -12    1    3    3    0    0 -0.14520287081E+02  0.36621707367E+01 -0.27405397533E+02  0.31229890255E+02  0.00000000000E+00 0.  1.
</event>
<event>
 7    1  0.7313719E-013  0.5930196E+02  0.7816164E-02  0.1266605E+00
        -11   -1    0    0    0    0  0.00000000000E+00  0.00000000000E+00  0.45593999997E+02  0.45594000000E+02  0.51100000000E-03 0. -1.
         11   -1    0    0    0    0 -0.00000000000E+00 -0.00000000000E+00 -0.45593999997E+02  0.45594000000E+02  0.51100000000E-03 0.  1.
    9900012    2    1    2    0    0 -0.13575258646E+02 -0.35685650132E+00  0.28849694210E+02  0.59301955249E+02  0.50000020465E+02 0.  0.
        -12    1    1    2    0    0  0.13575258646E+02  0.35685650132E+00 -0.28849694210E+02  0.31886044751E+02  0.00000000000E+00 0.  1.
         11    1    3    3    0    0 -0.72110960763E+01 -0.15459023551E+02  0.30856570344E+01  0.17335010682E+02  0.51100000000E-03 0. -1.
        -11    1    3    3    0    0 -0.13767465521E+02  0.11253104125E+01  0.28179406875E+01  0.14097879996E+02  0.51100000000E-03 0.  1.
        -12    1    3    3    0    0  0.74033029513E+01  0.13976856637E+02  0.22946096488E+02  0.27869064571E+02  0.00000000000E+00 0.  1.
</event>
<event>
 7    1  0.7313719E-013  0.5930195E+02  0.7816164E-02  0.1266605E+00
        -11   -1    0    0    0    0  0.00000000000E+00  0.00000000000E+00  0.45593999997E+02  0.45594000000E+02  0.51100000000E-03 0. -1.
         11   -1    0    0    0    0 -0.00000000000E+00 -0.00000000000E+00 -0.45593999997E+02  0.45594000000E+02  0.51100000000E-03 0.  1.
    9900012    2    1    2    0    0  0.10249678287E+02  0.18889997165E+02  0.23554879128E+02  0.59301949310E+02  0.50000009634E+02 0.  0.
        -12    1    1    2    0    0 -0.10249678287E+02 -0.18889997165E+02 -0.23554879128E+02  0.31886050690E+02  0.00000000000E+00 0.  1.
         11    1    3    3    0    0 -0.44555141288E+01  0.70547373932E+01  0.78315592666E+01  0.11443524223E+02  0.51100000000E-03 0. -1.
        -11    1    3    3    0    0  0.64327860753E+01 -0.11487943948E+02 -0.64225526695E+01  0.14649326807E+02  0.51100000000E-03 0.  1.
         12    1    3    3    0    0  0.82724063402E+01  0.23323203720E+02  0.22145872531E+02  0.33209098280E+02  0.00000000000E+00 0. -1.
</event>
<event>
 7    1  0.7313719E-013  0.5930196E+02  0.7816164E-02  0.1266605E+00
        -11   -1    0    0    0    0  0.00000000000E+00  0.00000000000E+00  0.45593999997E+02  0.45594000000E+02  0.51100000000E-03 0.  1.
         11   -1    0    0    0    0 -0.00000000000E+00 -0.00000000000E+00 -0.45593999997E+02  0.45594000000E+02  0.51100000000E-03 0. -1.
    9900012    2    1    2    0    0  0.31598122400E+01  0.31729076551E+02 -0.31257025100E-01  0.59301957768E+02  0.50000025060E+02 0.  0.
        -12    1    1    2    0    0 -0.31598122400E+01 -0.31729076551E+02  0.31257025100E-01  0.31886042232E+02  0.00000000000E+00 0.  1.
         11    1    3    3    0    0  0.76304699502E+00  0.43337728501E+01 -0.21497906320E+02  0.21943650658E+02  0.51100000000E-03 0. -1.
        -11    1    3    3    0    0  0.29278447389E+01  0.23794872295E+01  0.82250416048E+01  0.90490631533E+01  0.51100000000E-03 0.  1.
        -12    1    3    3    0    0 -0.53107949392E+00  0.25015816472E+02  0.13241607690E+02  0.28309243957E+02  0.00000000000E+00 0.  1.
</event>
<event>
 7    1  0.7313719E-013  0.5930198E+02  0.7816164E-02  0.1266605E+00
        -11   -1    0    0    0    0  0.00000000000E+00  0.00000000000E+00  0.45593999997E+02  0.45594000000E+02  0.51100000000E-03 0. -1.
         11   -1    0    0    0    0 -0.00000000000E+00 -0.00000000000E+00 -0.45593999997E+02  0.45594000000E+02  0.51100000000E-03 0.  1.
    9900012    2    1    2    0    0 -0.19520731302E+02  0.80228021081E+01  0.23901755919E+02  0.59301980489E+02  0.50000066497E+02 0.  0.
        -12    1    1    2    0    0  0.19520731302E+02 -0.80228021081E+01 -0.23901755919E+02  0.31886019511E+02  0.00000000000E+00 0.  1.
         11    1    3    3    0    0  0.59590042827E+01  0.12224943098E+02  0.13001492655E+02  0.18814828654E+02  0.51100000000E-03 0. -1.
        -11    1    3    3    0    0 -0.11965021800E+02 -0.73426944154E+01  0.19601194866E+02  0.24109826801E+02  0.51100000000E-03 0.  1.
         12    1    3    3    0    0 -0.13514713785E+02  0.31405534259E+01 -0.87009316020E+01  0.16377325033E+02  0.00000000000E+00 0. -1.
</event>
<event>
 7    1  0.7313719E-013  0.5930195E+02  0.7816164E-02  0.1266605E+00
        -11   -1    0    0    0    0  0.00000000000E+00  0.00000000000E+00  0.45593999997E+02  0.45594000000E+02  0.51100000000E-03 0.  1.
         11   -1    0    0    0    0 -0.00000000000E+00 -0.00000000000E+00 -0.45593999997E+02  0.45594000000E+02  0.51100000000E-03 0. -1.
    9900012    2    1    2    0    0 -0.31273519308E+01 -0.11340581435E+01 -0.31712047768E+02  0.59301946754E+02  0.50000004971E+02 0.  0.
        -12    1    1    2    0    0  0.31273519308E+01  0.11340581435E+01  0.31712047768E+02  0.31886053246E+02  0.00000000000E+00 0.  1.
         11    1    3    3    0    0  0.84506396332E+00 -0.30987599485E+01 -0.19088305493E+01  0.37363191309E+01  0.51100000000E-03 0. -1.
        -11    1    3    3    0    0 -0.18084626384E+02 -0.14343019935E+02 -0.68646008376E+01  0.24081085467E+02  0.51100000000E-03 0.  1.
         12    1    3    3    0    0  0.14112210490E+02  0.16307721740E+02 -0.22938616381E+02  0.31484542156E+02  0.00000000000E+00 0. -1.
</event>
<event>
 7    1  0.7313719E-013  0.5930194E+02  0.7816164E-02  0.1266605E+00
        -11   -1    0    0    0    0  0.00000000000E+00  0.00000000000E+00  0.45593999997E+02  0.45594000000E+02  0.51100000000E-03 0.  1.
         11   -1    0    0    0    0 -0.00000000000E+00 -0.00000000000E+00 -0.45593999997E+02  0.45594000000E+02  0.51100000000E-03 0. -1.
    9900012    2    1    2    0    0 -0.17625347529E+02 -0.24908662145E+02 -0.92534578933E+01  0.59301940219E+02  0.49999993054E+02 0.  0.
        -12    1    1    2    0    0  0.17625347529E+02  0.24908662145E+02  0.92534578933E+01  0.31886059781E+02  0.00000000000E+00 0.  1.
         11    1    3    3    0    0 -0.59405029573E+01  0.14784071284E+00  0.51657631274E+01  0.78737882377E+01  0.51100000000E-03 0.  1.
        -11    1    3    3    0    0  0.52626757660E+01 -0.29899465745E+02 -0.31832182996E+01  0.30525508793E+02  0.51100000000E-03 0. -1.
         12    1    3    3    0    0 -0.16947520338E+02  0.48429628873E+01 -0.11236002721E+02  0.20902643189E+02  0.00000000000E+00 0. -1.
</event>
<event>
 7    1  0.7313719E-013  0.5930194E+02  0.7816164E-02  0.1266605E+00
        -11   -1    0    0    0    0  0.00000000000E+00  0.00000000000E+00  0.45593999997E+02  0.45594000000E+02  0.51100000000E-03 0.  1.
         11   -1    0    0    0    0 -0.00000000000E+00 -0.00000000000E+00 -0.45593999997E+02  0.45594000000E+02  0.51100000000E-03 0. -1.
    9900012    2    1    2    0    0  0.10652177038E+02  0.10409079444E+02 -0.28194023275E+02  0.59301940994E+02  0.49999994467E+02 0.  0.
        -12    1    1    2    0    0 -0.10652177038E+02 -0.10409079444E+02  0.28194023275E+02  0.31886059006E+02  0.00000000000E+00 0.  1.
         11    1    3    3    0    0 -0.10503210683E+02 -0.19300722452E+00 -0.14045774840E+02  0.17539625924E+02  0.51100000000E-03 0. -1.
        -11    1    3    3    0    0  0.61569180719E+01  0.20445113162E+02 -0.78201108893E+01  0.22739050704E+02  0.51100000000E-03 0.  1.
        -12    1    3    3    0    0  0.14998469648E+02 -0.98430264931E+01 -0.63281375457E+01  0.19023264366E+02  0.00000000000E+00 0.  1.
</event>
<event>
 7    1  0.7313719E-013  0.5930194E+02  0.7816164E-02  0.1266605E+00
        -11   -1    0    0    0    0  0.00000000000E+00  0.00000000000E+00  0.45593999997E+02  0.45594000000E+02  0.51100000000E-03 0.  1.
         11   -1    0    0    0    0 -0.00000000000E+00 -0.00000000000E+00 -0.45593999997E+02  0.45594000000E+02  0.51100000000E-03 0. -1.
    9900012    2    1    2    0    0  0.21393021330E+02  0.20218488637E+02 -0.12258544250E+02  0.59301944246E+02  0.50000000398E+02 0.  0.
        -12    1    1    2    0    0 -0.21393021330E+02 -0.20218488637E+02  0.12258544250E+02  0.31886055754E+02  0.00000000000E+00 0.  1.
         11    1    3    3    0    0 -0.23544998103E+01  0.41068471313E+01 -0.19068068329E+02  0.19646910515E+02  0.51100000000E-03 0. -1.
        -11    1    3    3    0    0  0.26699414481E+01 -0.23731039613E+00 -0.84906054816E+01  0.89036669561E+01  0.51100000000E-03 0.  1.
        -12    1    3    3    0    0  0.21077579693E+02  0.16348951901E+02  0.15300129560E+02  0.30751366775E+02  0.00000000000E+00 0.  1.
</event>
<event>
 7    1  0.7313719E-013  0.5930193E+02  0.7816164E-02  0.1266605E+00
        -11   -1    0    0    0    0  0.00000000000E+00  0.00000000000E+00  0.45593999997E+02  0.45594000000E+02  0.51100000000E-03 0.  1.
         11   -1    0    0    0    0 -0.00000000000E+00 -0.00000000000E+00 -0.45593999997E+02  0.45594000000E+02  0.51100000000E-03 0. -1.
    9900012    2    1    2    0    0  0.14888578115E+02  0.37462629692E+01 -0.27946686863E+02  0.59301928572E+02  0.49999971812E+02 0.  0.
        -12    1    1    2    0    0 -0.14888578115E+02 -0.37462629692E+01  0.27946686863E+02  0.31886071428E+02  0.00000000000E+00 0.  1.
         11    1    3    3    0    0  0.10402588827E+02  0.25191802780E+01  0.29229414663E+01  0.11095211159E+02  0.51100000000E-03 0. -1.
        -11    1    3    3    0    0  0.48928528008E+01 -0.16922592966E+02 -0.89929084949E+01  0.19778436861E+02  0.51100000000E-03 0.  1.
         12    1    3    3    0    0 -0.40686351354E+00  0.18149675657E+02 -0.21876719835E+02  0.28428280551E+02  0.00000000000E+00 0. -1.
</event>
<event>
 7    1  0.7313719E-013  0.5930202E+02  0.7816164E-02  0.1266604E+00
        -11   -1    0    0    0    0  0.00000000000E+00  0.00000000000E+00  0.45593999997E+02  0.45594000000E+02  0.51100000000E-03 0. -1.
         11   -1    0    0    0    0 -0.00000000000E+00 -0.00000000000E+00 -0.45593999997E+02  0.45594000000E+02  0.51100000000E-03 0.  1.
    9900012    2    1    2    0    0 -0.14554497668E+02  0.73820484390E+01  0.27393200487E+02  0.59302023859E+02  0.50000145593E+02 0.  0.
        -12    1    1    2    0    0  0.14554497668E+02 -0.73820484390E+01 -0.27393200487E+02  0.31885976141E+02  0.00000000000E+00 0.  1.
         11    1    3    3    0    0 -0.13627182863E+02  0.30424285773E+01  0.18318229383E+02  0.23032889798E+02  0.51100000000E-03 0. -1.
        -11    1    3    3    0    0 -0.86673551281E+01 -0.12108782335E+02  0.10210063006E+02  0.18055221998E+02  0.51100000000E-03 0.  1.
        -12    1    3    3    0    0  0.77400403229E+01  0.16448402197E+02 -0.11350919023E+01  0.18213912063E+02  0.00000000000E+00 0.  1.
</event>
<event>
 7    1  0.7313719E-013  0.5930197E+02  0.7816164E-02  0.1266605E+00
        -11   -1    0    0    0    0  0.00000000000E+00  0.00000000000E+00  0.45593999997E+02  0.45594000000E+02  0.51100000000E-03 0.  1.
         11   -1    0    0    0    0 -0.00000000000E+00 -0.00000000000E+00 -0.45593999997E+02  0.45594000000E+02  0.51100000000E-03 0. -1.
    9900012    2    1    2    0    0  0.11182918550E+02  0.10952647058E+02 -0.27779506351E+02  0.59301966725E+02  0.50000041395E+02 0.  0.
        -12    1    1    2    0    0 -0.11182918550E+02 -0.10952647058E+02  0.27779506351E+02  0.31886033275E+02  0.00000000000E+00 0.  1.
         11    1    3    3    0    0 -0.57423285210E+01 -0.58526426986E+01 -0.13939266192E+02  0.16171917191E+02  0.51100000000E-03 0. -1.
        -11    1    3    3    0    0 -0.10176789166E+01 -0.15398446764E+01  0.87497615413E+01  0.89423218067E+01  0.51100000000E-03 0.  1.
         12    1    3    3    0    0  0.17942925987E+02  0.18345134433E+02 -0.22590001700E+02  0.34187727727E+02  0.00000000000E+00 0. -1.
</event>
<event>
 7    1  0.7313719E-013  0.5930195E+02  0.7816164E-02  0.1266605E+00
        -11   -1    0    0    0    0  0.00000000000E+00  0.00000000000E+00  0.45593999997E+02  0.45594000000E+02  0.51100000000E-03 0.  1.
         11   -1    0    0    0    0 -0.00000000000E+00 -0.00000000000E+00 -0.45593999997E+02  0.45594000000E+02  0.51100000000E-03 0. -1.
    9900012    2    1    2    0    0  0.21718260361E+02  0.73911726695E+01 -0.22145161539E+02  0.59301945899E+02  0.50000003412E+02 0.  0.
        -12    1    1    2    0    0 -0.21718260361E+02 -0.73911726695E+01  0.22145161539E+02  0.31886054101E+02  0.00000000000E+00 0.  1.
         11    1    3    3    0    0  0.18947047887E+02 -0.66180219645E+00 -0.18975900521E+02  0.26823747066E+02  0.51100000000E-03 0. -1.
        -11    1    3    3    0    0  0.11708660231E+02 -0.67952395210E+01 -0.61911444250E+01  0.14886177283E+02  0.51100000000E-03 0.  1.
         12    1    3    3    0    0 -0.89374477570E+01  0.14848214387E+02  0.30218834068E+01  0.17592021550E+02  0.00000000000E+00 0. -1.
</event>
<event>
 7    1  0.7313719E-013  0.5930194E+02  0.7816164E-02  0.1266605E+00
        -11   -1    0    0    0    0  0.00000000000E+00  0.00000000000E+00  0.45593999997E+02  0.45594000000E+02  0.51100000000E-03 0.  1.
         11   -1    0    0    0    0 -0.00000000000E+00 -0.00000000000E+00 -0.45593999997E+02  0.45594000000E+02  0.51100000000E-03 0. -1.
    9900012    2    1    2    0    0 -0.30488747472E+02 -0.76467848990E+01 -0.53557423477E+01  0.59301936935E+02  0.49999987065E+02 0.  0.
        -12    1    1    2    0    0  0.30488747472E+02  0.76467848990E+01  0.53557423477E+01  0.31886063065E+02  0.00000000000E+00 0.  1.
         11    1    3    3    0    0 -0.26548799567E+02 -0.61956927313E+01 -0.15494006132E+02  0.31357448766E+02  0.51100000000E-03 0. -1.
        -11    1    3    3    0    0 -0.73658420659E+01 -0.14715419524E+01 -0.71198830994E+01  0.10349579734E+02  0.51100000000E-03 0.  1.
        -12    1    3    3    0    0  0.34258941610E+01  0.20449784646E-01  0.17258146883E+02  0.17594908435E+02  0.00000000000E+00 0.  1.
</event>
<event>
 7    1  0.7313719E-013  0.5930194E+02  0.7816164E-02  0.1266605E+00
        -11   -1    0    0    0    0  0.00000000000E+00  0.00000000000E+00  0.45593999997E+02  0.45594000000E+02  0.51100000000E-03 0.  1.
         11   -1    0    0    0    0 -0.00000000000E+00 -0.00000000000E+00 -0.45593999997E+02  0.45594000000E+02  0.51100000000E-03 0. -1.
    9900012    2    1    2    0    0 -0.12190956758E+02 -0.16780346375E+02 -0.24218199347E+02  0.59301943004E+02  0.49999998134E+02 0.  0.
        -12    1    1    2    0    0  0.12190956758E+02  0.16780346375E+02  0.24218199347E+02  0.31886056996E+02  0.00000000000E+00 0.  1.
         11    1    3    3    0    0  0.27444476394E+01 -0.87792647264E+01 -0.71003578292E+01  0.11619920978E+02  0.51100000000E-03 0. -1.
        -11    1    3    3    0    0  0.42879250236E+01 -0.17518037667E+02 -0.18941713913E+02  0.26154473248E+02  0.51100000000E-03 0.  1.
        -12    1    3    3    0    0 -0.19223329421E+02  0.95169560176E+01  0.18238723953E+01  0.21527548778E+02  0.00000000000E+00 0.  1.
</event>
<event>
 7    1  0.7313719E-013  0.5930196E+02  0.7816164E-02  0.1266605E+00
        -11   -1    0    0    0    0  0.00000000000E+00  0.00000000000E+00  0.45593999997E+02  0.45594000000E+02  0.51100000000E-03 0. -1.
         11   -1    0    0    0    0 -0.00000000000E+00 -0.00000000000E+00 -0.45593999997E+02  0.45594000000E+02  0.51100000000E-03 0.  1.
    9900012    2    1    2    0    0  0.19319657080E+02 -0.19532616622E+02  0.16184782572E+02  0.59301961540E+02  0.50000031938E+02 0.  0.
        -12    1    1    2    0    0 -0.19319657080E+02  0.19532616622E+02 -0.16184782572E+02  0.31886038460E+02  0.00000000000E+00 0.  1.
         11    1    3    3    0    0  0.14862262652E+01  0.49491576591E+01 -0.63592427605E+01  0.81940831576E+01  0.51100000000E-03 0. -1.
        -11    1    3    3    0    0  0.22291652165E+02 -0.99772596854E+01  0.60202402370E+00  0.24430020472E+02  0.51100000000E-03 0.  1.
         12    1    3    3    0    0 -0.44582213501E+01 -0.14504514595E+02  0.21942001309E+02  0.26677857910E+02  0.00000000000E+00 0. -1.
</event>
<event>
 7    1  0.7313719E-013  0.5930196E+02  0.7816164E-02  0.1266605E+00
        -11   -1    0    0    0    0  0.00000000000E+00  0.00000000000E+00  0.45593999997E+02  0.45594000000E+02  0.51100000000E-03 0.  1.
         11   -1    0    0    0    0 -0.00000000000E+00 -0.00000000000E+00 -0.45593999997E+02  0.45594000000E+02  0.51100000000E-03 0. -1.
    9900012    2    1    2    0    0 -0.23192060413E+02 -0.73705427555E+01 -0.20603954427E+02  0.59301960661E+02  0.50000030334E+02 0.  0.
        -12    1    1    2    0    0  0.23192060413E+02  0.73705427555E+01  0.20603954427E+02  0.31886039339E+02  0.00000000000E+00 0.  1.
         11    1    3    3    0    0  0.98343649212E-01  0.64344039538E+00 -0.15648647722E+02  0.15662179376E+02  0.51100000000E-03 0. -1.
        -11    1    3    3    0    0 -0.27002446409E+01 -0.91105216014E+01 -0.17206125880E+02  0.19655627515E+02  0.51100000000E-03 0.  1.
        -12    1    3    3    0    0 -0.20590159421E+02  0.10965384506E+01  0.12250819175E+02  0.23984153769E+02  0.00000000000E+00 0.  1.
</event>
<event>
 7    1  0.7313719E-013  0.5930192E+02  0.7816164E-02  0.1266605E+00
        -11   -1    0    0    0    0  0.00000000000E+00  0.00000000000E+00  0.45593999997E+02  0.45594000000E+02  0.51100000000E-03 0. -1.
         11   -1    0    0    0    0 -0.00000000000E+00 -0.00000000000E+00 -0.45593999997E+02  0.45594000000E+02  0.51100000000E-03 0.  1.
    9900012    2    1    2    0    0 -0.74136673038E+01  0.43760845376E+01  0.30701941889E+02  0.59301924442E+02  0.49999964280E+02 0.  0.
        -12    1    1    2    0    0  0.74136673038E+01 -0.43760845376E+01 -0.30701941889E+02  0.31886075558E+02  0.00000000000E+00 0.  1.
         11    1    3    3    0    0  0.40803630699E+00  0.21479688809E+02  0.74225564811E+01  0.22729669376E+02  0.51100000000E-03 0. -1.
        -11    1    3    3    0    0  0.82544698182E+00  0.33491323459E+01 -0.10763113620E+01  0.36133774505E+01  0.51100000000E-03 0.  1.
        -12    1    3    3    0    0 -0.86471505926E+01 -0.20452736618E+02  0.24355696770E+02  0.32958877615E+02  0.00000000000E+00 0.  1.
</event>
<event>
 7    1  0.7313719E-013  0.5930193E+02  0.7816164E-02  0.1266605E+00
        -11   -1    0    0    0    0  0.00000000000E+00  0.00000000000E+00  0.45593999997E+02  0.45594000000E+02  0.51100000000E-03 0. -1.
         11   -1    0    0    0    0 -0.00000000000E+00 -0.00000000000E+00 -0.45593999997E+02  0.45594000000E+02  0.51100000000E-03 0.  1.
    9900012    2    1    2    0    0 -0.18943824857E+02 -0.11827620863E+02  0.22758741723E+02  0.59301930309E+02  0.49999974980E+02 0.  0.
        -12    1    1    2    0    0  0.18943824857E+02  0.11827620863E+02 -0.22758741723E+02  0.31886069691E+02  0.00000000000E+00 0.  1.
         11    1    3    3    0    0 -0.11396266010E+02 -0.39663358228E+01  0.30083292831E+02  0.32413133243E+02  0.51100000000E-03 0. -1.
        -11    1    3    3    0    0 -0.12116790601E+01  0.35790551264E+01  0.67130384173E+01  0.77034204608E+01  0.51100000000E-03 0.  1.
        -12    1    3    3    0    0 -0.63358797871E+01 -0.11440340167E+02 -0.14037589525E+02  0.19185376605E+02  0.00000000000E+00 0.  1.
</event>
<event>
 7    1  0.7313719E-013  0.5930192E+02  0.7816164E-02  0.1266605E+00
        -11   -1    0    0    0    0  0.00000000000E+00  0.00000000000E+00  0.45593999997E+02  0.45594000000E+02  0.51100000000E-03 0.  1.
         11   -1    0    0    0    0 -0.00000000000E+00 -0.00000000000E+00 -0.45593999997E+02  0.45594000000E+02  0.51100000000E-03 0. -1.
    9900012    2    1    2    0    0  0.38234683789E+01  0.31114909132E+02 -0.58280131765E+01  0.59301918109E+02  0.49999952731E+02 0.  0.
        -12    1    1    2    0    0 -0.38234683789E+01 -0.31114909132E+02  0.58280131765E+01  0.31886081891E+02  0.00000000000E+00 0.  1.
         11    1    3    3    0    0 -0.58437410006E+00  0.56803180477E+01  0.17537958115E+01  0.59735505540E+01  0.51100000000E-03 0. -1.
        -11    1    3    3    0    0  0.15945299036E+02  0.25896094441E+02  0.10243226129E+02  0.32090246968E+02  0.51100000000E-03 0.  1.
         12    1    3    3    0    0 -0.11537456557E+02 -0.46150335667E+00 -0.17825035117E+02  0.21238120588E+02  0.00000000000E+00 0. -1.
</event>
<event>
 7    1  0.8343527E-013  0.5930194E+02  0.7816164E-02  0.1266605E+00
        -11   -1    0    0    0    0  0.00000000000E+00  0.00000000000E+00  0.45593999997E+02  0.45594000000E+02  0.51100000000E-03 0. -1.
         11   -1    0    0    0    0 -0.00000000000E+00 -0.00000000000E+00 -0.45593999997E+02  0.45594000000E+02  0.51100000000E-03 0.  1.
    9900012    2    1    2    0    0 -0.26774024824E+02  0.72495904476E+01  0.15726288296E+02  0.59301935481E+02  0.49999984413E+02 0.  0.
        -12    1    1    2    0    0  0.26774024824E+02 -0.72495904476E+01 -0.15726288296E+02  0.31886064519E+02  0.00000000000E+00 0.  1.
         11    1    3    3    0    0  0.26848114293E+01 -0.62055081002E+01  0.72216394368E+01  0.98928569993E+01  0.51100000000E-03 0. -1.
        -11    1    3    3    0    0  0.28110085869E+01 -0.82577616885E+01 -0.23388552340E+01  0.90312037651E+01  0.51100000000E-03 0.  1.
         12    1    3    3    0    0 -0.32269844840E+02  0.21712860236E+02  0.10843504093E+02  0.40377874717E+02  0.00000000000E+00 0. -1.
</event>
<event>
 7    1  0.7313719E-013  0.5930193E+02  0.7816164E-02  0.1266605E+00
        -11   -1    0    0    0    0  0.00000000000E+00  0.00000000000E+00  0.45593999997E+02  0.45594000000E+02  0.51100000000E-03 0.  1.
         11   -1    0    0    0    0 -0.00000000000E+00 -0.00000000000E+00 -0.45593999997E+02  0.45594000000E+02  0.51100000000E-03 0. -1.
    9900012    2    1    2    0    0  0.16147767341E+02 -0.16968056230E+02 -0.21634608108E+02  0.59301927958E+02  0.49999970692E+02 0.  0.
        -12    1    1    2    0    0 -0.16147767341E+02  0.16968056230E+02  0.21634608108E+02  0.31886072042E+02  0.00000000000E+00 0.  1.
         11    1    3    3    0    0 -0.51312924341E+00  0.32312174296E+01  0.50212404742E+00  0.33100145797E+01  0.51100000000E-03 0. -1.
        -11    1    3    3    0    0  0.13161101911E+02  0.24310297594E+01  0.98752983473E+01  0.16632679487E+02  0.51100000000E-03 0.  1.
         12    1    3    3    0    0  0.34997946731E+01 -0.22630303419E+02 -0.32012030502E+02  0.39359233891E+02  0.00000000000E+00 0. -1.
</event>
<event>
 7    1  0.7313719E-013  0.5930197E+02  0.7816164E-02  0.1266605E+00
        -11   -1    0    0    0    0  0.00000000000E+00  0.00000000000E+00  0.45593999997E+02  0.45594000000E+02  0.51100000000E-03 0. -1.
         11   -1    0    0    0    0 -0.00000000000E+00 -0.00000000000E+00 -0.45593999997E+02  0.45594000000E+02  0.51100000000E-03 0.  1.
    9900012    2    1    2    0    0 -0.21286345648E+02  0.23543361144E+02 -0.30529268578E+01  0.59301972850E+02  0.50000052566E+02 0.  0.
        -12    1    1    2    0    0  0.21286345648E+02 -0.23543361144E+02  0.30529268578E+01  0.31886027150E+02  0.00000000000E+00 0.  1.
         11    1    3    3    0    0 -0.16747852556E+02  0.57584729810E+00  0.10163611548E+02  0.19599009294E+02  0.51100000000E-03 0. -1.
        -11    1    3    3    0    0 -0.42064535070E+01  0.51152541479E+01  0.90166923550E+01  0.11187529548E+02  0.51100000000E-03 0.  1.
        -12    1    3    3    0    0 -0.33203958467E+00  0.17852259698E+02 -0.22233230761E+02  0.28515434008E+02  0.00000000000E+00 0.  1.
</event>
<event>
 7    1  0.7313719E-013  0.5930174E+02  0.7816164E-02  0.1266605E+00
        -11   -1    0    0    0    0  0.00000000000E+00  0.00000000000E+00  0.45593999997E+02  0.45594000000E+02  0.51100000000E-03 0.  1.
         11   -1    0    0    0    0 -0.00000000000E+00 -0.00000000000E+00 -0.45593999997E+02  0.45594000000E+02  0.51100000000E-03 0. -1.
    9900012    2    1    2    0    0  0.10641132949E+02 -0.43468821158E+01 -0.29742298169E+02  0.59301742851E+02  0.49999633101E+02 0.  0.
        -12    1    1    2    0    0 -0.10641132949E+02  0.43468821158E+01  0.29742298169E+02  0.31886257149E+02  0.00000000000E+00 0.  1.
         11    1    3    3    0    0  0.16310547345E+02 -0.54085340192E+01 -0.50176780324E+01  0.17901488431E+02  0.51100000000E-03 0. -1.
        -11    1    3    3    0    0 -0.97496346097E+01  0.14927350973E+02 -0.87606436001E+01  0.19865297849E+02  0.51100000000E-03 0.  1.
         12    1    3    3    0    0  0.40802202135E+01 -0.13865699069E+02 -0.15963976537E+02  0.21534956572E+02  0.00000000000E+00 0. -1.
</event>
<event>
 7    1  0.7313719E-013  0.5930194E+02  0.7816164E-02  0.1266605E+00
        -11   -1    0    0    0    0  0.00000000000E+00  0.00000000000E+00  0.45593999997E+02  0.45594000000E+02  0.51100000000E-03 0. -1.
         11   -1    0    0    0    0 -0.00000000000E+00 -0.00000000000E+00 -0.45593999997E+02  0.45594000000E+02  0.51100000000E-03 0.  1.
    9900012    2    1    2    0    0  0.30499237920E+02 -0.92922609694E+01  0.41353269378E+00  0.59301942908E+02  0.49999997957E+02 0.  0.
        -12    1    1    2    0    0 -0.30499237920E+02  0.92922609694E+01 -0.41353269378E+00  0.31886057092E+02  0.00000000000E+00 0.  1.
         11    1    3    3    0    0  0.11432558062E+01  0.20793282205E+01  0.63697109101E+00  0.24569029526E+01  0.51100000000E-03 0. -1.
        -11    1    3    3    0    0  0.41091033818E+01  0.17424082447E+02  0.39174551155E+01  0.18325660549E+02  0.51100000000E-03 0.  1.
         12    1    3    3    0    0  0.25246878732E+02 -0.28795671637E+02 -0.41408935128E+01  0.38519379406E+02  0.00000000000E+00 0. -1.
</event>
<event>
 7    1  0.7313719E-013  0.5930195E+02  0.7816164E-02  0.1266605E+00
        -11   -1    0    0    0    0  0.00000000000E+00  0.00000000000E+00  0.45593999997E+02  0.45594000000E+02  0.51100000000E-03 0.  1.
         11   -1    0    0    0    0 -0.00000000000E+00 -0.00000000000E+00 -0.45593999997E+02  0.45594000000E+02  0.51100000000E-03 0. -1.
    9900012    2    1    2    0    0  0.78838285810E+01  0.19462937868E+02 -0.23994993779E+02  0.59301946152E+02  0.50000003874E+02 0.  0.
        -12    1    1    2    0    0 -0.78838285810E+01 -0.19462937868E+02  0.23994993779E+02  0.31886053848E+02  0.00000000000E+00 0.  1.
         11    1    3    3    0    0  0.54559167091E+01  0.34984201773E+01 -0.28136476588E+00  0.64873058558E+01  0.51100000000E-03 0. -1.
        -11    1    3    3    0    0  0.22738957863E+02  0.14086818347E+02 -0.12306402929E+02  0.29443950298E+02  0.51100000000E-03 0.  1.
         12    1    3    3    0    0 -0.20311045991E+02  0.18776993440E+01 -0.11407226084E+02  0.23370689998E+02  0.00000000000E+00 0. -1.
</event>
<event>
 7    1  0.7313719E-013  0.5930196E+02  0.7816164E-02  0.1266605E+00
        -11   -1    0    0    0    0  0.00000000000E+00  0.00000000000E+00  0.45593999997E+02  0.45594000000E+02  0.51100000000E-03 0. -1.
         11   -1    0    0    0    0 -0.00000000000E+00 -0.00000000000E+00 -0.45593999997E+02  0.45594000000E+02  0.51100000000E-03 0.  1.
    9900012    2    1    2    0    0 -0.81888132451E+01  0.28073906868E+01  0.30688459052E+02  0.59301958793E+02  0.50000026929E+02 0.  0.
        -12    1    1    2    0    0  0.81888132451E+01 -0.28073906868E+01 -0.30688459052E+02  0.31886041207E+02  0.00000000000E+00 0.  1.
         11    1    3    3    0    0 -0.11701537969E+02  0.12452146273E+02  0.12974241161E+02  0.21454903207E+02  0.51100000000E-03 0. -1.
        -11    1    3    3    0    0 -0.46564044779E+01 -0.65373610967E+01 -0.76079559112E+01  0.11058941458E+02  0.51100000000E-03 0.  1.
        -12    1    3    3    0    0  0.81691292018E+01 -0.31073944897E+01  0.25322173803E+02  0.26788114128E+02  0.00000000000E+00 0.  1.
</event>
<event>
 7    1  0.7313719E-013  0.5930194E+02  0.7816164E-02  0.1266605E+00
        -11   -1    0    0    0    0  0.00000000000E+00  0.00000000000E+00  0.45593999997E+02  0.45594000000E+02  0.51100000000E-03 0.  1.
         11   -1    0    0    0    0 -0.00000000000E+00 -0.00000000000E+00 -0.45593999997E+02  0.45594000000E+02  0.51100000000E-03 0. -1.
    9900012    2    1    2    0    0  0.10521259941E+02  0.59364686221E+01 -0.29509019837E+02  0.59301940002E+02  0.49999992658E+02 0.  0.
        -12    1    1    2    0    0 -0.10521259941E+02 -0.59364686221E+01  0.29509019837E+02  0.31886059998E+02  0.00000000000E+00 0.  1.
         11    1    3    3    0    0  0.50410349140E+01  0.16594925193E+01 -0.28634476564E+02  0.29122142724E+02  0.51100000000E-03 0. -1.
        -11    1    3    3    0    0 -0.10252741720E+02  0.73582644970E+00  0.67953519127E+01  0.12322214136E+02  0.51100000000E-03 0.  1.
         12    1    3    3    0    0  0.15732966747E+02  0.35411496531E+01 -0.76698951852E+01  0.17857583142E+02  0.00000000000E+00 0. -1.
</event>
<event>
 7    1  0.7313719E-013  0.5930196E+02  0.7816164E-02  0.1266605E+00
        -11   -1    0    0    0    0  0.00000000000E+00  0.00000000000E+00  0.45593999997E+02  0.45594000000E+02  0.51100000000E-03 0.  1.
         11   -1    0    0    0    0 -0.00000000000E+00 -0.00000000000E+00 -0.45593999997E+02  0.45594000000E+02  0.51100000000E-03 0. -1.
    9900012    2    1    2    0    0  0.26977881957E+02 -0.87400327868E+01 -0.14578251939E+02  0.59301957323E+02  0.50000024247E+02 0.  0.
        -12    1    1    2    0    0 -0.26977881957E+02  0.87400327868E+01  0.14578251939E+02  0.31886042677E+02  0.00000000000E+00 0.  1.
         11    1    3    3    0    0  0.15324272777E+02 -0.18865974536E+02 -0.19450254719E+01  0.24383220782E+02  0.51100000000E-03 0. -1.
        -11    1    3    3    0    0  0.55812326374E+01 -0.99780072638E+01 -0.58950962659E+01  0.12863240142E+02  0.51100000000E-03 0.  1.
        -12    1    3    3    0    0  0.60723765432E+01  0.20103949013E+02 -0.67381302008E+01  0.22055496399E+02  0.00000000000E+00 0.  1.
</event>
<event>
 7    1  0.7313719E-013  0.5930194E+02  0.7816164E-02  0.1266605E+00
        -11   -1    0    0    0    0  0.00000000000E+00  0.00000000000E+00  0.45593999997E+02  0.45594000000E+02  0.51100000000E-03 0. -1.
         11   -1    0    0    0    0 -0.00000000000E+00 -0.00000000000E+00 -0.45593999997E+02  0.45594000000E+02  0.51100000000E-03 0.  1.
    9900012    2    1    2    0    0 -0.64207345420E+01 -0.19082262265E+02  0.24725744916E+02  0.59301936793E+02  0.49999986805E+02 0.  0.
        -12    1    1    2    0    0  0.64207345420E+01  0.19082262265E+02 -0.24725744916E+02  0.31886063207E+02  0.00000000000E+00 0.  1.
         11    1    3    3    0    0 -0.58815256912E+01 -0.16555590591E+02  0.15019877904E+02  0.23114425297E+02  0.51100000000E-03 0. -1.
        -11    1    3    3    0    0 -0.25501258685E+01 -0.17736788446E+02  0.10598910631E+02  0.20819070900E+02  0.51100000000E-03 0.  1.
        -12    1    3    3    0    0  0.20109170177E+01  0.15210116771E+02 -0.89304361935E+00  0.15368440596E+02  0.00000000000E+00 0.  1.
</event>
<event>
 7    1  0.7313719E-013  0.5930205E+02  0.7816164E-02  0.1266604E+00
        -11   -1    0    0    0    0  0.00000000000E+00  0.00000000000E+00  0.45593999997E+02  0.45594000000E+02  0.51100000000E-03 0. -1.
         11   -1    0    0    0    0 -0.00000000000E+00 -0.00000000000E+00 -0.45593999997E+02  0.45594000000E+02  0.51100000000E-03 0.  1.
    9900012    2    1    2    0    0  0.12808085080E+02 -0.20199974091E+02  0.21086203894E+02  0.59302047115E+02  0.50000188006E+02 0.  0.
        -12    1    1    2    0    0 -0.12808085080E+02  0.20199974091E+02 -0.21086203894E+02  0.31885952885E+02  0.00000000000E+00 0.  1.
         11    1    3    3    0    0  0.24123384300E+02 -0.82748488291E+01  0.93574487571E+01  0.27165651856E+02  0.51100000000E-03 0. -1.
        -11    1    3    3    0    0  0.10714873655E+01  0.69807232453E+01  0.10560672878E+01  0.71409985702E+01  0.51100000000E-03 0.  1.
        -12    1    3    3    0    0 -0.12386786586E+02 -0.18905848508E+02  0.10672687849E+02  0.24995396689E+02  0.00000000000E+00 0.  1.
</event>
<event>
 7    1  0.7313719E-013  0.5930194E+02  0.7816164E-02  0.1266605E+00
        -11   -1    0    0    0    0  0.00000000000E+00  0.00000000000E+00  0.45593999997E+02  0.45594000000E+02  0.51100000000E-03 0. -1.
         11   -1    0    0    0    0 -0.00000000000E+00 -0.00000000000E+00 -0.45593999997E+02  0.45594000000E+02  0.51100000000E-03 0.  1.
    9900012    2    1    2    0    0 -0.15573751203E+02 -0.21093259406E+02  0.18145352081E+02  0.59301935316E+02  0.49999984111E+02 0.  0.
        -12    1    1    2    0    0  0.15573751203E+02  0.21093259406E+02 -0.18145352081E+02  0.31886064684E+02  0.00000000000E+00 0.  1.
         11    1    3    3    0    0  0.59841074937E+01 -0.61662337299E+01 -0.25983136806E+01  0.89768154238E+01  0.51100000000E-03 0.  1.
        -11    1    3    3    0    0  0.10550181713E+02 -0.57148335119E+01  0.86838948066E+01  0.14811336386E+02  0.51100000000E-03 0. -1.
         12    1    3    3    0    0 -0.32108040410E+02 -0.92121921645E+01  0.12059770955E+02  0.35513783506E+02  0.00000000000E+00 0. -1.
</event>
<event>
 7    1  0.7313719E-013  0.5930193E+02  0.7816164E-02  0.1266605E+00
        -11   -1    0    0    0    0  0.00000000000E+00  0.00000000000E+00  0.45593999997E+02  0.45594000000E+02  0.51100000000E-03 0. -1.
         11   -1    0    0    0    0 -0.00000000000E+00 -0.00000000000E+00 -0.45593999997E+02  0.45594000000E+02  0.51100000000E-03 0.  1.
    9900012    2    1    2    0    0  0.14013504771E+01  0.60132551346E+00  0.31849586947E+02  0.59301928366E+02  0.49999971437E+02 0.  0.
        -12    1    1    2    0    0 -0.14013504771E+01 -0.60132551346E+00 -0.31849586947E+02  0.31886071634E+02  0.00000000000E+00 0.  1.
         11    1    3    3    0    0 -0.15546970955E+02 -0.75168868135E+01  0.14420559645E+02  0.22498098453E+02  0.51100000000E-03 0. -1.
        -11    1    3    3    0    0  0.44035483486E+01 -0.85454683881E+00  0.20578851627E+02  0.21062065970E+02  0.51100000000E-03 0.  1.
        -12    1    3    3    0    0  0.12544773084E+02  0.89727591657E+01 -0.31498243250E+01  0.15741763943E+02  0.00000000000E+00 0.  1.
</event>
<event>
 7    1  0.7313719E-013  0.5930188E+02  0.7816164E-02  0.1266605E+00
        -11   -1    0    0    0    0  0.00000000000E+00  0.00000000000E+00  0.45593999997E+02  0.45594000000E+02  0.51100000000E-03 0.  1.
         11   -1    0    0    0    0 -0.00000000000E+00 -0.00000000000E+00 -0.45593999997E+02  0.45594000000E+02  0.51100000000E-03 0. -1.
    9900012    2    1    2    0    0 -0.15948280147E+01  0.97929748460E+00 -0.31831147075E+02  0.59301883521E+02  0.49999889651E+02 0.  0.
        -12    1    1    2    0    0  0.15948280147E+01 -0.97929748460E+00  0.31831147075E+02  0.31886116479E+02  0.00000000000E+00 0.  1.
         11    1    3    3    0    0 -0.41998213315E+01  0.11008074744E+02 -0.80050627110E+01  0.14244200155E+02  0.51100000000E-03 0. -1.
        -11    1    3    3    0    0 -0.85596813231E+01 -0.51928895968E+00  0.69028397465E+01  0.11008496819E+02  0.51100000000E-03 0.  1.
         12    1    3    3    0    0  0.11164674640E+02 -0.95094882998E+01 -0.30728924111E+02  0.34049186548E+02  0.00000000000E+00 0. -1.
</event>
<event>
 7    1  0.7313719E-013  0.5930196E+02  0.7816164E-02  0.1266605E+00
        -11   -1    0    0    0    0  0.00000000000E+00  0.00000000000E+00  0.45593999997E+02  0.45594000000E+02  0.51100000000E-03 0. -1.
         11   -1    0    0    0    0 -0.00000000000E+00 -0.00000000000E+00 -0.45593999997E+02  0.45594000000E+02  0.51100000000E-03 0.  1.
    9900012    2    1    2    0    0  0.17031491320E+02  0.22988638098E+00  0.26955425537E+02  0.59301960575E+02  0.50000030178E+02 0.  0.
        -12    1    1    2    0    0 -0.17031491320E+02 -0.22988638098E+00 -0.26955425537E+02  0.31886039425E+02  0.00000000000E+00 0.  1.
         11    1    3    3    0    0  0.13970079481E+01 -0.64218217271E+01  0.22352278960E+02  0.23298407681E+02  0.51100000000E-03 0. -1.
        -11    1    3    3    0    0 -0.56686193767E+01  0.10797038375E+02  0.71752831431E+01  0.14148991899E+02  0.51100000000E-03 0.  1.
         12    1    3    3    0    0  0.21303102749E+02 -0.41453302669E+01 -0.25721365661E+01  0.21854560995E+02  0.00000000000E+00 0. -1.
</event>
<event>
 7    1  0.7313719E-013  0.5930194E+02  0.7816164E-02  0.1266605E+00
        -11   -1    0    0    0    0  0.00000000000E+00  0.00000000000E+00  0.45593999997E+02  0.45594000000E+02  0.51100000000E-03 0. -1.
         11   -1    0    0    0    0 -0.00000000000E+00 -0.00000000000E+00 -0.45593999997E+02  0.45594000000E+02  0.51100000000E-03 0.  1.
    9900012    2    1    2    0    0 -0.79890336270E+01  0.28096578059E+02  0.12785870253E+02  0.59301939800E+02  0.49999992290E+02 0.  0.
        -12    1    1    2    0    0  0.79890336270E+01 -0.28096578059E+02 -0.12785870253E+02  0.31886060200E+02  0.00000000000E+00 0.  1.
         11    1    3    3    0    0  0.49849033166E+01  0.46427562010E+01 -0.76150685000E+01  0.10217324245E+02  0.51100000000E-03 0. -1.
        -11    1    3    3    0    0 -0.13314295190E+02  0.20257491769E+02 -0.39165796004E+01  0.24555570146E+02  0.51100000000E-03 0.  1.
         12    1    3    3    0    0  0.34035824610E+00  0.31963300897E+01  0.24317518354E+02  0.24529045409E+02  0.00000000000E+00 0. -1.
</event>
<event>
 7    1  0.7313719E-013  0.5930196E+02  0.7816164E-02  0.1266605E+00
        -11   -1    0    0    0    0  0.00000000000E+00  0.00000000000E+00  0.45593999997E+02  0.45594000000E+02  0.51100000000E-03 0. -1.
         11   -1    0    0    0    0 -0.00000000000E+00 -0.00000000000E+00 -0.45593999997E+02  0.45594000000E+02  0.51100000000E-03 0.  1.
    9900012    2    1    2    0    0  0.59428369230E+01 -0.38923706166E+01  0.31084590526E+02  0.59301958729E+02  0.50000026812E+02 0.  0.
        -12    1    1    2    0    0 -0.59428369230E+01  0.38923706166E+01 -0.31084590526E+02  0.31886041271E+02  0.00000000000E+00 0.  1.
         11    1    3    3    0    0 -0.11039444976E+00  0.13639524502E+01  0.12658243067E+02  0.12731993992E+02  0.51100000000E-03 0. -1.
        -11    1    3    3    0    0 -0.10537383999E+02 -0.17162634248E+02  0.16542682783E+02  0.26062479349E+02  0.51100000000E-03 0.  1.
         12    1    3    3    0    0  0.16590615372E+02  0.11906311181E+02  0.18836646764E+01  0.20507485389E+02  0.00000000000E+00 0. -1.
</event>
<event>
 7    1  0.9825257E-013  0.5930171E+02  0.7816164E-02  0.1266606E+00
        -11   -1    0    0    0    0  0.00000000000E+00  0.00000000000E+00  0.45593999997E+02  0.45594000000E+02  0.51100000000E-03 0. -1.
         11   -1    0    0    0    0 -0.00000000000E+00 -0.00000000000E+00 -0.45593999997E+02  0.45594000000E+02  0.51100000000E-03 0.  1.
    9900012    2    1    2    0    0  0.19932900075E+02  0.67602957001E+01  0.23952316167E+02  0.59301709010E+02  0.49999571382E+02 0.  0.
        -12    1    1    2    0    0 -0.19932900075E+02 -0.67602957001E+01 -0.23952316167E+02  0.31886290990E+02  0.00000000000E+00 0.  1.
         11    1    3    3    0    0  0.45800133520E+01 -0.29466490277E+01  0.24966088504E+00  0.54517514265E+01  0.51100000000E-03 0. -1.
        -11    1    3    3    0    0  0.12954787754E+02  0.32903003433E+01 -0.11716548490E+02  0.17774422941E+02  0.51100000000E-03 0.  1.
         12    1    3    3    0    0  0.23980989688E+01  0.64166443845E+01  0.35419203773E+02  0.36075534642E+02  0.00000000000E+00 0. -1.
</event>
<event>
 7    1  0.7313719E-013  0.5930196E+02  0.7816164E-02  0.1266605E+00
        -11   -1    0    0    0    0  0.00000000000E+00  0.00000000000E+00  0.45593999997E+02  0.45594000000E+02  0.51100000000E-03 0. -1.
         11   -1    0    0    0    0 -0.00000000000E+00 -0.00000000000E+00 -0.45593999997E+02  0.45594000000E+02  0.51100000000E-03 0.  1.
    9900012    2    1    2    0    0  0.81293799802E+01 -0.21205747824E+02  0.22381896318E+02  0.59301955365E+02  0.50000020677E+02 0.  0.
        -12    1    1    2    0    0 -0.81293799802E+01  0.21205747824E+02 -0.22381896318E+02  0.31886044635E+02  0.00000000000E+00 0.  1.
         11    1    3    3    0    0  0.17414194846E+01 -0.25143418915E+01  0.27539243555E+02  0.27708561724E+02  0.51100000000E-03 0. -1.
        -11    1    3    3    0    0  0.36436083901E+01  0.43436379861E+01 -0.61624276764E+01  0.83736842658E+01  0.51100000000E-03 0.  1.
        -12    1    3    3    0    0  0.27443521055E+01 -0.23035043919E+02  0.10050804399E+01  0.23219709376E+02  0.00000000000E+00 0.  1.
</event>
<event>
 7    1  0.7313719E-013  0.5930192E+02  0.7816164E-02  0.1266605E+00
        -11   -1    0    0    0    0  0.00000000000E+00  0.00000000000E+00  0.45593999997E+02  0.45594000000E+02  0.51100000000E-03 0.  1.
         11   -1    0    0    0    0 -0.00000000000E+00 -0.00000000000E+00 -0.45593999997E+02  0.45594000000E+02  0.51100000000E-03 0. -1.
    9900012    2    1    2    0    0  0.29460209279E+02 -0.80937844459E+01 -0.91273782143E+01  0.59301916665E+02  0.49999950096E+02 0.  0.
        -12    1    1    2    0    0 -0.29460209279E+02  0.80937844459E+01  0.91273782143E+01  0.31886083335E+02  0.00000000000E+00 0.  1.
         11    1    3    3    0    0  0.10480616738E+02 -0.11389981911E+02 -0.15987692143E+02  0.22252669850E+02  0.51100000000E-03 0. -1.
        -11    1    3    3    0    0  0.79674688688E+01 -0.73621937863E+01 -0.96523470796E+01  0.14520683935E+02  0.51100000000E-03 0.  1.
        -12    1    3    3    0    0  0.11012123672E+02  0.10658391252E+02  0.16512661008E+02  0.22528562880E+02  0.00000000000E+00 0.  1.
</event>
<event>
 7    1  0.7313719E-013  0.5930194E+02  0.7816164E-02  0.1266605E+00
        -11   -1    0    0    0    0  0.00000000000E+00  0.00000000000E+00  0.45593999997E+02  0.45594000000E+02  0.51100000000E-03 0. -1.
         11   -1    0    0    0    0 -0.00000000000E+00 -0.00000000000E+00 -0.45593999997E+02  0.45594000000E+02  0.51100000000E-03 0.  1.
    9900012    2    1    2    0    0  0.30530679118E+02  0.72303671647E+01  0.56851142909E+01  0.59301935626E+02  0.49999984678E+02 0.  0.
        -12    1    1    2    0    0 -0.30530679118E+02 -0.72303671647E+01 -0.56851142909E+01  0.31886064374E+02  0.00000000000E+00 0.  1.
         11    1    3    3    0    0  0.68551900415E+01 -0.11582344196E+02  0.52583287166E+00  0.13469254918E+02  0.51100000000E-03 0. -1.
        -11    1    3    3    0    0  0.74191319391E+01 -0.82399287206E+01 -0.56850502906E+01  0.12460326686E+02  0.51100000000E-03 0.  1.
        -12    1    3    3    0    0  0.16256357137E+02  0.27052640082E+02  0.10844331710E+02  0.33372354022E+02  0.00000000000E+00 0.  1.
</event>
<event>
 7    1  0.7313719E-013  0.5930194E+02  0.7816164E-02  0.1266605E+00
        -11   -1    0    0    0    0  0.00000000000E+00  0.00000000000E+00  0.45593999997E+02  0.45594000000E+02  0.51100000000E-03 0. -1.
         11   -1    0    0    0    0 -0.00000000000E+00 -0.00000000000E+00 -0.45593999997E+02  0.45594000000E+02  0.51100000000E-03 0.  1.
    9900012    2    1    2    0    0  0.27316693802E+01  0.28538386967E+02  0.13957766479E+02  0.59301940454E+02  0.49999993483E+02 0.  0.
        -12    1    1    2    0    0 -0.27316693802E+01 -0.28538386967E+02 -0.13957766479E+02  0.31886059546E+02  0.00000000000E+00 0.  1.
         11    1    3    3    0    0 -0.10736849864E+01  0.38192171053E+01  0.10261308920E+02  0.11001530792E+02  0.51100000000E-03 0. -1.
        -11    1    3    3    0    0 -0.93040950409E+01  0.18951856833E+02  0.18231444720E+02  0.27894885531E+02  0.51100000000E-03 0.  1.
        -12    1    3    3    0    0  0.13109449407E+02  0.57673130283E+01 -0.14534987161E+02  0.20405524132E+02  0.00000000000E+00 0.  1.
</event>
<event>
 7    1  0.7313719E-013  0.5930195E+02  0.7816164E-02  0.1266605E+00
        -11   -1    0    0    0    0  0.00000000000E+00  0.00000000000E+00  0.45593999997E+02  0.45594000000E+02  0.51100000000E-03 0.  1.
         11   -1    0    0    0    0 -0.00000000000E+00 -0.00000000000E+00 -0.45593999997E+02  0.45594000000E+02  0.51100000000E-03 0. -1.
    9900012    2    1    2    0    0  0.83881928850E+01  0.30140653503E+02 -0.61562399638E+01  0.59301951891E+02  0.50000014341E+02 0.  0.
        -12    1    1    2    0    0 -0.83881928850E+01 -0.30140653503E+02  0.61562399638E+01  0.31886048109E+02  0.00000000000E+00 0.  1.
         11    1    3    3    0    0  0.64367443505E+01  0.76787300961E+01 -0.22434593434E+02  0.24570420358E+02  0.51100000000E-03 0. -1.
        -11    1    3    3    0    0 -0.48376148145E+01 -0.11287168089E+01  0.67908572434E+01  0.84138137066E+01  0.51100000000E-03 0.  1.
        -12    1    3    3    0    0  0.67890633489E+01  0.23590640216E+02  0.94874962271E+01  0.26317717827E+02  0.00000000000E+00 0.  1.
</event>
<event>
 7    1  0.7313719E-013  0.5930194E+02  0.7816164E-02  0.1266605E+00
        -11   -1    0    0    0    0  0.00000000000E+00  0.00000000000E+00  0.45593999997E+02  0.45594000000E+02  0.51100000000E-03 0.  1.
         11   -1    0    0    0    0 -0.00000000000E+00 -0.00000000000E+00 -0.45593999997E+02  0.45594000000E+02  0.51100000000E-03 0. -1.
    9900012    2    1    2    0    0 -0.16572017956E+02 -0.25966222020E+02  0.82367537473E+01  0.59301943840E+02  0.49999999658E+02 0.  0.
        -12    1    1    2    0    0  0.16572017956E+02  0.25966222020E+02 -0.82367537473E+01  0.31886056160E+02  0.00000000000E+00 0.  1.
         11    1    3    3    0    0 -0.29261087168E+01 -0.16281501268E+02  0.30421215192E+00  0.16545148566E+02  0.51100000000E-03 0. -1.
        -11    1    3    3    0    0  0.93138269915E+01 -0.50923933805E+01  0.14930070821E+02  0.18319029957E+02  0.51100000000E-03 0.  1.
         12    1    3    3    0    0 -0.22959736230E+02 -0.45923273714E+01 -0.69975292260E+01  0.24437765318E+02  0.00000000000E+00 0. -1.
</event>
<event>
 7    1  0.7313719E-013  0.5930201E+02  0.7816164E-02  0.1266605E+00
        -11   -1    0    0    0    0  0.00000000000E+00  0.00000000000E+00  0.45593999997E+02  0.45594000000E+02  0.51100000000E-03 0. -1.
         11   -1    0    0    0    0 -0.00000000000E+00 -0.00000000000E+00 -0.45593999997E+02  0.45594000000E+02  0.51100000000E-03 0.  1.
    9900012    2    1    2    0    0  0.20475684733E+02  0.23896945031E+02 -0.51379387626E+01  0.59302014649E+02  0.50000128796E+02 0.  0.
        -12    1    1    2    0    0 -0.20475684733E+02 -0.23896945031E+02  0.51379387626E+01  0.31885985351E+02  0.00000000000E+00 0.  1.
         11    1    3    3    0    0  0.10461127042E+02  0.63258397047E+01 -0.22562209957E+02  0.25661347302E+02  0.51100000000E-03 0.  1.
        -11    1    3    3    0    0 -0.45180616130E+01  0.98472735759E-01  0.76851128564E+01  0.89153540308E+01  0.51100000000E-03 0. -1.
        -12    1    3    3    0    0  0.14532619304E+02  0.17472632590E+02  0.97391583377E+01  0.24725313316E+02  0.00000000000E+00 0.  1.
</event>
<event>
 7    1  0.7313719E-013  0.5930194E+02  0.7816164E-02  0.1266605E+00
        -11   -1    0    0    0    0  0.00000000000E+00  0.00000000000E+00  0.45593999997E+02  0.45594000000E+02  0.51100000000E-03 0.  1.
         11   -1    0    0    0    0 -0.00000000000E+00 -0.00000000000E+00 -0.45593999997E+02  0.45594000000E+02  0.51100000000E-03 0. -1.
    9900012    2    1    2    0    0  0.30245000369E+02 -0.45266044431E+00  0.10087427347E+02  0.59301935030E+02  0.49999983590E+02 0.  0.
        -12    1    1    2    0    0 -0.30245000369E+02  0.45266044431E+00 -0.10087427347E+02  0.31886064970E+02  0.00000000000E+00 0.  1.
         11    1    3    3    0    0  0.86151516921E+01 -0.98677689064E+00 -0.93107617237E+01  0.12723397795E+02  0.51100000000E-03 0. -1.
        -11    1    3    3    0    0  0.71726981732E+01 -0.31272967389E+01 -0.10542573491E+02  0.13129106597E+02  0.51100000000E-03 0.  1.
        -12    1    3    3    0    0  0.14457150503E+02  0.36614131853E+01  0.29940762562E+02  0.33449430638E+02  0.00000000000E+00 0.  1.
</event>
<event>
 7    1  0.7313719E-013  0.5930199E+02  0.7816164E-02  0.1266605E+00
        -11   -1    0    0    0    0  0.00000000000E+00  0.00000000000E+00  0.45593999997E+02  0.45594000000E+02  0.51100000000E-03 0. -1.
         11   -1    0    0    0    0 -0.00000000000E+00 -0.00000000000E+00 -0.45593999997E+02  0.45594000000E+02  0.51100000000E-03 0.  1.
    9900012    2    1    2    0    0 -0.12618089594E+02  0.27828485162E+02  0.91146497082E+01  0.59301990360E+02  0.50000084499E+02 0.  0.
        -12    1    1    2    0    0  0.12618089594E+02 -0.27828485162E+02 -0.91146497082E+01  0.31886009640E+02  0.00000000000E+00 0.  1.
         11    1    3    3    0    0  0.97037197516E+01  0.61692976030E+01 -0.26362017314E+01  0.11797117011E+02  0.51100000000E-03 0. -1.
        -11    1    3    3    0    0  0.39736924780E+01  0.20169927648E+01 -0.80296715046E+01  0.91833608475E+01  0.51100000000E-03 0.  1.
         12    1    3    3    0    0 -0.26295501824E+02  0.19642194795E+02  0.19780522944E+02  0.38321512502E+02  0.00000000000E+00 0. -1.
</event>
<event>
 7    1  0.7313719E-013  0.5930189E+02  0.7816164E-02  0.1266605E+00
        -11   -1    0    0    0    0  0.00000000000E+00  0.00000000000E+00  0.45593999997E+02  0.45594000000E+02  0.51100000000E-03 0.  1.
         11   -1    0    0    0    0 -0.00000000000E+00 -0.00000000000E+00 -0.45593999997E+02  0.45594000000E+02  0.51100000000E-03 0. -1.
    9900012    2    1    2    0    0 -0.21890773288E+02 -0.14100793037E+02 -0.18403407325E+02  0.59301894553E+02  0.49999909770E+02 0.  0.
        -12    1    1    2    0    0  0.21890773288E+02  0.14100793037E+02  0.18403407325E+02  0.31886105447E+02  0.00000000000E+00 0.  1.
         11    1    3    3    0    0  0.44650048706E+01 -0.14110152305E+02 -0.90632154741E+01  0.17354381047E+02  0.51100000000E-03 0. -1.
        -11    1    3    3    0    0 -0.62585862411E+01 -0.30675539585E+01  0.11106879191E+02  0.13112686782E+02  0.51100000000E-03 0.  1.
         12    1    3    3    0    0 -0.20097191918E+02  0.30769132265E+01 -0.20447071041E+02  0.28834826723E+02  0.00000000000E+00 0. -1.
</event>
<event>
 7    1  0.7313719E-013  0.5930191E+02  0.7816164E-02  0.1266605E+00
        -11   -1    0    0    0    0  0.00000000000E+00  0.00000000000E+00  0.45593999997E+02  0.45594000000E+02  0.51100000000E-03 0. -1.
         11   -1    0    0    0    0 -0.00000000000E+00 -0.00000000000E+00 -0.45593999997E+02  0.45594000000E+02  0.51100000000E-03 0.  1.
    9900012    2    1    2    0    0 -0.24939402375E+02 -0.19781704182E+02 -0.18528960590E+01  0.59301908440E+02  0.49999935097E+02 0.  0.
        -12    1    1    2    0    0  0.24939402375E+02  0.19781704182E+02  0.18528960590E+01  0.31886091560E+02  0.00000000000E+00 0.  1.
         11    1    3    3    0    0 -0.19270091844E+02 -0.13719075026E+02 -0.15250304794E+02  0.28144648795E+02  0.51100000000E-03 0. -1.
        -11    1    3    3    0    0 -0.55958187809E+01 -0.14646486273E+02  0.52840105470E+00  0.15687955759E+02  0.51100000000E-03 0.  1.
         12    1    3    3    0    0 -0.73491750179E-01  0.85838571172E+01  0.12869007680E+02  0.15469303886E+02  0.00000000000E+00 0. -1.
</event>
<event>
 7    1  0.7313719E-013  0.5930194E+02  0.7816164E-02  0.1266605E+00
        -11   -1    0    0    0    0  0.00000000000E+00  0.00000000000E+00  0.45593999997E+02  0.45594000000E+02  0.51100000000E-03 0.  1.
         11   -1    0    0    0    0 -0.00000000000E+00 -0.00000000000E+00 -0.45593999997E+02  0.45594000000E+02  0.51100000000E-03 0. -1.
    9900012    2    1    2    0    0  0.11839196278E+02  0.13533103455E+02 -0.26332671402E+02  0.59301936574E+02  0.49999986406E+02 0.  0.
        -12    1    1    2    0    0 -0.11839196278E+02 -0.13533103455E+02  0.26332671402E+02  0.31886063426E+02  0.00000000000E+00 0.  1.
         11    1    3    3    0    0 -0.42642426807E+01  0.11118412299E+01 -0.23338354051E+02  0.23750762653E+02  0.51100000000E-03 0. -1.
        -11    1    3    3    0    0  0.10451821817E+02  0.17178204954E+02 -0.12375159971E+02  0.23610927328E+02  0.51100000000E-03 0.  1.
        -12    1    3    3    0    0  0.56516171412E+01 -0.47569427289E+01  0.93808426193E+01  0.11940246592E+02  0.00000000000E+00 0.  1.
</event>
<event>
 7    1  0.7313719E-013  0.5930199E+02  0.7816164E-02  0.1266605E+00
        -11   -1    0    0    0    0  0.00000000000E+00  0.00000000000E+00  0.45593999997E+02  0.45594000000E+02  0.51100000000E-03 0.  1.
         11   -1    0    0    0    0 -0.00000000000E+00 -0.00000000000E+00 -0.45593999997E+02  0.45594000000E+02  0.51100000000E-03 0. -1.
    9900012    2    1    2    0    0  0.15299849016E+02  0.22624236567E+02 -0.16455285782E+02  0.59301985976E+02  0.50000076504E+02 0.  0.
        -12    1    1    2    0    0 -0.15299849016E+02 -0.22624236567E+02  0.16455285782E+02  0.31886014024E+02  0.00000000000E+00 0.  1.
         11    1    3    3    0    0  0.22070168802E+02 -0.40288816475E+00 -0.15839193315E+02  0.27168634765E+02  0.51100000000E-03 0. -1.
        -11    1    3    3    0    0  0.49280760331E+01  0.19261435770E+01  0.50889248846E+01  0.73411933096E+01  0.51100000000E-03 0.  1.
        -12    1    3    3    0    0 -0.11698395820E+02  0.21100981155E+02 -0.57050173516E+01  0.24792157902E+02  0.00000000000E+00 0.  1.
</event>
<event>
 7    1  0.7313719E-013  0.5930194E+02  0.7816164E-02  0.1266605E+00
        -11   -1    0    0    0    0  0.00000000000E+00  0.00000000000E+00  0.45593999997E+02  0.45594000000E+02  0.51100000000E-03 0.  1.
         11   -1    0    0    0    0 -0.00000000000E+00 -0.00000000000E+00 -0.45593999997E+02  0.45594000000E+02  0.51100000000E-03 0. -1.
    9900012    2    1    2    0    0  0.15565776962E+02 -0.27580783044E+02  0.37050819002E+01  0.59301942896E+02  0.49999997937E+02 0.  0.
        -12    1    1    2    0    0 -0.15565776962E+02  0.27580783044E+02 -0.37050819002E+01  0.31886057104E+02  0.00000000000E+00 0.  1.
         11    1    3    3    0    0 -0.48377559134E+01 -0.30888683845E+01 -0.54301775275E+01  0.79013807917E+01  0.51100000000E-03 0. -1.
        -11    1    3    3    0    0 -0.51447104318E+01 -0.16144697205E+02 -0.87952483545E+01  0.19091246349E+02  0.51100000000E-03 0.  1.
        -12    1    3    3    0    0  0.25548243307E+02 -0.83472174541E+01  0.17930507782E+02  0.32309315756E+02  0.00000000000E+00 0.  1.
</event>
<event>
 7    1  0.7313719E-013  0.5930194E+02  0.7816164E-02  0.1266605E+00
        -11   -1    0    0    0    0  0.00000000000E+00  0.00000000000E+00  0.45593999997E+02  0.45594000000E+02  0.51100000000E-03 0. -1.
         11   -1    0    0    0    0 -0.00000000000E+00 -0.00000000000E+00 -0.45593999997E+02  0.45594000000E+02  0.51100000000E-03 0.  1.
    9900012    2    1    2    0    0 -0.12604920701E+02 -0.27572534801E+02 -0.98788801309E+01  0.59301937623E+02  0.49999988319E+02 0.  0.
        -12    1    1    2    0    0  0.12604920701E+02  0.27572534801E+02  0.98788801309E+01  0.31886062377E+02  0.00000000000E+00 0.  1.
         11    1    3    3    0    0  0.76974191668E+01  0.92727132122E+01 -0.57247025420E+01  0.13341877364E+02  0.51100000000E-03 0.  1.
        -11    1    3    3    0    0  0.33550945401E+01 -0.61564453321E+01 -0.10120717307E+01  0.70839796689E+01  0.51100000000E-03 0. -1.
        -12    1    3    3    0    0 -0.23657434408E+02 -0.30688802681E+02 -0.31421058582E+01  0.38876080590E+02  0.00000000000E+00 0.  1.
</event>
<event>
 7    1  0.7313719E-013  0.5930194E+02  0.7816164E-02  0.1266605E+00
        -11   -1    0    0    0    0  0.00000000000E+00  0.00000000000E+00  0.45593999997E+02  0.45594000000E+02  0.51100000000E-03 0. -1.
         11   -1    0    0    0    0 -0.00000000000E+00 -0.00000000000E+00 -0.45593999997E+02  0.45594000000E+02  0.51100000000E-03 0.  1.
    9900012    2    1    2    0    0 -0.14605291723E+02  0.92301180135E+01  0.26799459834E+02  0.59301942353E+02  0.49999996946E+02 0.  0.
        -12    1    1    2    0    0  0.14605291723E+02 -0.92301180135E+01 -0.26799459834E+02  0.31886057647E+02  0.00000000000E+00 0.  1.
         11    1    3    3    0    0  0.10605051502E+02  0.12690288462E+02  0.17545666448E+02  0.24111427788E+02  0.51100000000E-03 0. -1.
        -11    1    3    3    0    0 -0.50967947658E+01  0.85981666130E+01  0.55978032910E+01  0.11456054641E+02  0.51100000000E-03 0.  1.
        -12    1    3    3    0    0 -0.20113548459E+02 -0.12058337062E+02  0.36559900956E+01  0.23734459924E+02  0.00000000000E+00 0.  1.
</event>
<event>
 7    1  0.7313719E-013  0.5930189E+02  0.7816164E-02  0.1266605E+00
        -11   -1    0    0    0    0  0.00000000000E+00  0.00000000000E+00  0.45593999997E+02  0.45594000000E+02  0.51100000000E-03 0. -1.
         11   -1    0    0    0    0 -0.00000000000E+00 -0.00000000000E+00 -0.45593999997E+02  0.45594000000E+02  0.51100000000E-03 0.  1.
    9900012    2    1    2    0    0 -0.95377082244E+01  0.29648497893E+02 -0.68354175316E+01  0.59301886434E+02  0.49999894963E+02 0.  0.
        -12    1    1    2    0    0  0.95377082244E+01 -0.29648497893E+02  0.68354175316E+01  0.31886113566E+02  0.00000000000E+00 0.  1.
         11    1    3    3    0    0 -0.18321420802E+01 -0.18723526197E+01 -0.10755224449E+01  0.28318188016E+01  0.51100000000E-03 0.  1.
        -11    1    3    3    0    0 -0.13506330338E+02 -0.52258395046E+01 -0.11926258251E+02  0.18760756751E+02  0.51100000000E-03 0. -1.
         12    1    3    3    0    0  0.58007641942E+01  0.36746690017E+02  0.61663631646E+01  0.37709310881E+02  0.00000000000E+00 0. -1.
</event>
<event>
 7    1  0.7313719E-013  0.5930193E+02  0.7816164E-02  0.1266605E+00
        -11   -1    0    0    0    0  0.00000000000E+00  0.00000000000E+00  0.45593999997E+02  0.45594000000E+02  0.51100000000E-03 0. -1.
         11   -1    0    0    0    0 -0.00000000000E+00 -0.00000000000E+00 -0.45593999997E+02  0.45594000000E+02  0.51100000000E-03 0.  1.
    9900012    2    1    2    0    0 -0.13671420017E+02  0.23904236777E+02 -0.16074863572E+02  0.59301929373E+02  0.49999973274E+02 0.  0.
        -12    1    1    2    0    0  0.13671420017E+02 -0.23904236777E+02  0.16074863572E+02  0.31886070627E+02  0.00000000000E+00 0.  1.
         11    1    3    3    0    0 -0.45588411252E+01  0.70756673780E+01 -0.10856751337E+01  0.84868599615E+01  0.51100000000E-03 0. -1.
        -11    1    3    3    0    0 -0.16390640567E+02  0.19008159082E+02  0.82066851070E+01  0.26406682688E+02  0.51100000000E-03 0.  1.
        -12    1    3    3    0    0  0.72780616754E+01 -0.21795896830E+01 -0.23195873545E+02  0.24408386724E+02  0.00000000000E+00 0.  1.
</event>
<event>
 7    1  0.7313719E-013  0.5930198E+02  0.7816164E-02  0.1266605E+00
        -11   -1    0    0    0    0  0.00000000000E+00  0.00000000000E+00  0.45593999997E+02  0.45594000000E+02  0.51100000000E-03 0.  1.
         11   -1    0    0    0    0 -0.00000000000E+00 -0.00000000000E+00 -0.45593999997E+02  0.45594000000E+02  0.51100000000E-03 0. -1.
    9900012    2    1    2    0    0  0.30525430680E+02 -0.54123206860E+00 -0.91991094412E+01  0.59301976967E+02  0.50000060073E+02 0.  0.
        -12    1    1    2    0    0 -0.30525430680E+02  0.54123206860E+00  0.91991094412E+01  0.31886023033E+02  0.00000000000E+00 0.  1.
         11    1    3    3    0    0  0.15702545519E+02 -0.18975509821E+02 -0.95606183635E+01  0.26420547544E+02  0.51100000000E-03 0. -1.
        -11    1    3    3    0    0  0.31034630469E+01 -0.52251253664E+01 -0.19374539473E+01  0.63786476653E+01  0.51100000000E-03 0.  1.
        -12    1    3    3    0    0  0.11719422114E+02  0.23659403119E+02  0.22989628697E+01  0.26502781758E+02  0.00000000000E+00 0.  1.
</event>
<event>
 7    1  0.7313719E-013  0.5930188E+02  0.7816164E-02  0.1266605E+00
        -11   -1    0    0    0    0  0.00000000000E+00  0.00000000000E+00  0.45593999997E+02  0.45594000000E+02  0.51100000000E-03 0. -1.
         11   -1    0    0    0    0 -0.00000000000E+00 -0.00000000000E+00 -0.45593999997E+02  0.45594000000E+02  0.51100000000E-03 0.  1.
    9900012    2    1    2    0    0 -0.16298634556E+02  0.68014289877E+01  0.26548438772E+02  0.59301881925E+02  0.49999886739E+02 0.  0.
        -12    1    1    2    0    0  0.16298634556E+02 -0.68014289877E+01 -0.26548438772E+02  0.31886118075E+02  0.00000000000E+00 0.  1.
         11    1    3    3    0    0 -0.45383460228E+00  0.62084883630E+01 -0.45990312519E+01  0.77396629330E+01  0.51100000000E-03 0. -1.
        -11    1    3    3    0    0  0.32234069665E+01 -0.14399814914E+02  0.20031778764E+02  0.24880055924E+02  0.51100000000E-03 0.  1.
         12    1    3    3    0    0 -0.19068206920E+02  0.14992755539E+02  0.11115691260E+02  0.26682163068E+02  0.00000000000E+00 0. -1.
</event>
<event>
 7    1  0.7313719E-013  0.5930196E+02  0.7816164E-02  0.1266605E+00
        -11   -1    0    0    0    0  0.00000000000E+00  0.00000000000E+00  0.45593999997E+02  0.45594000000E+02  0.51100000000E-03 0.  1.
         11   -1    0    0    0    0 -0.00000000000E+00 -0.00000000000E+00 -0.45593999997E+02  0.45594000000E+02  0.51100000000E-03 0. -1.
    9900012    2    1    2    0    0  0.16752916133E+02  0.87884987451E+01 -0.25667518552E+02  0.59301962024E+02  0.50000032822E+02 0.  0.
        -12    1    1    2    0    0 -0.16752916133E+02 -0.87884987451E+01  0.25667518552E+02  0.31886037976E+02  0.00000000000E+00 0.  1.
         11    1    3    3    0    0  0.19156303216E+02  0.11618332265E+02 -0.55229098839E+01  0.23074924299E+02  0.51100000000E-03 0. -1.
        -11    1    3    3    0    0 -0.34262062401E+00  0.12627961634E+02 -0.28696873016E+01  0.12954455195E+02  0.51100000000E-03 0.  1.
         12    1    3    3    0    0 -0.20607664598E+01 -0.15457795154E+02 -0.17274921367E+02  0.23272582531E+02  0.00000000000E+00 0. -1.
</event>
<event>
 7    1  0.7313719E-013  0.5930195E+02  0.7816164E-02  0.1266605E+00
        -11   -1    0    0    0    0  0.00000000000E+00  0.00000000000E+00  0.45593999997E+02  0.45594000000E+02  0.51100000000E-03 0. -1.
         11   -1    0    0    0    0 -0.00000000000E+00 -0.00000000000E+00 -0.45593999997E+02  0.45594000000E+02  0.51100000000E-03 0.  1.
    9900012    2    1    2    0    0 -0.27152673031E+02 -0.62065921407E+00  0.16705305520E+02  0.59301951278E+02  0.50000013223E+02 0.  0.
        -12    1    1    2    0    0  0.27152673031E+02  0.62065921407E+00 -0.16705305520E+02  0.31886048722E+02  0.00000000000E+00 0.  1.
         11    1    3    3    0    0 -0.42060828478E+01 -0.67741838943E+01  0.14748272113E+02  0.16765805407E+02  0.51100000000E-03 0. -1.
        -11    1    3    3    0    0 -0.19251272155E+02 -0.11237053526E+02 -0.59604772666E+01  0.23074014411E+02  0.51100000000E-03 0.  1.
        -12    1    3    3    0    0 -0.36953180278E+01  0.17390578207E+02  0.79175106737E+01  0.19462131460E+02  0.00000000000E+00 0.  1.
</event>
<event>
 7    1  0.7313719E-013  0.5930196E+02  0.7816164E-02  0.1266605E+00
        -11   -1    0    0    0    0  0.00000000000E+00  0.00000000000E+00  0.45593999997E+02  0.45594000000E+02  0.51100000000E-03 0.  1.
         11   -1    0    0    0    0 -0.00000000000E+00 -0.00000000000E+00 -0.45593999997E+02  0.45594000000E+02  0.51100000000E-03 0. -1.
    9900012    2    1    2    0    0  0.18180937265E+02  0.26192269324E+02 -0.37156953211E+00  0.59301960483E+02  0.50000030011E+02 0.  0.
        -12    1    1    2    0    0 -0.18180937265E+02 -0.26192269324E+02  0.37156953211E+00  0.31886039517E+02  0.00000000000E+00 0.  1.
         11    1    3    3    0    0  0.49535831379E+01 -0.89466416030E+01  0.53801631096E+01  0.11555368329E+02  0.51100000000E-03 0.  1.
        -11    1    3    3    0    0 -0.76921579319E+00 -0.83619096259E+00 -0.89411857161E+01  0.90130855169E+01  0.51100000000E-03 0. -1.
         12    1    3    3    0    0  0.13996569920E+02  0.35975101890E+02  0.31894530744E+01  0.38733506637E+02  0.00000000000E+00 0. -1.
</event>
<event>
 7    1  0.7313719E-013  0.5930194E+02  0.7816164E-02  0.1266605E+00
        -11   -1    0    0    0    0  0.00000000000E+00  0.00000000000E+00  0.45593999997E+02  0.45594000000E+02  0.51100000000E-03 0.  1.
         11   -1    0    0    0    0 -0.00000000000E+00 -0.00000000000E+00 -0.45593999997E+02  0.45594000000E+02  0.51100000000E-03 0. -1.
    9900012    2    1    2    0    0  0.19075497017E+02 -0.58814335488E+01 -0.24864736819E+02  0.59301937463E+02  0.49999988028E+02 0.  0.
        -12    1    1    2    0    0 -0.19075497017E+02  0.58814335488E+01  0.24864736819E+02  0.31886062537E+02  0.00000000000E+00 0.  1.
         11    1    3    3    0    0  0.78904497956E+01  0.53775187142E+01  0.15607914957E+01  0.96753798816E+01  0.51100000000E-03 0. -1.
        -11    1    3    3    0    0  0.84704619317E+01 -0.22466991002E+02 -0.39064794232E+01  0.24326425791E+02  0.51100000000E-03 0.  1.
         12    1    3    3    0    0  0.27145852893E+01  0.11208038739E+02 -0.22519048891E+02  0.25300131791E+02  0.00000000000E+00 0. -1.
</event>
<event>
 7    1  0.7313719E-013  0.5930198E+02  0.7816164E-02  0.1266605E+00
        -11   -1    0    0    0    0  0.00000000000E+00  0.00000000000E+00  0.45593999997E+02  0.45594000000E+02  0.51100000000E-03 0.  1.
         11   -1    0    0    0    0 -0.00000000000E+00 -0.00000000000E+00 -0.45593999997E+02  0.45594000000E+02  0.51100000000E-03 0. -1.
    9900012    2    1    2    0    0 -0.10334881702E+02 -0.30033190757E+02 -0.28134917499E+01  0.59301983273E+02  0.50000071575E+02 0.  0.
        -12    1    1    2    0    0  0.10334881702E+02  0.30033190757E+02  0.28134917499E+01  0.31886016727E+02  0.00000000000E+00 0.  1.
         11    1    3    3    0    0 -0.19960317789E+02 -0.81453661444E+01  0.98800423632E+01  0.23714478979E+02  0.51100000000E-03 0. -1.
        -11    1    3    3    0    0 -0.71700049990E+01 -0.25240572612E+01 -0.24946234259E+01  0.80001864379E+01  0.51100000000E-03 0.  1.
        -12    1    3    3    0    0  0.16795441086E+02 -0.19363767352E+02 -0.10198910687E+02  0.27587317857E+02  0.00000000000E+00 0.  1.
</event>
<event>
 7    1  0.7313719E-013  0.5930195E+02  0.7816164E-02  0.1266605E+00
        -11   -1    0    0    0    0  0.00000000000E+00  0.00000000000E+00  0.45593999997E+02  0.45594000000E+02  0.51100000000E-03 0.  1.
         11   -1    0    0    0    0 -0.00000000000E+00 -0.00000000000E+00 -0.45593999997E+02  0.45594000000E+02  0.51100000000E-03 0. -1.
    9900012    2    1    2    0    0  0.17542614157E+02 -0.22308472180E+02 -0.14536462291E+02  0.59301953233E+02  0.50000016788E+02 0.  0.
        -12    1    1    2    0    0 -0.17542614157E+02  0.22308472180E+02  0.14536462291E+02  0.31886046767E+02  0.00000000000E+00 0.  1.
         11    1    3    3    0    0  0.52539274363E+01 -0.25070016207E+02 -0.14105948200E+02  0.29241874786E+02  0.51100000000E-03 0. -1.
        -11    1    3    3    0    0  0.15263224895E+02 -0.58591662208E+01 -0.80063907279E+01  0.18204344420E+02  0.51100000000E-03 0.  1.
        -12    1    3    3    0    0 -0.29745381746E+01  0.86207102472E+01  0.75758766367E+01  0.11855734028E+02  0.00000000000E+00 0.  1.
</event>
<event>
 7    1  0.7313719E-013  0.5930194E+02  0.7816164E-02  0.1266605E+00
        -11   -1    0    0    0    0  0.00000000000E+00  0.00000000000E+00  0.45593999997E+02  0.45594000000E+02  0.51100000000E-03 0. -1.
         11   -1    0    0    0    0 -0.00000000000E+00 -0.00000000000E+00 -0.45593999997E+02  0.45594000000E+02  0.51100000000E-03 0.  1.
    9900012    2    1    2    0    0  0.17491306203E+02  0.25329323048E+02  0.83186708992E+01  0.59301942165E+02  0.49999996602E+02 0.  0.
        -12    1    1    2    0    0 -0.17491306203E+02 -0.25329323048E+02 -0.83186708992E+01  0.31886057835E+02  0.00000000000E+00 0.  1.
         11    1    3    3    0    0  0.31925704391E+01 -0.45884831667E+01 -0.39131845703E+01  0.68234666792E+01  0.51100000000E-03 0.  1.
        -11    1    3    3    0    0  0.87935773251E+01  0.76876323542E+01 -0.13619347301E+02  0.17941942886E+02  0.51100000000E-03 0. -1.
         12    1    3    3    0    0  0.55051584386E+01  0.22230173860E+02  0.25851202770E+02  0.34536532599E+02  0.00000000000E+00 0. -1.
</event>
<event>
 7    1  0.7313719E-013  0.5930198E+02  0.7816164E-02  0.1266605E+00
        -11   -1    0    0    0    0  0.00000000000E+00  0.00000000000E+00  0.45593999997E+02  0.45594000000E+02  0.51100000000E-03 0. -1.
         11   -1    0    0    0    0 -0.00000000000E+00 -0.00000000000E+00 -0.45593999997E+02  0.45594000000E+02  0.51100000000E-03 0.  1.
    9900012    2    1    2    0    0  0.22447677379E+02 -0.20563516332E+02  0.94848110593E+01  0.59301983246E+02  0.50000071524E+02 0.  0.
        -12    1    1    2    0    0 -0.22447677379E+02  0.20563516332E+02 -0.94848110593E+01  0.31886016754E+02  0.00000000000E+00 0.  1.
         11    1    3    3    0    0  0.22541966380E+02 -0.52470356917E+01  0.12427341026E+02  0.26269953123E+02  0.51100000000E-03 0. -1.
        -11    1    3    3    0    0  0.92128250978E+01 -0.20159917147E+02 -0.38645818215E+01  0.22499631077E+02  0.51100000000E-03 0.  1.
         12    1    3    3    0    0 -0.93071140991E+01  0.48434365069E+01  0.92205185463E+00  0.10532399046E+02  0.00000000000E+00 0. -1.
</event>
<event>
 7    1  0.7313719E-013  0.5930193E+02  0.7816164E-02  0.1266605E+00
        -11   -1    0    0    0    0  0.00000000000E+00  0.00000000000E+00  0.45593999997E+02  0.45594000000E+02  0.51100000000E-03 0.  1.
         11   -1    0    0    0    0 -0.00000000000E+00 -0.00000000000E+00 -0.45593999997E+02  0.45594000000E+02  0.51100000000E-03 0. -1.
    9900012    2    1    2    0    0 -0.28607104442E+01  0.24481853705E+02 -0.20228109705E+02  0.59301933336E+02  0.49999980501E+02 0.  0.
        -12    1    1    2    0    0  0.28607104442E+01 -0.24481853705E+02  0.20228109705E+02  0.31886066664E+02  0.00000000000E+00 0.  1.
         11    1    3    3    0    0  0.81833988197E+01  0.13916936395E+02 -0.40234794144E+01  0.16638435074E+02  0.51100000000E-03 0. -1.
        -11    1    3    3    0    0 -0.37647355435E+01  0.21757668155E+02 -0.18873313198E+02  0.29047741885E+02  0.51100000000E-03 0.  1.
        -12    1    3    3    0    0 -0.72793737204E+01 -0.11192750846E+02  0.26686829074E+01  0.13615756377E+02  0.00000000000E+00 0.  1.
</event>
<event>
 7    1  0.7313719E-013  0.5930170E+02  0.7816164E-02  0.1266606E+00
        -11   -1    0    0    0    0  0.00000000000E+00  0.00000000000E+00  0.45593999997E+02  0.45594000000E+02  0.51100000000E-03 0.  1.
         11   -1    0    0    0    0 -0.00000000000E+00 -0.00000000000E+00 -0.45593999997E+02  0.45594000000E+02  0.51100000000E-03 0. -1.
    9900012    2    1    2    0    0  0.29008864721E+02  0.12907602034E+02  0.29352554240E+01  0.59301699696E+02  0.49999554395E+02 0.  0.
        -12    1    1    2    0    0 -0.29008864721E+02 -0.12907602034E+02 -0.29352554240E+01  0.31886300304E+02  0.00000000000E+00 0.  1.
         11    1    3    3    0    0  0.18748370611E+02 -0.26169673801E+00 -0.84056794039E+00  0.18769028757E+02  0.51100000000E-03 0. -1.
        -11    1    3    3    0    0  0.16461726772E+02 -0.75122631466E+01  0.53917367835E+01  0.18881032061E+02  0.51100000000E-03 0.  1.
         12    1    3    3    0    0 -0.62012326616E+01  0.20681561919E+02 -0.16159134191E+01  0.21651638878E+02  0.00000000000E+00 0. -1.
</event>
<event>
 7    1  0.7313719E-013  0.5930196E+02  0.7816164E-02  0.1266605E+00
        -11   -1    0    0    0    0  0.00000000000E+00  0.00000000000E+00  0.45593999997E+02  0.45594000000E+02  0.51100000000E-03 0.  1.
         11   -1    0    0    0    0 -0.00000000000E+00 -0.00000000000E+00 -0.45593999997E+02  0.45594000000E+02  0.51100000000E-03 0. -1.
    9900012    2    1    2    0    0 -0.38595916390E+01  0.10615092401E+02 -0.29818495652E+02  0.59301963601E+02  0.50000035697E+02 0.  0.
        -12    1    1    2    0    0  0.38595916390E+01 -0.10615092401E+02  0.29818495652E+02  0.31886036399E+02  0.00000000000E+00 0.  1.
         11    1    3    3    0    0 -0.68296942060E+01 -0.53879397593E+00  0.16215576437E-01  0.68509331556E+01  0.51100000000E-03 0. -1.
        -11    1    3    3    0    0  0.11305480614E+01 -0.15475742485E+02 -0.59068343503E+01  0.16603235729E+02  0.51100000000E-03 0.  1.
         12    1    3    3    0    0  0.18395545057E+01  0.26629628862E+02 -0.23927876878E+02  0.35847794716E+02  0.00000000000E+00 0. -1.
</event>
<event>
 7    1  0.7313719E-013  0.5930193E+02  0.7816164E-02  0.1266605E+00
        -11   -1    0    0    0    0  0.00000000000E+00  0.00000000000E+00  0.45593999997E+02  0.45594000000E+02  0.51100000000E-03 0.  1.
         11   -1    0    0    0    0 -0.00000000000E+00 -0.00000000000E+00 -0.45593999997E+02  0.45594000000E+02  0.51100000000E-03 0. -1.
    9900012    2    1    2    0    0 -0.14403218546E+02  0.27930873099E+02 -0.53976633533E+01  0.59301934921E+02  0.49999983392E+02 0.  0.
        -12    1    1    2    0    0  0.14403218546E+02 -0.27930873099E+02  0.53976633533E+01  0.31886065079E+02  0.00000000000E+00 0.  1.
         11    1    3    3    0    0 -0.52255821385E+01  0.23280772274E+02  0.31122521205E+01  0.24062152437E+02  0.51100000000E-03 0. -1.
        -11    1    3    3    0    0 -0.58685312285E+01  0.16660834551E+02  0.34182941457E+01  0.17991881554E+02  0.51100000000E-03 0.  1.
         12    1    3    3    0    0 -0.33091051795E+01 -0.12010733727E+02 -0.11928209620E+02  0.17247900930E+02  0.00000000000E+00 0. -1.
</event>
<event>
 7    1  0.7313719E-013  0.5930202E+02  0.7816164E-02  0.1266604E+00
        -11   -1    0    0    0    0  0.00000000000E+00  0.00000000000E+00  0.45593999997E+02  0.45594000000E+02  0.51100000000E-03 0. -1.
         11   -1    0    0    0    0 -0.00000000000E+00 -0.00000000000E+00 -0.45593999997E+02  0.45594000000E+02  0.51100000000E-03 0.  1.
    9900012    2    1    2    0    0  0.88334025765E+00  0.29404652947E+02  0.12300468974E+02  0.59302024369E+02  0.50000146523E+02 0.  0.
        -12    1    1    2    0    0 -0.88334025765E+00 -0.29404652947E+02 -0.12300468974E+02  0.31885975631E+02  0.00000000000E+00 0.  1.
         11    1    3    3    0    0  0.52985479644E+01  0.17497672855E+01  0.19865749130E+01  0.59230715200E+01  0.51100000000E-03 0. -1.
        -11    1    3    3    0    0  0.19936321647E+02  0.12597046977E+02  0.67320893277E+01  0.24524753624E+02  0.51100000000E-03 0.  1.
        -12    1    3    3    0    0 -0.24351529354E+02  0.15057838685E+02  0.35818047333E+01  0.28854199225E+02  0.00000000000E+00 0.  1.
</event>
<event>
 7    1  0.7313719E-013  0.5930193E+02  0.7816164E-02  0.1266605E+00
        -11   -1    0    0    0    0  0.00000000000E+00  0.00000000000E+00  0.45593999997E+02  0.45594000000E+02  0.51100000000E-03 0. -1.
         11   -1    0    0    0    0 -0.00000000000E+00 -0.00000000000E+00 -0.45593999997E+02  0.45594000000E+02  0.51100000000E-03 0.  1.
    9900012    2    1    2    0    0  0.36947141071E+01 -0.29635331863E+02  0.11172174810E+02  0.59301932558E+02  0.49999979082E+02 0.  0.
        -12    1    1    2    0    0 -0.36947141071E+01  0.29635331863E+02 -0.11172174810E+02  0.31886067442E+02  0.00000000000E+00 0.  1.
         11    1    3    3    0    0  0.89717686344E+01 -0.69008489803E+00 -0.13346381108E+02  0.16096420053E+02  0.51100000000E-03 0.  1.
        -11    1    3    3    0    0 -0.97041846540E+01 -0.14509795977E+02  0.43115004140E+01  0.17980389739E+02  0.51100000000E-03 0. -1.
        -12    1    3    3    0    0  0.44271301267E+01 -0.14435450988E+02  0.20207055504E+02  0.25225122765E+02  0.00000000000E+00 0.  1.
</event>
<event>
 7    1  0.7313719E-013  0.5930195E+02  0.7816164E-02  0.1266605E+00
        -11   -1    0    0    0    0  0.00000000000E+00  0.00000000000E+00  0.45593999997E+02  0.45594000000E+02  0.51100000000E-03 0. -1.
         11   -1    0    0    0    0 -0.00000000000E+00 -0.00000000000E+00 -0.45593999997E+02  0.45594000000E+02  0.51100000000E-03 0.  1.
    9900012    2    1    2    0    0 -0.14218998963E+02 -0.28283867535E+02 -0.38161312623E+01  0.59301953646E+02  0.50000017542E+02 0.  0.
        -12    1    1    2    0    0  0.14218998963E+02  0.28283867535E+02  0.38161312623E+01  0.31886046354E+02  0.00000000000E+00 0.  1.
         11    1    3    3    0    0 -0.21849943504E+02 -0.10367786290E+02 -0.21303511127E+01  0.24278579444E+02  0.51100000000E-03 0. -1.
        -11    1    3    3    0    0 -0.56525824727E+01  0.29282312455E+01 -0.72905236492E+01  0.96787376335E+01  0.51100000000E-03 0.  1.
        -12    1    3    3    0    0  0.13283527013E+02 -0.20844312491E+02  0.56047434996E+01  0.25344636569E+02  0.00000000000E+00 0.  1.
</event>
<event>
 7    1  0.7313719E-013  0.5930200E+02  0.7816164E-02  0.1266605E+00
        -11   -1    0    0    0    0  0.00000000000E+00  0.00000000000E+00  0.45593999997E+02  0.45594000000E+02  0.51100000000E-03 0. -1.
         11   -1    0    0    0    0 -0.00000000000E+00 -0.00000000000E+00 -0.45593999997E+02  0.45594000000E+02  0.51100000000E-03 0.  1.
    9900012    2    1    2    0    0  0.24430488741E+02 -0.76299426714E+01  0.19017148450E+02  0.59302004007E+02  0.50000109388E+02 0.  0.
        -12    1    1    2    0    0 -0.24430488741E+02  0.76299426714E+01 -0.19017148450E+02  0.31885995993E+02  0.00000000000E+00 0.  1.
         11    1    3    3    0    0  0.80617103235E+01 -0.59876009163E+01  0.31686107767E+02  0.33239313527E+02  0.51100000000E-03 0.  1.
        -11    1    3    3    0    0  0.12137035865E+02  0.28356831497E+01 -0.56008257766E+00  0.12476475114E+02  0.51100000000E-03 0. -1.
        -12    1    3    3    0    0  0.42317425523E+01 -0.44780249048E+01 -0.12108876740E+02  0.13586215366E+02  0.00000000000E+00 0.  1.
</event>
<event>
 7    1  0.7313719E-013  0.5930196E+02  0.7816164E-02  0.1266605E+00
        -11   -1    0    0    0    0  0.00000000000E+00  0.00000000000E+00  0.45593999997E+02  0.45594000000E+02  0.51100000000E-03 0.  1.
         11   -1    0    0    0    0 -0.00000000000E+00 -0.00000000000E+00 -0.45593999997E+02  0.45594000000E+02  0.51100000000E-03 0. -1.
    9900012    2    1    2    0    0  0.83218105657E+01 -0.51165508322E+01 -0.30352723293E+02  0.59301961757E+02  0.50000032334E+02 0.  0.
        -12    1    1    2    0    0 -0.83218105657E+01  0.51165508322E+01  0.30352723293E+02  0.31886038243E+02  0.00000000000E+00 0.  1.
         11    1    3    3    0    0  0.48874507479E+01 -0.71379261010E+01 -0.15681721233E+02  0.17909593656E+02  0.51100000000E-03 0. -1.
        -11    1    3    3    0    0  0.82771504101E+01 -0.15926231061E+02 -0.14047735112E+02  0.22792431129E+02  0.51100000000E-03 0.  1.
         12    1    3    3    0    0 -0.48427905923E+01  0.17947606329E+02 -0.62326694777E+00  0.18599936972E+02  0.00000000000E+00 0. -1.
</event>
<event>
 7    1  0.7313719E-013  0.5930198E+02  0.7816164E-02  0.1266605E+00
        -11   -1    0    0    0    0  0.00000000000E+00  0.00000000000E+00  0.45593999997E+02  0.45594000000E+02  0.51100000000E-03 0. -1.
         11   -1    0    0    0    0 -0.00000000000E+00 -0.00000000000E+00 -0.45593999997E+02  0.45594000000E+02  0.51100000000E-03 0.  1.
    9900012    2    1    2    0    0 -0.17895141092E+02 -0.22744166269E+02  0.13386014375E+02  0.59301975556E+02  0.50000057499E+02 0.  0.
        -12    1    1    2    0    0  0.17895141092E+02  0.22744166269E+02 -0.13386014375E+02  0.31886024444E+02  0.00000000000E+00 0.  1.
         11    1    3    3    0    0 -0.48599628787E+01 -0.10956585654E+02  0.42874031703E+01  0.12729801042E+02  0.51100000000E-03 0. -1.
        -11    1    3    3    0    0 -0.14149407050E+02 -0.21997804936E+02  0.18982606079E+02  0.32317928085E+02  0.51100000000E-03 0.  1.
        -12    1    3    3    0    0  0.11142288367E+01  0.10210224321E+02 -0.98839948736E+01  0.14254246428E+02  0.00000000000E+00 0.  1.
</event>
<event>
 7    1  0.7313719E-013  0.5930201E+02  0.7816164E-02  0.1266605E+00
        -11   -1    0    0    0    0  0.00000000000E+00  0.00000000000E+00  0.45593999997E+02  0.45594000000E+02  0.51100000000E-03 0.  1.
         11   -1    0    0    0    0 -0.00000000000E+00 -0.00000000000E+00 -0.45593999997E+02  0.45594000000E+02  0.51100000000E-03 0. -1.
    9900012    2    1    2    0    0  0.30411882050E+02 -0.75440508470E+01 -0.59094076367E+01  0.59302009791E+02  0.50000119936E+02 0.  0.
        -12    1    1    2    0    0 -0.30411882050E+02  0.75440508470E+01  0.59094076367E+01  0.31885990209E+02  0.00000000000E+00 0.  1.
         11    1    3    3    0    0 -0.60429972370E+01 -0.23431469903E+01  0.13402492445E+01  0.66184908947E+01  0.51100000000E-03 0. -1.
        -11    1    3    3    0    0  0.29870090715E+02 -0.65676200401E+01  0.11569545155E+02  0.32698781746E+02  0.51100000000E-03 0.  1.
         12    1    3    3    0    0  0.65847885724E+01  0.13667161834E+01 -0.18819202036E+02  0.19984737150E+02  0.00000000000E+00 0. -1.
</event>
<event>
 7    1  0.7313719E-013  0.5930194E+02  0.7816164E-02  0.1266605E+00
        -11   -1    0    0    0    0  0.00000000000E+00  0.00000000000E+00  0.45593999997E+02  0.45594000000E+02  0.51100000000E-03 0. -1.
         11   -1    0    0    0    0 -0.00000000000E+00 -0.00000000000E+00 -0.45593999997E+02  0.45594000000E+02  0.51100000000E-03 0.  1.
    9900012    2    1    2    0    0  0.26374410215E+02 -0.67491535659E+01  0.16600001849E+02  0.59301942711E+02  0.49999997599E+02 0.  0.
        -12    1    1    2    0    0 -0.26374410215E+02  0.67491535659E+01 -0.16600001849E+02  0.31886057289E+02  0.00000000000E+00 0.  1.
         11    1    3    3    0    0  0.27971115359E+02  0.14255444829E+01  0.12558414772E+02  0.30694124085E+02  0.51100000000E-03 0. -1.
        -11    1    3    3    0    0  0.80599658687E+01 -0.14608152087E+02  0.17011367639E+01  0.16770659610E+02  0.51100000000E-03 0.  1.
        -12    1    3    3    0    0 -0.96566710126E+01  0.64334540382E+01  0.23404503125E+01  0.11837159016E+02  0.00000000000E+00 0.  1.
</event>
<event>
 7    1  0.7313719E-013  0.5930195E+02  0.7816164E-02  0.1266605E+00
        -11   -1    0    0    0    0  0.00000000000E+00  0.00000000000E+00  0.45593999997E+02  0.45594000000E+02  0.51100000000E-03 0. -1.
         11   -1    0    0    0    0 -0.00000000000E+00 -0.00000000000E+00 -0.45593999997E+02  0.45594000000E+02  0.51100000000E-03 0.  1.
    9900012    2    1    2    0    0  0.19512005973E+02  0.41069238270E+01  0.24882421309E+02  0.59301951474E+02  0.50000013580E+02 0.  0.
        -12    1    1    2    0    0 -0.19512005973E+02 -0.41069238270E+01 -0.24882421309E+02  0.31886048526E+02  0.00000000000E+00 0.  1.
         11    1    3    3    0    0  0.81152326118E+01 -0.60453583579E+01  0.10691179696E+02  0.14720892689E+02  0.51100000000E-03 0. -1.
        -11    1    3    3    0    0  0.25020284182E+02  0.11108047492E+02  0.14380987885E+02  0.30922744905E+02  0.51100000000E-03 0.  1.
        -12    1    3    3    0    0 -0.13623510820E+02 -0.95576530756E+00 -0.18974627136E+00  0.13658313880E+02  0.00000000000E+00 0.  1.
</event>
<event>
 7    1  0.7313719E-013  0.5930194E+02  0.7816164E-02  0.1266605E+00
        -11   -1    0    0    0    0  0.00000000000E+00  0.00000000000E+00  0.45593999997E+02  0.45594000000E+02  0.51100000000E-03 0.  1.
         11   -1    0    0    0    0 -0.00000000000E+00 -0.00000000000E+00 -0.45593999997E+02  0.45594000000E+02  0.51100000000E-03 0. -1.
    9900012    2    1    2    0    0 -0.77295668057E+01  0.30042421487E+01 -0.30788781610E+02  0.59301941183E+02  0.49999994811E+02 0.  0.
        -12    1    1    2    0    0  0.77295668057E+01 -0.30042421487E+01  0.30788781610E+02  0.31886058817E+02  0.00000000000E+00 0.  1.
         11    1    3    3    0    0  0.64044363162E+01 -0.58488096928E+00 -0.18929382966E+02  0.19992009154E+02  0.51100000000E-03 0. -1.
        -11    1    3    3    0    0  0.21519108912E+01 -0.59043087845E+01  0.91391408019E+01  0.11091234267E+02  0.51100000000E-03 0.  1.
        -12    1    3    3    0    0 -0.16285914013E+02  0.94934319024E+01 -0.20998539446E+02  0.28218697762E+02  0.00000000000E+00 0.  1.
</event>
<event>
 7    1  0.7313719E-013  0.5930174E+02  0.7816164E-02  0.1266605E+00
        -11   -1    0    0    0    0  0.00000000000E+00  0.00000000000E+00  0.45593999997E+02  0.45594000000E+02  0.51100000000E-03 0.  1.
         11   -1    0    0    0    0 -0.00000000000E+00 -0.00000000000E+00 -0.45593999997E+02  0.45594000000E+02  0.51100000000E-03 0. -1.
    9900012    2    1    2    0    0 -0.18946242692E+02  0.43135830555E+01 -0.25281737964E+02  0.59301743001E+02  0.49999633374E+02 0.  0.
        -12    1    1    2    0    0  0.18946242692E+02 -0.43135830555E+01  0.25281737964E+02  0.31886256999E+02  0.00000000000E+00 0.  1.
         11    1    3    3    0    0 -0.15456594083E+01  0.82396013822E+00 -0.12075826206E+02  0.12202194562E+02  0.51100000000E-03 0. -1.
        -11    1    3    3    0    0 -0.84677096323E+01 -0.22915810603E+01 -0.27735920835E+02  0.29090114386E+02  0.51100000000E-03 0.  1.
        -12    1    3    3    0    0 -0.89328736517E+01  0.57812039776E+01  0.14530009077E+02  0.18009434053E+02  0.00000000000E+00 0.  1.
</event>
<event>
 7    1  0.7391193E-013  0.5930191E+02  0.7816164E-02  0.1266605E+00
        -11   -1    0    0    0    0  0.00000000000E+00  0.00000000000E+00  0.45593999997E+02  0.45594000000E+02  0.51100000000E-03 0. -1.
         11   -1    0    0    0    0 -0.00000000000E+00 -0.00000000000E+00 -0.45593999997E+02  0.45594000000E+02  0.51100000000E-03 0.  1.
    9900012    2    1    2    0    0 -0.91791094077E+01  0.72211318074E+01  0.29670214985E+02  0.59301914455E+02  0.49999946067E+02 0.  0.
        -12    1    1    2    0    0  0.91791094077E+01 -0.72211318074E+01 -0.29670214985E+02  0.31886085545E+02  0.00000000000E+00 0.  1.
         11    1    3    3    0    0  0.78221067267E+01 -0.31612293525E-01  0.16627641128E+02  0.18375657886E+02  0.51100000000E-03 0. -1.
        -11    1    3    3    0    0  0.85912314574E+01  0.47461039002E+01 -0.34192022382E+01  0.10393541475E+02  0.51100000000E-03 0.  1.
         12    1    3    3    0    0 -0.25592447592E+02  0.25066402007E+01  0.16461776095E+02  0.30532715095E+02  0.00000000000E+00 0. -1.
</event>
<event>
 7    1  0.7313719E-013  0.5930195E+02  0.7816164E-02  0.1266605E+00
        -11   -1    0    0    0    0  0.00000000000E+00  0.00000000000E+00  0.45593999997E+02  0.45594000000E+02  0.51100000000E-03 0.  1.
         11   -1    0    0    0    0 -0.00000000000E+00 -0.00000000000E+00 -0.45593999997E+02  0.45594000000E+02  0.51100000000E-03 0. -1.
    9900012    2    1    2    0    0  0.17974280723E+02 -0.20192453133E+02  0.16908880559E+02  0.59301950185E+02  0.50000011230E+02 0.  0.
        -12    1    1    2    0    0 -0.17974280723E+02  0.20192453133E+02 -0.16908880559E+02  0.31886049815E+02  0.00000000000E+00 0.  1.
         11    1    3    3    0    0  0.11450519496E+02 -0.56454751236E+01  0.46397121489E+01  0.13583545752E+02  0.51100000000E-03 0. -1.
        -11    1    3    3    0    0  0.31761203255E+01 -0.66776117340E+01  0.27377032828E+02  0.28358070553E+02  0.51100000000E-03 0.  1.
         12    1    3    3    0    0  0.33476409016E+01 -0.78693662750E+01 -0.15107864417E+02  0.17360333880E+02  0.00000000000E+00 0. -1.
</event>
<event>
 7    1  0.7313719E-013  0.5930197E+02  0.7816164E-02  0.1266605E+00
        -11   -1    0    0    0    0  0.00000000000E+00  0.00000000000E+00  0.45593999997E+02  0.45594000000E+02  0.51100000000E-03 0.  1.
         11   -1    0    0    0    0 -0.00000000000E+00 -0.00000000000E+00 -0.45593999997E+02  0.45594000000E+02  0.51100000000E-03 0. -1.
    9900012    2    1    2    0    0 -0.62494920816E+01 -0.13109127438E+02 -0.28386859229E+02  0.59301966218E+02  0.50000040470E+02 0.  0.
        -12    1    1    2    0    0  0.62494920816E+01  0.13109127438E+02  0.28386859229E+02  0.31886033782E+02  0.00000000000E+00 0.  1.
         11    1    3    3    0    0  0.15800907294E+02  0.91860072204E+01 -0.23575323930E+01  0.18428493135E+02  0.51100000000E-03 0.  1.
        -11    1    3    3    0    0 -0.10055407710E+02 -0.98428984186E+01 -0.96917686398E+01  0.17085790971E+02  0.51100000000E-03 0. -1.
        -12    1    3    3    0    0 -0.11994991666E+02 -0.12452236240E+02 -0.16337558196E+02  0.23787682112E+02  0.00000000000E+00 0.  1.
</event>
<event>
 7    1  0.7313719E-013  0.5930197E+02  0.7816164E-02  0.1266605E+00
        -11   -1    0    0    0    0  0.00000000000E+00  0.00000000000E+00  0.45593999997E+02  0.45594000000E+02  0.51100000000E-03 0. -1.
         11   -1    0    0    0    0 -0.00000000000E+00 -0.00000000000E+00 -0.45593999997E+02  0.45594000000E+02  0.51100000000E-03 0.  1.
    9900012    2    1    2    0    0  0.10145783079E+02  0.23079034746E+02  0.19522805385E+02  0.59301973449E+02  0.50000053657E+02 0.  0.
        -12    1    1    2    0    0 -0.10145783079E+02 -0.23079034746E+02 -0.19522805385E+02  0.31886026551E+02  0.00000000000E+00 0.  1.
         11    1    3    3    0    0  0.37151138598E+01 -0.76820785326E-01  0.43116585534E+00  0.37408390342E+01  0.51100000000E-03 0. -1.
        -11    1    3    3    0    0  0.22376177265E+02 -0.16266802528E+01  0.54503097871E+01  0.23087773272E+02  0.51100000000E-03 0.  1.
         12    1    3    3    0    0 -0.15945508046E+02  0.24782535784E+02  0.13641329743E+02  0.32473361143E+02  0.00000000000E+00 0. -1.
</event>
<event>
 7    1  0.7313719E-013  0.5930196E+02  0.7816164E-02  0.1266605E+00
        -11   -1    0    0    0    0  0.00000000000E+00  0.00000000000E+00  0.45593999997E+02  0.45594000000E+02  0.51100000000E-03 0.  1.
         11   -1    0    0    0    0 -0.00000000000E+00 -0.00000000000E+00 -0.45593999997E+02  0.45594000000E+02  0.51100000000E-03 0. -1.
    9900012    2    1    2    0    0 -0.87855998864E+01  0.15440213229E+02 -0.26478906333E+02  0.59301961824E+02  0.50000032457E+02 0.  0.
        -12    1    1    2    0    0  0.87855998864E+01 -0.15440213229E+02  0.26478906333E+02  0.31886038176E+02  0.00000000000E+00 0.  1.
         11    1    3    3    0    0  0.84345649856E+01 -0.32827738585E+01 -0.21909855811E+01  0.93122987914E+01  0.51100000000E-03 0. -1.
        -11    1    3    3    0    0 -0.34799437663E+01 -0.95360337364E+01  0.19852708265E+00  0.10153096144E+02  0.51100000000E-03 0.  1.
        -12    1    3    3    0    0 -0.13740221106E+02  0.28259020824E+02 -0.24486447835E+02  0.39836566889E+02  0.00000000000E+00 0.  1.
</event>
<event>
 7    1  0.7313719E-013  0.5930194E+02  0.7816164E-02  0.1266605E+00
        -11   -1    0    0    0    0  0.00000000000E+00  0.00000000000E+00  0.45593999997E+02  0.45594000000E+02  0.51100000000E-03 0.  1.
         11   -1    0    0    0    0 -0.00000000000E+00 -0.00000000000E+00 -0.45593999997E+02  0.45594000000E+02  0.51100000000E-03 0. -1.
    9900012    2    1    2    0    0 -0.21510694739E+02  0.22939564178E+02 -0.52713428092E+01  0.59301942736E+02  0.49999997644E+02 0.  0.
        -12    1    1    2    0    0  0.21510694739E+02 -0.22939564178E+02  0.52713428092E+01  0.31886057264E+02  0.00000000000E+00 0.  1.
         11    1    3    3    0    0 -0.82692858979E+01 -0.41956466235E+00  0.31946572120E+01  0.88748497863E+01  0.51100000000E-03 0. -1.
        -11    1    3    3    0    0  0.14849911882E+01 -0.11639516047E+02 -0.16445541854E+01  0.11848548070E+02  0.51100000000E-03 0.  1.
         12    1    3    3    0    0 -0.14726400029E+02  0.34998644887E+02 -0.68214458357E+01  0.38578544880E+02  0.00000000000E+00 0. -1.
</event>
<event>
 7    1  0.7313719E-013  0.5930192E+02  0.7816164E-02  0.1266605E+00
        -11   -1    0    0    0    0  0.00000000000E+00  0.00000000000E+00  0.45593999997E+02  0.45594000000E+02  0.51100000000E-03 0.  1.
         11   -1    0    0    0    0 -0.00000000000E+00 -0.00000000000E+00 -0.45593999997E+02  0.45594000000E+02  0.51100000000E-03 0. -1.
    9900012    2    1    2    0    0 -0.22855068917E+02  0.16840975285E+02 -0.14517213196E+02  0.59301919922E+02  0.49999956037E+02 0.  0.
        -12    1    1    2    0    0  0.22855068917E+02 -0.16840975285E+02  0.14517213196E+02  0.31886080078E+02  0.00000000000E+00 0.  1.
         11    1    3    3    0    0 -0.40372682289E+01 -0.30965250722E+01 -0.19770790543E+02  0.20414998438E+02  0.51100000000E-03 0. -1.
        -11    1    3    3    0    0 -0.79328498246E+01 -0.59633940469E+01  0.41873168395E+01  0.10771527165E+02  0.51100000000E-03 0.  1.
        -12    1    3    3    0    0 -0.10884950864E+02  0.25900894404E+02  0.10662605073E+01  0.28115394319E+02  0.00000000000E+00 0.  1.
</event>
<event>
 7    1  0.7313719E-013  0.5930197E+02  0.7816164E-02  0.1266605E+00
        -11   -1    0    0    0    0  0.00000000000E+00  0.00000000000E+00  0.45593999997E+02  0.45594000000E+02  0.51100000000E-03 0. -1.
         11   -1    0    0    0    0 -0.00000000000E+00 -0.00000000000E+00 -0.45593999997E+02  0.45594000000E+02  0.51100000000E-03 0.  1.
    9900012    2    1    2    0    0  0.31543415495E+02  0.12107888506E+00 -0.46601576550E+01  0.59301971860E+02  0.50000050759E+02 0.  0.
        -12    1    1    2    0    0 -0.31543415495E+02 -0.12107888506E+00  0.46601576550E+01  0.31886028140E+02  0.00000000000E+00 0.  1.
         11    1    3    3    0    0  0.25439851720E+01 -0.62261885138E+01 -0.13638005254E+02  0.15206329983E+02  0.51100000000E-03 0.  1.
        -11    1    3    3    0    0 -0.30700443737E+00 -0.86683885558E+01  0.69308820241E+01  0.11102807653E+02  0.51100000000E-03 0. -1.
        -12    1    3    3    0    0  0.29306434760E+02  0.15015655955E+02  0.20469655754E+01  0.32992834225E+02  0.00000000000E+00 0.  1.
</event>
<event>
 7    1  0.7313719E-013  0.5930195E+02  0.7816164E-02  0.1266605E+00
        -11   -1    0    0    0    0  0.00000000000E+00  0.00000000000E+00  0.45593999997E+02  0.45594000000E+02  0.51100000000E-03 0.  1.
         11   -1    0    0    0    0 -0.00000000000E+00 -0.00000000000E+00 -0.45593999997E+02  0.45594000000E+02  0.51100000000E-03 0. -1.
    9900012    2    1    2    0    0  0.62818408801E+01 -0.21909366597E+02 -0.22298842495E+02  0.59301949035E+02  0.50000009133E+02 0.  0.
        -12    1    1    2    0    0 -0.62818408801E+01  0.21909366597E+02  0.22298842495E+02  0.31886050965E+02  0.00000000000E+00 0.  1.
         11    1    3    3    0    0  0.15881590616E+01  0.34117124696E+01 -0.23279416298E+00  0.37704408978E+01  0.51100000000E-03 0. -1.
        -11    1    3    3    0    0  0.21318913057E+02 -0.14296859904E+02  0.15580904046E+00  0.25669447476E+02  0.51100000000E-03 0.  1.
         12    1    3    3    0    0 -0.16625231238E+02 -0.11024219163E+02 -0.22221857372E+02  0.29862060661E+02  0.00000000000E+00 0. -1.
</event>
<event>
 7    1  0.7313719E-013  0.5930205E+02  0.7816164E-02  0.1266604E+00
        -11   -1    0    0    0    0  0.00000000000E+00  0.00000000000E+00  0.45593999997E+02  0.45594000000E+02  0.51100000000E-03 0.  1.
         11   -1    0    0    0    0 -0.00000000000E+00 -0.00000000000E+00 -0.45593999997E+02  0.45594000000E+02  0.51100000000E-03 0. -1.
    9900012    2    1    2    0    0  0.14204772731E+02  0.28326103771E+02 -0.35454749268E+01  0.59302045167E+02  0.50000184453E+02 0.  0.
        -12    1    1    2    0    0 -0.14204772731E+02 -0.28326103771E+02  0.35454749268E+01  0.31885954833E+02  0.00000000000E+00 0.  1.
         11    1    3    3    0    0 -0.67992793789E+01  0.28609956293E+02  0.67355854896E+01  0.30168326293E+02  0.51100000000E-03 0. -1.
        -11    1    3    3    0    0  0.69078376009E+00  0.52288723269E+01  0.81998439274E+00  0.53376645342E+01  0.51100000000E-03 0.  1.
         12    1    3    3    0    0  0.20313268349E+02 -0.55127248492E+01 -0.11101044809E+02  0.23796054340E+02  0.00000000000E+00 0. -1.
</event>
<event>
 7    1  0.7313719E-013  0.5930195E+02  0.7816164E-02  0.1266605E+00
        -11   -1    0    0    0    0  0.00000000000E+00  0.00000000000E+00  0.45593999997E+02  0.45594000000E+02  0.51100000000E-03 0.  1.
         11   -1    0    0    0    0 -0.00000000000E+00 -0.00000000000E+00 -0.45593999997E+02  0.45594000000E+02  0.51100000000E-03 0. -1.
    9900012    2    1    2    0    0  0.16853461333E+02  0.13239848137E+02 -0.23609053696E+02  0.59301950480E+02  0.50000011767E+02 0.  0.
        -12    1    1    2    0    0 -0.16853461333E+02 -0.13239848137E+02  0.23609053696E+02  0.31886049520E+02  0.00000000000E+00 0.  1.
         11    1    3    3    0    0 -0.43863127342E+01  0.20005636554E+01  0.43074343846E+01  0.64649814833E+01  0.51100000000E-03 0. -1.
        -11    1    3    3    0    0  0.40437840812E+01  0.32271687584E+01  0.95386866804E+01  0.10851421646E+02  0.51100000000E-03 0.  1.
         12    1    3    3    0    0  0.17195989986E+02  0.80121157230E+01 -0.37455174761E+02  0.41985547351E+02  0.00000000000E+00 0. -1.
</event>
<event>
 7    1  0.7313719E-013  0.5930194E+02  0.7816164E-02  0.1266605E+00
        -11   -1    0    0    0    0  0.00000000000E+00  0.00000000000E+00  0.45593999997E+02  0.45594000000E+02  0.51100000000E-03 0. -1.
         11   -1    0    0    0    0 -0.00000000000E+00 -0.00000000000E+00 -0.45593999997E+02  0.45594000000E+02  0.51100000000E-03 0.  1.
    9900012    2    1    2    0    0 -0.17512588644E+02  0.20198986233E+01  0.26569715553E+02  0.59301944489E+02  0.50000000842E+02 0.  0.
        -12    1    1    2    0    0  0.17512588644E+02 -0.20198986233E+01 -0.26569715553E+02  0.31886055511E+02  0.00000000000E+00 0.  1.
         11    1    3    3    0    0 -0.44077979463E+01  0.36635379800E+01 -0.32138669591E+01  0.65710831952E+01  0.51100000000E-03 0. -1.
        -11    1    3    3    0    0  0.54352979270E+01  0.98974301727E+01 -0.44398285464E+01  0.12133163864E+02  0.51100000000E-03 0.  1.
        -12    1    3    3    0    0 -0.18540088625E+02 -0.11541069529E+02  0.34223411059E+02  0.40597697430E+02  0.00000000000E+00 0.  1.
</event>
<event>
 7    1  0.7313719E-013  0.5930195E+02  0.7816164E-02  0.1266605E+00
        -11   -1    0    0    0    0  0.00000000000E+00  0.00000000000E+00  0.45593999997E+02  0.45594000000E+02  0.51100000000E-03 0.  1.
         11   -1    0    0    0    0 -0.00000000000E+00 -0.00000000000E+00 -0.45593999997E+02  0.45594000000E+02  0.51100000000E-03 0. -1.
    9900012    2    1    2    0    0 -0.98519669247E+01 -0.83933251978E+01 -0.29141226849E+02  0.59301948779E+02  0.50000008666E+02 0.  0.
        -12    1    1    2    0    0  0.98519669247E+01  0.83933251978E+01  0.29141226849E+02  0.31886051221E+02  0.00000000000E+00 0.  1.
         11    1    3    3    0    0  0.11146064697E+02 -0.14303906934E+02 -0.57629018660E+01  0.19027547135E+02  0.51100000000E-03 0.  1.
        -11    1    3    3    0    0 -0.71882175490E+01 -0.42249767130E+01  0.29666078218E+01  0.88499526545E+01  0.51100000000E-03 0. -1.
         12    1    3    3    0    0 -0.13809814072E+02  0.10135558449E+02 -0.26344932805E+02  0.31424448990E+02  0.00000000000E+00 0. -1.
</event>
<event>
 7    1  0.7313719E-013  0.5930190E+02  0.7816164E-02  0.1266605E+00
        -11   -1    0    0    0    0  0.00000000000E+00  0.00000000000E+00  0.45593999997E+02  0.45594000000E+02  0.51100000000E-03 0. -1.
         11   -1    0    0    0    0 -0.00000000000E+00 -0.00000000000E+00 -0.45593999997E+02  0.45594000000E+02  0.51100000000E-03 0.  1.
    9900012    2    1    2    0    0  0.12870063982E+02 -0.27933350412E+02  0.84150403728E+01  0.59301897751E+02  0.49999915603E+02 0.  0.
        -12    1    1    2    0    0 -0.12870063982E+02  0.27933350412E+02 -0.84150403728E+01  0.31886102249E+02  0.00000000000E+00 0.  1.
         11    1    3    3    0    0  0.89624195764E+01  0.58193991622E+01  0.72033902005E+01  0.12887171991E+02  0.51100000000E-03 0. -1.
        -11    1    3    3    0    0  0.75224461015E+01  0.45735989113E+00  0.83851580979E+01  0.11274185115E+02  0.51100000000E-03 0.  1.
         12    1    3    3    0    0 -0.36148016955E+01 -0.34210109465E+02 -0.71735079256E+01  0.35140540646E+02  0.00000000000E+00 0. -1.
</event>
<event>
 7    1  0.7313719E-013  0.5930184E+02  0.7816164E-02  0.1266605E+00
        -11   -1    0    0    0    0  0.00000000000E+00  0.00000000000E+00  0.45593999997E+02  0.45594000000E+02  0.51100000000E-03 0. -1.
         11   -1    0    0    0    0 -0.00000000000E+00 -0.00000000000E+00 -0.45593999997E+02  0.45594000000E+02  0.51100000000E-03 0.  1.
    9900012    2    1    2    0    0  0.12739568395E+02  0.27209918924E+02  0.10679448340E+02  0.59301844578E+02  0.49999818628E+02 0.  0.
        -12    1    1    2    0    0 -0.12739568395E+02 -0.27209918924E+02 -0.10679448340E+02  0.31886155422E+02  0.00000000000E+00 0.  1.
         11    1    3    3    0    0 -0.14513292385E+02  0.77610119575E+01  0.84049883449E+01  0.18480064713E+02  0.51100000000E-03 0. -1.
        -11    1    3    3    0    0 -0.18441050008E+01  0.99111955995E+01  0.14953369035E+01  0.10191592328E+02  0.51100000000E-03 0.  1.
        -12    1    3    3    0    0  0.29096965781E+02  0.95377113668E+01  0.77912309130E+00  0.30630187537E+02  0.00000000000E+00 0.  1.
</event>
<event>
 7    1  0.7313719E-013  0.5930197E+02  0.7816164E-02  0.1266605E+00
        -11   -1    0    0    0    0  0.00000000000E+00  0.00000000000E+00  0.45593999997E+02  0.45594000000E+02  0.51100000000E-03 0.  1.
         11   -1    0    0    0    0 -0.00000000000E+00 -0.00000000000E+00 -0.45593999997E+02  0.45594000000E+02  0.51100000000E-03 0. -1.
    9900012    2    1    2    0    0  0.11830740090E+02 -0.68611873298E+01 -0.28804105652E+02  0.59301971633E+02  0.50000050344E+02 0.  0.
        -12    1    1    2    0    0 -0.11830740090E+02  0.68611873298E+01  0.28804105652E+02  0.31886028367E+02  0.00000000000E+00 0.  1.
         11    1    3    3    0    0  0.27744160535E+02  0.34431471699E+01 -0.21091843847E+02  0.35020844983E+02  0.51100000000E-03 0. -1.
        -11    1    3    3    0    0 -0.74418592352E+00 -0.42053412866E+01  0.25536114392E+01  0.49759059144E+01  0.51100000000E-03 0.  1.
        -12    1    3    3    0    0 -0.15169234521E+02 -0.60989932131E+01 -0.10265873243E+02  0.19305220735E+02  0.00000000000E+00 0.  1.
</event>
<event>
 7    1  0.7313719E-013  0.5930195E+02  0.7816164E-02  0.1266605E+00
        -11   -1    0    0    0    0  0.00000000000E+00  0.00000000000E+00  0.45593999997E+02  0.45594000000E+02  0.51100000000E-03 0. -1.
         11   -1    0    0    0    0 -0.00000000000E+00 -0.00000000000E+00 -0.45593999997E+02  0.45594000000E+02  0.51100000000E-03 0.  1.
    9900012    2    1    2    0    0 -0.31720353884E+02 -0.24520020420E+01 -0.21276584453E+01  0.59301951405E+02  0.50000013454E+02 0.  0.
        -12    1    1    2    0    0  0.31720353884E+02  0.24520020420E+01  0.21276584453E+01  0.31886048595E+02  0.00000000000E+00 0.  1.
         11    1    3    3    0    0 -0.30316059648E+02 -0.16602412930E+01  0.52139638937E+01  0.30805929518E+02  0.51100000000E-03 0. -1.
        -11    1    3    3    0    0 -0.40731584359E+01 -0.11453404202E+02 -0.11510760625E+02  0.16741227491E+02  0.51100000000E-03 0.  1.
         12    1    3    3    0    0  0.26688641999E+01  0.10661643453E+02  0.41691382862E+01  0.11754794396E+02  0.00000000000E+00 0. -1.
</event>
<event>
 7    1  0.7313719E-013  0.5930190E+02  0.7816164E-02  0.1266605E+00
        -11   -1    0    0    0    0  0.00000000000E+00  0.00000000000E+00  0.45593999997E+02  0.45594000000E+02  0.51100000000E-03 0.  1.
         11   -1    0    0    0    0 -0.00000000000E+00 -0.00000000000E+00 -0.45593999997E+02  0.45594000000E+02  0.51100000000E-03 0. -1.
    9900012    2    1    2    0    0 -0.19757156959E+01  0.20319642311E+02 -0.24493510964E+02  0.59301899651E+02  0.49999919067E+02 0.  0.
        -12    1    1    2    0    0  0.19757156959E+01 -0.20319642311E+02  0.24493510964E+02  0.31886100349E+02  0.00000000000E+00 0.  1.
         11    1    3    3    0    0  0.42558574525E+01 -0.31487529790E+01  0.97042236296E+01  0.11054362238E+02  0.51100000000E-03 0. -1.
        -11    1    3    3    0    0  0.23437820116E+01  0.71035041902E+01  0.18812462925E+01  0.77131169946E+01  0.51100000000E-03 0.  1.
         12    1    3    3    0    0 -0.85753551599E+01  0.16364891100E+02 -0.36078980886E+02  0.40534420418E+02  0.00000000000E+00 0. -1.
</event>
<event>
 7    1  0.7313719E-013  0.5930193E+02  0.7816164E-02  0.1266605E+00
        -11   -1    0    0    0    0  0.00000000000E+00  0.00000000000E+00  0.45593999997E+02  0.45594000000E+02  0.51100000000E-03 0.  1.
         11   -1    0    0    0    0 -0.00000000000E+00 -0.00000000000E+00 -0.45593999997E+02  0.45594000000E+02  0.51100000000E-03 0. -1.
    9900012    2    1    2    0    0 -0.17622058610E+02 -0.20406953359E+02 -0.17021770216E+02  0.59301931626E+02  0.49999977382E+02 0.  0.
        -12    1    1    2    0    0  0.17622058610E+02  0.20406953359E+02  0.17021770216E+02  0.31886068374E+02  0.00000000000E+00 0.  1.
         11    1    3    3    0    0 -0.20954242776E+02 -0.13663709975E+02 -0.10746206360E+02  0.27226057592E+02  0.51100000000E-03 0. -1.
        -11    1    3    3    0    0 -0.12518419496E+02 -0.89512827825E+01 -0.40896920588E+01  0.15923626205E+02  0.51100000000E-03 0.  1.
        -12    1    3    3    0    0  0.15850603662E+02  0.22080393982E+01 -0.21858717968E+01  0.16152247829E+02  0.00000000000E+00 0.  1.
</event>
<event>
 7    1  0.7313719E-013  0.5930192E+02  0.7816164E-02  0.1266605E+00
        -11   -1    0    0    0    0  0.00000000000E+00  0.00000000000E+00  0.45593999997E+02  0.45594000000E+02  0.51100000000E-03 0. -1.
         11   -1    0    0    0    0 -0.00000000000E+00 -0.00000000000E+00 -0.45593999997E+02  0.45594000000E+02  0.51100000000E-03 0.  1.
    9900012    2    1    2    0    0 -0.14077987691E+02 -0.23382978091E+02  0.16485400327E+02  0.59301924265E+02  0.49999963958E+02 0.  0.
        -12    1    1    2    0    0  0.14077987691E+02  0.23382978091E+02 -0.16485400327E+02  0.31886075735E+02  0.00000000000E+00 0.  1.
         11    1    3    3    0    0 -0.10908127140E+02 -0.61914537982E+01 -0.20192204256E+01  0.12704274447E+02  0.51100000000E-03 0.  1.
        -11    1    3    3    0    0  0.15325012775E+02 -0.11001700567E+02 -0.11610693333E+01  0.18900833690E+02  0.51100000000E-03 0. -1.
         12    1    3    3    0    0 -0.18494873326E+02 -0.61898237254E+01  0.19665690086E+02  0.27696816128E+02  0.00000000000E+00 0. -1.
</event>
<event>
 7    1  0.7313719E-013  0.5930195E+02  0.7816164E-02  0.1266605E+00
        -11   -1    0    0    0    0  0.00000000000E+00  0.00000000000E+00  0.45593999997E+02  0.45594000000E+02  0.51100000000E-03 0.  1.
         11   -1    0    0    0    0 -0.00000000000E+00 -0.00000000000E+00 -0.45593999997E+02  0.45594000000E+02  0.51100000000E-03 0. -1.
    9900012    2    1    2    0    0  0.13930908300E+02  0.11386733096E+02 -0.26324750604E+02  0.59301946763E+02  0.50000004989E+02 0.  0.
        -12    1    1    2    0    0 -0.13930908300E+02 -0.11386733096E+02  0.26324750604E+02  0.31886053237E+02  0.00000000000E+00 0.  1.
         11    1    3    3    0    0  0.53391718453E+01  0.15603883017E+02 -0.28805473670E+02  0.33192517753E+02  0.51100000000E-03 0. -1.
        -11    1    3    3    0    0  0.84977071049E+01  0.88118275252E+01 -0.18468359946E+01  0.12380231574E+02  0.51100000000E-03 0.  1.
        -12    1    3    3    0    0  0.94029350024E-01 -0.13028977446E+02  0.43275590610E+01  0.13729197436E+02  0.00000000000E+00 0.  1.
</event>
<event>
 7    1  0.8989950E-013  0.5930195E+02  0.7816164E-02  0.1266605E+00
        -11   -1    0    0    0    0  0.00000000000E+00  0.00000000000E+00  0.45593999997E+02  0.45594000000E+02  0.51100000000E-03 0. -1.
         11   -1    0    0    0    0 -0.00000000000E+00 -0.00000000000E+00 -0.45593999997E+02  0.45594000000E+02  0.51100000000E-03 0.  1.
    9900012    2    1    2    0    0  0.23625653691E+02 -0.15275405616E+02  0.15007025839E+02  0.59301947350E+02  0.50000006060E+02 0.  0.
        -12    1    1    2    0    0 -0.23625653691E+02  0.15275405616E+02 -0.15007025839E+02  0.31886052650E+02  0.00000000000E+00 0.  1.
         11    1    3    3    0    0 -0.10446033045E+02 -0.72032037932E+01  0.53264343011E+01  0.13761419036E+02  0.51100000000E-03 0. -1.
        -11    1    3    3    0    0 -0.38788015507E+01  0.29105248233E-01 -0.27926294792E+01  0.47796159108E+01  0.51100000000E-03 0.  1.
         12    1    3    3    0    0  0.37950488286E+02 -0.81013070711E+01  0.12473221017E+02  0.40760912404E+02  0.00000000000E+00 0. -1.
</event>
<event>
 7    1  0.7313719E-013  0.5930170E+02  0.7816164E-02  0.1266606E+00
        -11   -1    0    0    0    0  0.00000000000E+00  0.00000000000E+00  0.45593999997E+02  0.45594000000E+02  0.51100000000E-03 0. -1.
         11   -1    0    0    0    0 -0.00000000000E+00 -0.00000000000E+00 -0.45593999997E+02  0.45594000000E+02  0.51100000000E-03 0.  1.
    9900012    2    1    2    0    0  0.20665348295E+02 -0.22384247376E+02 -0.94140826411E+01  0.59301700391E+02  0.49999555664E+02 0.  0.
        -12    1    1    2    0    0 -0.20665348295E+02  0.22384247376E+02  0.94140826411E+01  0.31886299609E+02  0.00000000000E+00 0.  1.
         11    1    3    3    0    0  0.15099894915E+02 -0.76413747910E+01 -0.42868514481E+01  0.17457792837E+02  0.51100000000E-03 0. -1.
        -11    1    3    3    0    0 -0.36314402179E+00 -0.81261697808E+01 -0.21626009838E+02  0.23105211764E+02  0.51100000000E-03 0.  1.
         12    1    3    3    0    0  0.59285974020E+01 -0.66167028042E+01  0.16498778645E+02  0.18738695790E+02  0.00000000000E+00 0. -1.
</event>
<event>
 7    1  0.7313719E-013  0.5930194E+02  0.7816164E-02  0.1266605E+00
        -11   -1    0    0    0    0  0.00000000000E+00  0.00000000000E+00  0.45593999997E+02  0.45594000000E+02  0.51100000000E-03 0. -1.
         11   -1    0    0    0    0 -0.00000000000E+00 -0.00000000000E+00 -0.45593999997E+02  0.45594000000E+02  0.51100000000E-03 0.  1.
    9900012    2    1    2    0    0  0.98287099243E+01  0.13153891964E+02  0.27332989693E+02  0.59301941320E+02  0.49999995062E+02 0.  0.
        -12    1    1    2    0    0 -0.98287099243E+01 -0.13153891964E+02 -0.27332989693E+02  0.31886058680E+02  0.00000000000E+00 0.  1.
         11    1    3    3    0    0 -0.41857655669E+01 -0.98507151057E+01 -0.26275336198E+01  0.11020941641E+02  0.51100000000E-03 0. -1.
        -11    1    3    3    0    0  0.75297537998E+01 -0.18424782451E+01 -0.12629405139E+01  0.78541032188E+01  0.51100000000E-03 0.  1.
        -12    1    3    3    0    0  0.64847216914E+01  0.24847085314E+02  0.31223463827E+02  0.40426896460E+02  0.00000000000E+00 0.  1.
</event>
<event>
 7    1  0.7313719E-013  0.5930196E+02  0.7816164E-02  0.1266605E+00
        -11   -1    0    0    0    0  0.00000000000E+00  0.00000000000E+00  0.45593999997E+02  0.45594000000E+02  0.51100000000E-03 0.  1.
         11   -1    0    0    0    0 -0.00000000000E+00 -0.00000000000E+00 -0.45593999997E+02  0.45594000000E+02  0.51100000000E-03 0. -1.
    9900012    2    1    2    0    0  0.18390856024E+02  0.17201038470E+01 -0.25991103758E+02  0.59301955763E+02  0.50000021402E+02 0.  0.
        -12    1    1    2    0    0 -0.18390856024E+02 -0.17201038470E+01  0.25991103758E+02  0.31886044237E+02  0.00000000000E+00 0.  1.
         11    1    3    3    0    0  0.46513410601E+01  0.40981329271E+01  0.10789133984E+02  0.12443274469E+02  0.51100000000E-03 0. -1.
        -11    1    3    3    0    0 -0.28179865128E+01 -0.11748809723E+01  0.26711735560E+01  0.40566687951E+01  0.51100000000E-03 0.  1.
         12    1    3    3    0    0  0.16557501477E+02 -0.12031481078E+01 -0.39451411298E+02  0.42802012498E+02  0.00000000000E+00 0. -1.
</event>
<event>
 7    1  0.7313719E-013  0.5930194E+02  0.7816164E-02  0.1266605E+00
        -11   -1    0    0    0    0  0.00000000000E+00  0.00000000000E+00  0.45593999997E+02  0.45594000000E+02  0.51100000000E-03 0.  1.
         11   -1    0    0    0    0 -0.00000000000E+00 -0.00000000000E+00 -0.45593999997E+02  0.45594000000E+02  0.51100000000E-03 0. -1.
    9900012    2    1    2    0    0 -0.45736618799E+01  0.38191404315E+01 -0.31324373891E+02  0.59301943231E+02  0.49999998547E+02 0.  0.
        -12    1    1    2    0    0  0.45736618799E+01 -0.38191404315E+01  0.31324373891E+02  0.31886056769E+02  0.00000000000E+00 0.  1.
         11    1    3    3    0    0  0.16163909618E+02  0.25530611514E+01 -0.14953141019E+02  0.22167239837E+02  0.51100000000E-03 0. -1.
        -11    1    3    3    0    0 -0.62855791816E+01 -0.11564518224E+02 -0.26320441608E+01  0.13422899990E+02  0.51100000000E-03 0.  1.
         12    1    3    3    0    0 -0.14451992317E+02  0.12830597504E+02 -0.13739188711E+02  0.23711803404E+02  0.00000000000E+00 0. -1.
</event>
<event>
 7    1  0.7313719E-013  0.5930190E+02  0.7816164E-02  0.1266605E+00
        -11   -1    0    0    0    0  0.00000000000E+00  0.00000000000E+00  0.45593999997E+02  0.45594000000E+02  0.51100000000E-03 0. -1.
         11   -1    0    0    0    0 -0.00000000000E+00 -0.00000000000E+00 -0.45593999997E+02  0.45594000000E+02  0.51100000000E-03 0.  1.
    9900012    2    1    2    0    0  0.12797163421E+02 -0.28555331902E+02  0.61277052200E+01  0.59301903611E+02  0.49999926290E+02 0.  0.
        -12    1    1    2    0    0 -0.12797163421E+02  0.28555331902E+02 -0.61277052200E+01  0.31886096389E+02  0.00000000000E+00 0.  1.
         11    1    3    3    0    0 -0.46398465625E+01 -0.18228077387E+02  0.55393473716E+01  0.19608043016E+02  0.51100000000E-03 0. -1.
        -11    1    3    3    0    0 -0.55814595383E+01  0.77626159052E+01 -0.33996247854E+01  0.10147331926E+02  0.51100000000E-03 0.  1.
        -12    1    3    3    0    0  0.23018469522E+02 -0.18089870419E+02  0.39879826337E+01  0.29546528670E+02  0.00000000000E+00 0.  1.
</event>
<event>
 7    1  0.7313719E-013  0.5930186E+02  0.7816164E-02  0.1266605E+00
        -11   -1    0    0    0    0  0.00000000000E+00  0.00000000000E+00  0.45593999997E+02  0.45594000000E+02  0.51100000000E-03 0.  1.
         11   -1    0    0    0    0 -0.00000000000E+00 -0.00000000000E+00 -0.45593999997E+02  0.45594000000E+02  0.51100000000E-03 0. -1.
    9900012    2    1    2    0    0  0.25061708282E+02 -0.80265972233E+01 -0.18005846224E+02  0.59301859073E+02  0.49999845063E+02 0.  0.
        -12    1    1    2    0    0 -0.25061708282E+02  0.80265972233E+01  0.18005846224E+02  0.31886140927E+02  0.00000000000E+00 0.  1.
         11    1    3    3    0    0  0.64579614716E+00  0.22636942775E+01 -0.85145875204E+01  0.88340005292E+01  0.51100000000E-03 0. -1.
        -11    1    3    3    0    0 -0.68717700851E+01  0.93764086813E+01 -0.66758436939E+01  0.13405415068E+02  0.51100000000E-03 0.  1.
         12    1    3    3    0    0  0.31287682220E+02 -0.19666700182E+02 -0.28154150092E+01  0.37062443476E+02  0.00000000000E+00 0. -1.
</event>
<event>
 7    1  0.7313719E-013  0.5930193E+02  0.7816164E-02  0.1266605E+00
        -11   -1    0    0    0    0  0.00000000000E+00  0.00000000000E+00  0.45593999997E+02  0.45594000000E+02  0.51100000000E-03 0. -1.
         11   -1    0    0    0    0 -0.00000000000E+00 -0.00000000000E+00 -0.45593999997E+02  0.45594000000E+02  0.51100000000E-03 0.  1.
    9900012    2    1    2    0    0  0.55888442298E+01  0.22293526739E+02  0.22101693542E+02  0.59301931386E+02  0.49999976944E+02 0.  0.
        -12    1    1    2    0    0 -0.55888442298E+01 -0.22293526739E+02 -0.22101693542E+02  0.31886068614E+02  0.00000000000E+00 0.  1.
         11    1    3    3    0    0  0.38590326397E+01  0.60665718804E+01  0.11686090693E+02  0.13720792369E+02  0.51100000000E-03 0. -1.
        -11    1    3    3    0    0 -0.12201930993E+01  0.14126165876E+02 -0.14572404003E+02  0.20332053321E+02  0.51100000000E-03 0.  1.
         12    1    3    3    0    0  0.29500046894E+01  0.21007889824E+01  0.24988006852E+02  0.25249085696E+02  0.00000000000E+00 0. -1.
</event>
<event>
 7    1  0.7313719E-013  0.5930193E+02  0.7816164E-02  0.1266605E+00
        -11   -1    0    0    0    0  0.00000000000E+00  0.00000000000E+00  0.45593999997E+02  0.45594000000E+02  0.51100000000E-03 0. -1.
         11   -1    0    0    0    0 -0.00000000000E+00 -0.00000000000E+00 -0.45593999997E+02  0.45594000000E+02  0.51100000000E-03 0.  1.
    9900012    2    1    2    0    0  0.21720349462E+02 -0.21749519174E+02  0.84797665813E+01  0.59301927706E+02  0.49999970233E+02 0.  0.
        -12    1    1    2    0    0 -0.21720349462E+02  0.21749519174E+02 -0.84797665813E+01  0.31886072294E+02  0.00000000000E+00 0.  1.
         11    1    3    3    0    0 -0.11640056946E+02 -0.49331934762E+01  0.67721534738E+01  0.14341875278E+02  0.51100000000E-03 0. -1.
        -11    1    3    3    0    0  0.14648460745E+02 -0.14807261051E+02  0.11450013112E+02  0.23768365164E+02  0.51100000000E-03 0.  1.
         12    1    3    3    0    0  0.18711945663E+02 -0.20090646468E+01 -0.97424000046E+01  0.21191687264E+02  0.00000000000E+00 0. -1.
</event>
<event>
 7    1  0.7313719E-013  0.5930195E+02  0.7816164E-02  0.1266605E+00
        -11   -1    0    0    0    0  0.00000000000E+00  0.00000000000E+00  0.45593999997E+02  0.45594000000E+02  0.51100000000E-03 0.  1.
         11   -1    0    0    0    0 -0.00000000000E+00 -0.00000000000E+00 -0.45593999997E+02  0.45594000000E+02  0.51100000000E-03 0. -1.
    9900012    2    1    2    0    0  0.87010783641E+01  0.11817084706E+02 -0.28308446197E+02  0.59301946909E+02  0.50000005254E+02 0.  0.
        -12    1    1    2    0    0 -0.87010783641E+01 -0.11817084706E+02  0.28308446197E+02  0.31886053091E+02  0.00000000000E+00 0.  1.
         11    1    3    3    0    0  0.63070022476E+01  0.75670010760E+01 -0.91167698022E+01  0.13422118854E+02  0.51100000000E-03 0. -1.
        -11    1    3    3    0    0  0.19555381366E+02  0.11820448270E+02 -0.92544474026E+01  0.24653209419E+02  0.51100000000E-03 0.  1.
        -12    1    3    3    0    0 -0.17161305250E+02 -0.75703646397E+01 -0.99372289922E+01  0.21226618636E+02  0.00000000000E+00 0.  1.
</event>
<event>
 7    1  0.7313719E-013  0.5930209E+02  0.7816164E-02  0.1266604E+00
        -11   -1    0    0    0    0  0.00000000000E+00  0.00000000000E+00  0.45593999997E+02  0.45594000000E+02  0.51100000000E-03 0.  1.
         11   -1    0    0    0    0 -0.00000000000E+00 -0.00000000000E+00 -0.45593999997E+02  0.45594000000E+02  0.51100000000E-03 0. -1.
    9900012    2    1    2    0    0 -0.18760171066E+02 -0.10816680067E+02 -0.23404418008E+02  0.59302088246E+02  0.50000263019E+02 0.  0.
        -12    1    1    2    0    0  0.18760171066E+02  0.10816680067E+02  0.23404418008E+02  0.31885911754E+02  0.00000000000E+00 0.  1.
         11    1    3    3    0    0  0.61217675671E+01  0.58221676421E+01 -0.16887648246E+02  0.18882964220E+02  0.51100000000E-03 0. -1.
        -11    1    3    3    0    0 -0.99782489430E+01  0.68265929871E+01 -0.21614599667E+01  0.12281682834E+02  0.51100000000E-03 0.  1.
         12    1    3    3    0    0 -0.14903689690E+02 -0.23465440696E+02 -0.43553097955E+01  0.28137441192E+02  0.00000000000E+00 0. -1.
</event>
<event>
 7    1  0.7313719E-013  0.5930196E+02  0.7816164E-02  0.1266605E+00
        -11   -1    0    0    0    0  0.00000000000E+00  0.00000000000E+00  0.45593999997E+02  0.45594000000E+02  0.51100000000E-03 0. -1.
         11   -1    0    0    0    0 -0.00000000000E+00 -0.00000000000E+00 -0.45593999997E+02  0.45594000000E+02  0.51100000000E-03 0.  1.
    9900012    2    1    2    0    0  0.36103901985E+01  0.10406845273E+02  0.29922940383E+02  0.59301957488E+02  0.50000024549E+02 0.  0.
        -12    1    1    2    0    0 -0.36103901985E+01 -0.10406845273E+02 -0.29922940383E+02  0.31886042512E+02  0.00000000000E+00 0.  1.
         11    1    3    3    0    0 -0.10894269905E+02  0.66147546171E+01  0.27633591660E+02  0.30431159750E+02  0.51100000000E-03 0. -1.
        -11    1    3    3    0    0  0.16450064380E+01 -0.10786990273E+00  0.12113174841E+02  0.12224838939E+02  0.51100000000E-03 0.  1.
        -12    1    3    3    0    0  0.12859653666E+02  0.38999605581E+01 -0.98238261180E+01  0.16645958800E+02  0.00000000000E+00 0.  1.
</event>
<event>
 7    1  0.7313719E-013  0.5930188E+02  0.7816164E-02  0.1266605E+00
        -11   -1    0    0    0    0  0.00000000000E+00  0.00000000000E+00  0.45593999997E+02  0.45594000000E+02  0.51100000000E-03 0. -1.
         11   -1    0    0    0    0 -0.00000000000E+00 -0.00000000000E+00 -0.45593999997E+02  0.45594000000E+02  0.51100000000E-03 0.  1.
    9900012    2    1    2    0    0  0.24256691667E+02  0.37278123927E+01  0.20357820683E+02  0.59301881722E+02  0.49999886369E+02 0.  0.
        -12    1    1    2    0    0 -0.24256691667E+02 -0.37278123927E+01 -0.20357820683E+02  0.31886118278E+02  0.00000000000E+00 0.  1.
         11    1    3    3    0    0  0.10090984358E+02  0.29718241214E+01  0.19887133967E+01  0.10705824824E+02  0.51100000000E-03 0. -1.
        -11    1    3    3    0    0  0.21824600668E+02 -0.15563214585E+02  0.89737571110E+01  0.28267563735E+02  0.51100000000E-03 0.  1.
        -12    1    3    3    0    0 -0.76588933588E+01  0.16319202857E+02  0.93953501756E+01  0.20328493163E+02  0.00000000000E+00 0.  1.
</event>
<event>
 7    1  0.7313719E-013  0.5930195E+02  0.7816164E-02  0.1266605E+00
        -11   -1    0    0    0    0  0.00000000000E+00  0.00000000000E+00  0.45593999997E+02  0.45594000000E+02  0.51100000000E-03 0.  1.
         11   -1    0    0    0    0 -0.00000000000E+00 -0.00000000000E+00 -0.45593999997E+02  0.45594000000E+02  0.51100000000E-03 0. -1.
    9900012    2    1    2    0    0 -0.20702643336E+02  0.18716375480E+02 -0.15421348858E+02  0.59301950499E+02  0.50000011802E+02 0.  0.
        -12    1    1    2    0    0  0.20702643336E+02 -0.18716375480E+02  0.15421348858E+02  0.31886049501E+02  0.00000000000E+00 0.  1.
         11    1    3    3    0    0  0.86058356017E+01  0.11653293589E+01 -0.15801880913E+02  0.18031024363E+02  0.51100000000E-03 0. -1.
        -11    1    3    3    0    0 -0.24156257164E+02  0.21515112131E+01 -0.36873353804E+01  0.24530597284E+02  0.51100000000E-03 0.  1.
        -12    1    3    3    0    0 -0.51522217739E+01  0.15399534908E+02  0.40678674362E+01  0.16740328851E+02  0.00000000000E+00 0.  1.
</event>
<event>
 7    1  0.7313719E-013  0.5930194E+02  0.7816164E-02  0.1266605E+00
        -11   -1    0    0    0    0  0.00000000000E+00  0.00000000000E+00  0.45593999997E+02  0.45594000000E+02  0.51100000000E-03 0.  1.
         11   -1    0    0    0    0 -0.00000000000E+00 -0.00000000000E+00 -0.45593999997E+02  0.45594000000E+02  0.51100000000E-03 0. -1.
    9900012    2    1    2    0    0  0.17388374509E+02  0.30297837496E+01 -0.26555333575E+02  0.59301938799E+02  0.49999990464E+02 0.  0.
        -12    1    1    2    0    0 -0.17388374509E+02 -0.30297837496E+01  0.26555333575E+02  0.31886061201E+02  0.00000000000E+00 0.  1.
         11    1    3    3    0    0  0.71037275838E+00 -0.33591521909E+01  0.70500258055E+01  0.78416450453E+01  0.51100000000E-03 0. -1.
        -11    1    3    3    0    0 -0.77388007988E+01 -0.75032173884E+01 -0.76983158357E+01  0.13245805976E+02  0.51100000000E-03 0.  1.
         12    1    3    3    0    0  0.24416802550E+02  0.13892153329E+02 -0.25907043545E+02  0.38214487778E+02  0.00000000000E+00 0. -1.
</event>
<event>
 7    1  0.7313719E-013  0.5930195E+02  0.7816164E-02  0.1266605E+00
        -11   -1    0    0    0    0  0.00000000000E+00  0.00000000000E+00  0.45593999997E+02  0.45594000000E+02  0.51100000000E-03 0. -1.
         11   -1    0    0    0    0 -0.00000000000E+00 -0.00000000000E+00 -0.45593999997E+02  0.45594000000E+02  0.51100000000E-03 0.  1.
    9900012    2    1    2    0    0  0.21087132244E+02 -0.13336400670E+02  0.19854303841E+02  0.59301951168E+02  0.50000013022E+02 0.  0.
        -12    1    1    2    0    0 -0.21087132244E+02  0.13336400670E+02 -0.19854303841E+02  0.31886048832E+02  0.00000000000E+00 0.  1.
         11    1    3    3    0    0  0.15035481594E+02 -0.21136300909E+01  0.52213370721E+01  0.16056011335E+02  0.51100000000E-03 0. -1.
        -11    1    3    3    0    0  0.11572439547E+02 -0.23614962317E+02  0.54304236758E+01  0.26852882599E+02  0.51100000000E-03 0.  1.
        -12    1    3    3    0    0 -0.55207888969E+01  0.12392191737E+02  0.92025430931E+01  0.16393057234E+02  0.00000000000E+00 0.  1.
</event>
<event>
 7    1  0.7313719E-013  0.5930194E+02  0.7816164E-02  0.1266605E+00
        -11   -1    0    0    0    0  0.00000000000E+00  0.00000000000E+00  0.45593999997E+02  0.45594000000E+02  0.51100000000E-03 0.  1.
         11   -1    0    0    0    0 -0.00000000000E+00 -0.00000000000E+00 -0.45593999997E+02  0.45594000000E+02  0.51100000000E-03 0. -1.
    9900012    2    1    2    0    0 -0.24481240583E+02  0.19458577587E+02 -0.62252502611E+01  0.59301935285E+02  0.49999984056E+02 0.  0.
        -12    1    1    2    0    0  0.24481240583E+02 -0.19458577587E+02  0.62252502611E+01  0.31886064715E+02  0.00000000000E+00 0.  1.
         11    1    3    3    0    0 -0.10210474611E+02  0.24309005169E+02 -0.13940136071E+02  0.29824636092E+02  0.51100000000E-03 0. -1.
        -11    1    3    3    0    0 -0.33229175291E+01  0.82715394486E+01 -0.28830204359E+01  0.93686686807E+01  0.51100000000E-03 0.  1.
        -12    1    3    3    0    0 -0.10947848443E+02 -0.13121967031E+02  0.10597906245E+02  0.20108630513E+02  0.00000000000E+00 0.  1.
</event>
<event>
 7    1  0.7313719E-013  0.5930198E+02  0.7816164E-02  0.1266605E+00
        -11   -1    0    0    0    0  0.00000000000E+00  0.00000000000E+00  0.45593999997E+02  0.45594000000E+02  0.51100000000E-03 0.  1.
         11   -1    0    0    0    0 -0.00000000000E+00 -0.00000000000E+00 -0.45593999997E+02  0.45594000000E+02  0.51100000000E-03 0. -1.
    9900012    2    1    2    0    0  0.26187722544E+02 -0.11596977865E+02 -0.14015398039E+02  0.59301982848E+02  0.50000070799E+02 0.  0.
        -12    1    1    2    0    0 -0.26187722544E+02  0.11596977865E+02  0.14015398039E+02  0.31886017152E+02  0.00000000000E+00 0.  1.
         11    1    3    3    0    0  0.19591832640E+02  0.41620676621E+01 -0.19856451615E+02  0.28203570420E+02  0.51100000000E-03 0. -1.
        -11    1    3    3    0    0  0.77348088559E+01 -0.16326152919E+02 -0.61167199370E+01  0.19073143427E+02  0.51100000000E-03 0.  1.
        -12    1    3    3    0    0 -0.11389189526E+01  0.56710739188E+00  0.11957773512E+02  0.12025269001E+02  0.00000000000E+00 0.  1.
</event>
<event>
 7    1  0.7313719E-013  0.5930196E+02  0.7816164E-02  0.1266605E+00
        -11   -1    0    0    0    0  0.00000000000E+00  0.00000000000E+00  0.45593999997E+02  0.45594000000E+02  0.51100000000E-03 0. -1.
         11   -1    0    0    0    0 -0.00000000000E+00 -0.00000000000E+00 -0.45593999997E+02  0.45594000000E+02  0.51100000000E-03 0.  1.
    9900012    2    1    2    0    0  0.10632183721E+02  0.22521005504E+01  0.29976732931E+02  0.59301955956E+02  0.50000021755E+02 0.  0.
        -12    1    1    2    0    0 -0.10632183721E+02 -0.22521005504E+01 -0.29976732931E+02  0.31886044044E+02  0.00000000000E+00 0.  1.
         11    1    3    3    0    0 -0.20145222634E+01 -0.12748751196E+02  0.42919770437E+01  0.13601839001E+02  0.51100000000E-03 0. -1.
        -11    1    3    3    0    0  0.11334896005E+02 -0.20316928037E+01 -0.33672765185E+01  0.11997757895E+02  0.51100000000E-03 0.  1.
        -12    1    3    3    0    0  0.13118099785E+01  0.17032544550E+02  0.29052032406E+02  0.33702359060E+02  0.00000000000E+00 0.  1.
</event>
<event>
 7    1  0.7313719E-013  0.5930195E+02  0.7816164E-02  0.1266605E+00
        -11   -1    0    0    0    0  0.00000000000E+00  0.00000000000E+00  0.45593999997E+02  0.45594000000E+02  0.51100000000E-03 0.  1.
         11   -1    0    0    0    0 -0.00000000000E+00 -0.00000000000E+00 -0.45593999997E+02  0.45594000000E+02  0.51100000000E-03 0. -1.
    9900012    2    1    2    0    0  0.25572918325E+02 -0.13057285349E+00 -0.19045450647E+02  0.59301946759E+02  0.50000004981E+02 0.  0.
        -12    1    1    2    0    0 -0.25572918325E+02  0.13057285349E+00  0.19045450647E+02  0.31886053241E+02  0.00000000000E+00 0.  1.
         11    1    3    3    0    0 -0.99906287677E+01  0.22935595298E+01 -0.13817387281E+02  0.17204454947E+02  0.51100000000E-03 0. -1.
        -11    1    3    3    0    0  0.13784791492E+01  0.23476874041E+01  0.53445933921E+01  0.59980429892E+01  0.51100000000E-03 0.  1.
        -12    1    3    3    0    0  0.34185067944E+02 -0.47718197873E+01 -0.10572656758E+02  0.36099448823E+02  0.00000000000E+00 0.  1.
</event>
<event>
 7    1  0.7313719E-013  0.5930193E+02  0.7816164E-02  0.1266605E+00
        -11   -1    0    0    0    0  0.00000000000E+00  0.00000000000E+00  0.45593999997E+02  0.45594000000E+02  0.51100000000E-03 0. -1.
         11   -1    0    0    0    0 -0.00000000000E+00 -0.00000000000E+00 -0.45593999997E+02  0.45594000000E+02  0.51100000000E-03 0.  1.
    9900012    2    1    2    0    0 -0.93179709861E+01 -0.15420672283E+02  0.26307790554E+02  0.59301928421E+02  0.49999971536E+02 0.  0.
        -12    1    1    2    0    0  0.93179709861E+01  0.15420672283E+02 -0.26307790554E+02  0.31886071579E+02  0.00000000000E+00 0.  1.
         11    1    3    3    0    0 -0.20216914418E+02 -0.10908968372E+02  0.73486304110E+01  0.24119112519E+02  0.51100000000E-03 0. -1.
        -11    1    3    3    0    0 -0.83000353258E+01 -0.19885938839E+01  0.69318727876E+00  0.85630368976E+01  0.51100000000E-03 0.  1.
         12    1    3    3    0    0  0.19198978758E+02 -0.25231100277E+01  0.18265972864E+02  0.26619779004E+02  0.00000000000E+00 0. -1.
</event>
<event>
 7    1  0.7313719E-013  0.5930196E+02  0.7816164E-02  0.1266605E+00
        -11   -1    0    0    0    0  0.00000000000E+00  0.00000000000E+00  0.45593999997E+02  0.45594000000E+02  0.51100000000E-03 0.  1.
         11   -1    0    0    0    0 -0.00000000000E+00 -0.00000000000E+00 -0.45593999997E+02  0.45594000000E+02  0.51100000000E-03 0. -1.
    9900012    2    1    2    0    0  0.14789669564E+02  0.22787825377E+02 -0.16694324109E+02  0.59301956522E+02  0.50000022786E+02 0.  0.
        -12    1    1    2    0    0 -0.14789669564E+02 -0.22787825377E+02  0.16694324109E+02  0.31886043478E+02  0.00000000000E+00 0.  1.
         11    1    3    3    0    0  0.10762034550E+02 -0.65107103977E+01 -0.12043062601E+02  0.17413962634E+02  0.51100000000E-03 0. -1.
        -11    1    3    3    0    0  0.13554561354E+02  0.10996859786E+02  0.62657762090E+01  0.18544999607E+02  0.51100000000E-03 0.  1.
        -12    1    3    3    0    0 -0.95269263404E+01  0.18301675989E+02 -0.10917037717E+02  0.23342994281E+02  0.00000000000E+00 0.  1.
</event>
<event>
 7    1  0.7313719E-013  0.5930196E+02  0.7816164E-02  0.1266605E+00
        -11   -1    0    0    0    0  0.00000000000E+00  0.00000000000E+00  0.45593999997E+02  0.45594000000E+02  0.51100000000E-03 0. -1.
         11   -1    0    0    0    0 -0.00000000000E+00 -0.00000000000E+00 -0.45593999997E+02  0.45594000000E+02  0.51100000000E-03 0.  1.
    9900012    2    1    2    0    0 -0.63565672154E+01 -0.31245530294E+02  0.17440169073E+00  0.59301960327E+02  0.50000029726E+02 0.  0.
        -12    1    1    2    0    0  0.63565672154E+01  0.31245530294E+02 -0.17440169073E+00  0.31886039673E+02  0.00000000000E+00 0.  1.
         11    1    3    3    0    0 -0.44972092582E+01  0.27389710736E+01 -0.16260160598E+01  0.55109692561E+01  0.51100000000E-03 0. -1.
        -11    1    3    3    0    0  0.25947789014E+01  0.65526414747E+01 -0.91649341819E+01  0.11561401587E+02  0.51100000000E-03 0.  1.
         12    1    3    3    0    0 -0.44541368587E+01 -0.40537142842E+02  0.10965351932E+02  0.42229589483E+02  0.00000000000E+00 0. -1.
</event>
<event>
 7    1  0.7313719E-013  0.5930197E+02  0.7816164E-02  0.1266605E+00
        -11   -1    0    0    0    0  0.00000000000E+00  0.00000000000E+00  0.45593999997E+02  0.45594000000E+02  0.51100000000E-03 0.  1.
         11   -1    0    0    0    0 -0.00000000000E+00 -0.00000000000E+00 -0.45593999997E+02  0.45594000000E+02  0.51100000000E-03 0. -1.
    9900012    2    1    2    0    0  0.25628319858E+01 -0.22175423869E+02 -0.22768435201E+02  0.59301965862E+02  0.50000039821E+02 0.  0.
        -12    1    1    2    0    0 -0.25628319858E+01  0.22175423869E+02  0.22768435201E+02  0.31886034138E+02  0.00000000000E+00 0.  1.
         11    1    3    3    0    0 -0.52716649750E+01 -0.90736045331E+00 -0.55297308405E+01  0.76936128074E+01  0.51100000000E-03 0. -1.
        -11    1    3    3    0    0 -0.12246288270E+02 -0.11482410054E+02 -0.23060682129E+02  0.28523891347E+02  0.51100000000E-03 0.  1.
        -12    1    3    3    0    0  0.20080785231E+02 -0.97856533610E+01  0.58219777690E+01  0.23084461708E+02  0.00000000000E+00 0.  1.
</event>
<event>
 7    1  0.7313719E-013  0.5930194E+02  0.7816164E-02  0.1266605E+00
        -11   -1    0    0    0    0  0.00000000000E+00  0.00000000000E+00  0.45593999997E+02  0.45594000000E+02  0.51100000000E-03 0. -1.
         11   -1    0    0    0    0 -0.00000000000E+00 -0.00000000000E+00 -0.45593999997E+02  0.45594000000E+02  0.51100000000E-03 0.  1.
    9900012    2    1    2    0    0  0.18548137641E+02  0.13398492426E+02  0.22207377780E+02  0.59301942904E+02  0.49999997951E+02 0.  0.
        -12    1    1    2    0    0 -0.18548137641E+02 -0.13398492426E+02 -0.22207377780E+02  0.31886057096E+02  0.00000000000E+00 0.  1.
         11    1    3    3    0    0  0.12005265027E+02  0.45880912007E+01  0.15962153242E+02  0.20493103855E+02  0.51100000000E-03 0. -1.
        -11    1    3    3    0    0 -0.70028218154E+00  0.18655711745E+02  0.14855290552E+02  0.23858030797E+02  0.51100000000E-03 0.  1.
        -12    1    3    3    0    0  0.72431547953E+01 -0.98453105199E+01 -0.86100660142E+01  0.14950808252E+02  0.00000000000E+00 0.  1.
</event>
<event>
 7    1  0.7313719E-013  0.5930224E+02  0.7816164E-02  0.1266604E+00
        -11   -1    0    0    0    0  0.00000000000E+00  0.00000000000E+00  0.45593999997E+02  0.45594000000E+02  0.51100000000E-03 0.  1.
         11   -1    0    0    0    0 -0.00000000000E+00 -0.00000000000E+00 -0.45593999997E+02  0.45594000000E+02  0.51100000000E-03 0. -1.
    9900012    2    1    2    0    0  0.12017347113E+02  0.57011228321E+00 -0.29528964745E+02  0.59302244268E+02  0.50000547564E+02 0.  0.
        -12    1    1    2    0    0 -0.12017347113E+02 -0.57011228321E+00  0.29528964745E+02  0.31885755732E+02  0.00000000000E+00 0.  1.
         11    1    3    3    0    0 -0.58327333806E+01  0.99752123886E+01 -0.23485524553E+02  0.26174329117E+02  0.51100000000E-03 0. -1.
        -11    1    3    3    0    0  0.15184945330E+02  0.64305681321E+01 -0.24369194386E+01  0.16669533521E+02  0.51100000000E-03 0.  1.
        -12    1    3    3    0    0  0.26651351633E+01 -0.15835668237E+02 -0.36065207533E+01  0.16458381631E+02  0.00000000000E+00 0.  1.
</event>
<event>
 7    1  0.7313719E-013  0.5930194E+02  0.7816164E-02  0.1266605E+00
        -11   -1    0    0    0    0  0.00000000000E+00  0.00000000000E+00  0.45593999997E+02  0.45594000000E+02  0.51100000000E-03 0.  1.
         11   -1    0    0    0    0 -0.00000000000E+00 -0.00000000000E+00 -0.45593999997E+02  0.45594000000E+02  0.51100000000E-03 0. -1.
    9900012    2    1    2    0    0  0.89834259406E+01 -0.42614706477E+01 -0.30296180768E+02  0.59301942814E+02  0.49999997787E+02 0.  0.
        -12    1    1    2    0    0 -0.89834259406E+01  0.42614706477E+01  0.30296180768E+02  0.31886057186E+02  0.00000000000E+00 0.  1.
         11    1    3    3    0    0 -0.78764453583E+01  0.61591952071E+01 -0.50210618335E+01  0.11188616504E+02  0.51100000000E-03 0. -1.
        -11    1    3    3    0    0  0.10016526729E+01  0.75498856219E+01  0.52892611196E+01  0.92725597562E+01  0.51100000000E-03 0.  1.
         12    1    3    3    0    0  0.15858218626E+02 -0.17970551477E+02 -0.30564380054E+02  0.38840766554E+02  0.00000000000E+00 0. -1.
</event>
<event>
 7    1  0.7313719E-013  0.5930193E+02  0.7816164E-02  0.1266605E+00
        -11   -1    0    0    0    0  0.00000000000E+00  0.00000000000E+00  0.45593999997E+02  0.45594000000E+02  0.51100000000E-03 0. -1.
         11   -1    0    0    0    0 -0.00000000000E+00 -0.00000000000E+00 -0.45593999997E+02  0.45594000000E+02  0.51100000000E-03 0.  1.
    9900012    2    1    2    0    0  0.73842347074E+01  0.29884991883E+02  0.83115584843E+01  0.59301926763E+02  0.49999968513E+02 0.  0.
        -12    1    1    2    0    0 -0.73842347074E+01 -0.29884991883E+02 -0.83115584843E+01  0.31886073237E+02  0.00000000000E+00 0.  1.
         11    1    3    3    0    0  0.11137048092E+02  0.97895824710E+01  0.55533374194E+01  0.15833803141E+02  0.51100000000E-03 0. -1.
        -11    1    3    3    0    0  0.17783252667E+00 -0.88350803447E+01  0.10042439838E+02  0.13376878084E+02  0.51100000000E-03 0.  1.
        -12    1    3    3    0    0 -0.39306459116E+01  0.28930489757E+02 -0.72842187735E+01  0.30091245537E+02  0.00000000000E+00 0.  1.
</event>
<event>
 7    1  0.7313719E-013  0.5930193E+02  0.7816164E-02  0.1266605E+00
        -11   -1    0    0    0    0  0.00000000000E+00  0.00000000000E+00  0.45593999997E+02  0.45594000000E+02  0.51100000000E-03 0. -1.
         11   -1    0    0    0    0 -0.00000000000E+00 -0.00000000000E+00 -0.45593999997E+02  0.45594000000E+02  0.51100000000E-03 0.  1.
    9900012    2    1    2    0    0  0.29427907389E+02  0.10505841844E+02 -0.63519508655E+01  0.59301925831E+02  0.49999966813E+02 0.  0.
        -12    1    1    2    0    0 -0.29427907389E+02 -0.10505841844E+02  0.63519508655E+01  0.31886074169E+02  0.00000000000E+00 0.  1.
         11    1    3    3    0    0  0.38400984338E+01  0.15966709708E+02  0.92828759903E+01  0.18864091862E+02  0.51100000000E-03 0. -1.
        -11    1    3    3    0    0  0.19320444540E+02  0.53865386909E+00  0.33021166053E+01  0.19608000907E+02  0.51100000000E-03 0.  1.
        -12    1    3    3    0    0  0.62673644144E+01 -0.59995217324E+01 -0.18936943461E+02  0.20829833062E+02  0.00000000000E+00 0.  1.
</event>
<event>
 7    1  0.7313719E-013  0.5930193E+02  0.7816164E-02  0.1266605E+00
        -11   -1    0    0    0    0  0.00000000000E+00  0.00000000000E+00  0.45593999997E+02  0.45594000000E+02  0.51100000000E-03 0. -1.
         11   -1    0    0    0    0 -0.00000000000E+00 -0.00000000000E+00 -0.45593999997E+02  0.45594000000E+02  0.51100000000E-03 0.  1.
    9900012    2    1    2    0    0 -0.76298736266E+01 -0.30783166335E+02  0.33020071507E+01  0.59301928552E+02  0.49999971776E+02 0.  0.
        -12    1    1    2    0    0  0.76298736266E+01  0.30783166335E+02 -0.33020071507E+01  0.31886071448E+02  0.00000000000E+00 0.  1.
         11    1    3    3    0    0 -0.15856775404E+02 -0.19253264957E+02 -0.14558281473E+01  0.24984894908E+02  0.51100000000E-03 0. -1.
        -11    1    3    3    0    0  0.40703678850E+00 -0.86323668320E+01  0.17251949871E+02  0.19295419422E+02  0.51100000000E-03 0.  1.
        -12    1    3    3    0    0  0.78198649891E+01 -0.28975345461E+01 -0.12494114573E+02  0.15021614222E+02  0.00000000000E+00 0.  1.
</event>
<event>
 7    1  0.7313719E-013  0.5930194E+02  0.7816164E-02  0.1266605E+00
        -11   -1    0    0    0    0  0.00000000000E+00  0.00000000000E+00  0.45593999997E+02  0.45594000000E+02  0.51100000000E-03 0. -1.
         11   -1    0    0    0    0 -0.00000000000E+00 -0.00000000000E+00 -0.45593999997E+02  0.45594000000E+02  0.51100000000E-03 0.  1.
    9900012    2    1    2    0    0  0.25456995687E+02  0.61463707051E+01  0.18190230292E+02  0.59301937523E+02  0.49999988136E+02 0.  0.
        -12    1    1    2    0    0 -0.25456995687E+02 -0.61463707051E+01 -0.18190230292E+02  0.31886062477E+02  0.00000000000E+00 0.  1.
         11    1    3    3    0    0  0.92872481690E+01 -0.10935095642E+02 -0.45797065611E+01  0.15059980335E+02  0.51100000000E-03 0. -1.
        -11    1    3    3    0    0  0.10082145938E+02  0.15978201923E+02 -0.17306739592E+01  0.18972291270E+02  0.51100000000E-03 0.  1.
         12    1    3    3    0    0  0.60876015798E+01  0.11032644239E+01  0.24500610813E+02  0.25269665917E+02  0.00000000000E+00 0. -1.
</event>
<event>
 7    1  0.7313719E-013  0.5930162E+02  0.7816164E-02  0.1266606E+00
        -11   -1    0    0    0    0  0.00000000000E+00  0.00000000000E+00  0.45593999997E+02  0.45594000000E+02  0.51100000000E-03 0. -1.
         11   -1    0    0    0    0 -0.00000000000E+00 -0.00000000000E+00 -0.45593999997E+02  0.45594000000E+02  0.51100000000E-03 0.  1.
    9900012    2    1    2    0    0  0.27902511255E+02 -0.17479515429E+01  0.15334134695E+02  0.59301621156E+02  0.49999411156E+02 0.  0.
        -12    1    1    2    0    0 -0.27902511255E+02  0.17479515429E+01 -0.15334134695E+02  0.31886378844E+02  0.00000000000E+00 0.  1.
         11    1    3    3    0    0 -0.44824905122E+01 -0.32515452430E+01 -0.55269025043E+01  0.78238046507E+01  0.51100000000E-03 0. -1.
        -11    1    3    3    0    0  0.21936686195E+02  0.85914277492E+01 -0.37132491541E+01  0.23849927705E+02  0.51100000000E-03 0.  1.
         12    1    3    3    0    0  0.10448315573E+02 -0.70878340491E+01  0.24574286353E+02  0.27627888801E+02  0.00000000000E+00 0. -1.
</event>
<event>
 7    1  0.7313719E-013  0.5930194E+02  0.7816164E-02  0.1266605E+00
        -11   -1    0    0    0    0  0.00000000000E+00  0.00000000000E+00  0.45593999997E+02  0.45594000000E+02  0.51100000000E-03 0.  1.
         11   -1    0    0    0    0 -0.00000000000E+00 -0.00000000000E+00 -0.45593999997E+02  0.45594000000E+02  0.51100000000E-03 0. -1.
    9900012    2    1    2    0    0 -0.15139751577E+02 -0.20527419014E+01 -0.27987406989E+02  0.59301940709E+02  0.49999993948E+02 0.  0.
        -12    1    1    2    0    0  0.15139751577E+02  0.20527419014E+01  0.27987406989E+02  0.31886059291E+02  0.00000000000E+00 0.  1.
         11    1    3    3    0    0 -0.31163410671E+01 -0.71954682936E+01 -0.32060668019E+02  0.33005647694E+02  0.51100000000E-03 0. -1.
        -11    1    3    3    0    0  0.67701143200E+00  0.11649158864E+02  0.25590526481E+01  0.11946128972E+02  0.51100000000E-03 0.  1.
        -12    1    3    3    0    0 -0.12700421942E+02 -0.65064324715E+01  0.15142083823E+01  0.14350164042E+02  0.00000000000E+00 0.  1.
</event>
<event>
 7    1  0.7313719E-013  0.5930194E+02  0.7816164E-02  0.1266605E+00
        -11   -1    0    0    0    0  0.00000000000E+00  0.00000000000E+00  0.45593999997E+02  0.45594000000E+02  0.51100000000E-03 0.  1.
         11   -1    0    0    0    0 -0.00000000000E+00 -0.00000000000E+00 -0.45593999997E+02  0.45594000000E+02  0.51100000000E-03 0. -1.
    9900012    2    1    2    0    0  0.31515692521E+02  0.23686857208E+01 -0.42274107817E+01  0.59301944285E+02  0.50000000470E+02 0.  0.
        -12    1    1    2    0    0 -0.31515692521E+02 -0.23686857208E+01  0.42274107817E+01  0.31886055715E+02  0.00000000000E+00 0.  1.
         11    1    3    3    0    0  0.26835483478E+02 -0.12722399762E+02  0.27650505325E+01  0.29826969908E+02  0.51100000000E-03 0. -1.
        -11    1    3    3    0    0  0.95996719043E+00 -0.32995906275E+01  0.58170456156E+01  0.67562456491E+01  0.51100000000E-03 0.  1.
        -12    1    3    3    0    0  0.37202418524E+01  0.18390676110E+02 -0.12809506930E+02  0.22718728728E+02  0.00000000000E+00 0.  1.
</event>
<event>
 7    1  0.7313719E-013  0.5930180E+02  0.7816164E-02  0.1266605E+00
        -11   -1    0    0    0    0  0.00000000000E+00  0.00000000000E+00  0.45593999997E+02  0.45594000000E+02  0.51100000000E-03 0. -1.
         11   -1    0    0    0    0 -0.00000000000E+00 -0.00000000000E+00 -0.45593999997E+02  0.45594000000E+02  0.51100000000E-03 0.  1.
    9900012    2    1    2    0    0  0.13526463217E+02  0.26350604295E+02  0.11807219081E+02  0.59301796458E+02  0.49999730868E+02 0.  0.
        -12    1    1    2    0    0 -0.13526463217E+02 -0.26350604295E+02 -0.11807219081E+02  0.31886203542E+02  0.00000000000E+00 0.  1.
         11    1    3    3    0    0 -0.11832975405E+01 -0.34873539703E+01 -0.32992259075E+01  0.49443627125E+01  0.51100000000E-03 0. -1.
        -11    1    3    3    0    0  0.18409700653E+02 -0.51285265418E+00 -0.32404631987E+01  0.18699751281E+02  0.51100000000E-03 0.  1.
         12    1    3    3    0    0 -0.36999398954E+01  0.30350810919E+02  0.18346908187E+02  0.35657682464E+02  0.00000000000E+00 0. -1.
</event>
<event>
 7    1  0.1029534E-012  0.5930194E+02  0.7816164E-02  0.1266605E+00
        -11   -1    0    0    0    0  0.00000000000E+00  0.00000000000E+00  0.45593999997E+02  0.45594000000E+02  0.51100000000E-03 0. -1.
         11   -1    0    0    0    0 -0.00000000000E+00 -0.00000000000E+00 -0.45593999997E+02  0.45594000000E+02  0.51100000000E-03 0.  1.
    9900012    2    1    2    0    0  0.23390162562E+02 -0.14937748857E+02  0.15699830134E+02  0.59301941732E+02  0.49999995813E+02 0.  0.
        -12    1    1    2    0    0 -0.23390162562E+02  0.14937748857E+02 -0.15699830134E+02  0.31886058268E+02  0.00000000000E+00 0.  1.
         11    1    3    3    0    0  0.16980238594E+02 -0.17406149231E+02  0.78364064223E+01  0.25548224980E+02  0.51100000000E-03 0. -1.
        -11    1    3    3    0    0 -0.10167951485E+02 -0.40798783964E+01  0.11146733223E+02  0.15629533164E+02  0.51100000000E-03 0.  1.
         12    1    3    3    0    0  0.16577875453E+02  0.65482787704E+01 -0.32833095104E+01  0.18124183588E+02  0.00000000000E+00 0. -1.
</event>
<event>
 7    1  0.7313719E-013  0.5930190E+02  0.7816164E-02  0.1266605E+00
        -11   -1    0    0    0    0  0.00000000000E+00  0.00000000000E+00  0.45593999997E+02  0.45594000000E+02  0.51100000000E-03 0. -1.
         11   -1    0    0    0    0 -0.00000000000E+00 -0.00000000000E+00 -0.45593999997E+02  0.45594000000E+02  0.51100000000E-03 0.  1.
    9900012    2    1    2    0    0 -0.24567049590E+02 -0.39767506424E+01 -0.19934118996E+02  0.59301896892E+02  0.49999914036E+02 0.  0.
        -12    1    1    2    0    0  0.24567049590E+02  0.39767506424E+01  0.19934118996E+02  0.31886103108E+02  0.00000000000E+00 0.  1.
         11    1    3    3    0    0  0.48462160044E+01 -0.48470418616E+00 -0.11641366966E+02  0.12619119336E+02  0.51100000000E-03 0. -1.
        -11    1    3    3    0    0  0.28105814441E+01 -0.15197477839E+01 -0.13595608393E+02  0.13966014794E+02  0.51100000000E-03 0.  1.
         12    1    3    3    0    0 -0.32223847039E+02 -0.19722986724E+01  0.53028563639E+01  0.32716762762E+02  0.00000000000E+00 0. -1.
</event>
<event>
 7    1  0.7313719E-013  0.5930197E+02  0.7816164E-02  0.1266605E+00
        -11   -1    0    0    0    0  0.00000000000E+00  0.00000000000E+00  0.45593999997E+02  0.45594000000E+02  0.51100000000E-03 0.  1.
         11   -1    0    0    0    0 -0.00000000000E+00 -0.00000000000E+00 -0.45593999997E+02  0.45594000000E+02  0.51100000000E-03 0. -1.
    9900012    2    1    2    0    0 -0.14563514139E+02  0.15065606128E+01 -0.28325837336E+02  0.59301972813E+02  0.50000052497E+02 0.  0.
        -12    1    1    2    0    0  0.14563514139E+02 -0.15065606128E+01  0.28325837336E+02  0.31886027187E+02  0.00000000000E+00 0.  1.
         11    1    3    3    0    0 -0.51320376705E+01  0.10630769909E+02 -0.45871851490E+01  0.12664649516E+02  0.51100000000E-03 0. -1.
        -11    1    3    3    0    0 -0.10313578985E+01  0.92344620738E+00  0.10182294259E+02  0.10275970449E+02  0.51100000000E-03 0.  1.
         12    1    3    3    0    0 -0.84001185703E+01 -0.10047655504E+02 -0.33920946447E+02  0.36361352848E+02  0.00000000000E+00 0. -1.
</event>
<event>
 7    1  0.7313719E-013  0.5930187E+02  0.7816164E-02  0.1266605E+00
        -11   -1    0    0    0    0  0.00000000000E+00  0.00000000000E+00  0.45593999997E+02  0.45594000000E+02  0.51100000000E-03 0. -1.
         11   -1    0    0    0    0 -0.00000000000E+00 -0.00000000000E+00 -0.45593999997E+02  0.45594000000E+02  0.51100000000E-03 0.  1.
    9900012    2    1    2    0    0 -0.69936340563E+01 -0.35203980757E+01  0.30909886452E+02  0.59301871348E+02  0.49999867450E+02 0.  0.
        -12    1    1    2    0    0  0.69936340563E+01  0.35203980757E+01 -0.30909886452E+02  0.31886128652E+02  0.00000000000E+00 0.  1.
         11    1    3    3    0    0 -0.65595766925E+01  0.16716416754E+02  0.10025514195E+01  0.17985320266E+02  0.51100000000E-03 0.  1.
        -11    1    3    3    0    0 -0.43216923172E+01 -0.34045943367E+01 -0.12941850034E+01  0.56518317532E+01  0.51100000000E-03 0. -1.
         12    1    3    3    0    0  0.38876349534E+01 -0.16832220493E+02  0.31201520036E+02  0.35664719329E+02  0.00000000000E+00 0. -1.
</event>
<event>
 7    1  0.7313719E-013  0.5930195E+02  0.7816164E-02  0.1266605E+00
        -11   -1    0    0    0    0  0.00000000000E+00  0.00000000000E+00  0.45593999997E+02  0.45594000000E+02  0.51100000000E-03 0.  1.
         11   -1    0    0    0    0 -0.00000000000E+00 -0.00000000000E+00 -0.45593999997E+02  0.45594000000E+02  0.51100000000E-03 0. -1.
    9900012    2    1    2    0    0  0.19118124657E+02  0.21060654901E+02  0.14410631127E+02  0.59301950312E+02  0.50000011460E+02 0.  0.
        -12    1    1    2    0    0 -0.19118124657E+02 -0.21060654901E+02 -0.14410631127E+02  0.31886049688E+02  0.00000000000E+00 0.  1.
         11    1    3    3    0    0  0.52280966841E+01 -0.49763482565E+01  0.11627456128E+02  0.13685568062E+02  0.51100000000E-03 0. -1.
        -11    1    3    3    0    0  0.14030026637E+02 -0.17645126033E+01  0.94737624149E+01  0.17020791013E+02  0.51100000000E-03 0.  1.
         12    1    3    3    0    0 -0.13999866415E+00  0.27801515760E+02 -0.66905874156E+01  0.28595591237E+02  0.00000000000E+00 0. -1.
</event>
<event>
 7    1  0.7313719E-013  0.5930195E+02  0.7816164E-02  0.1266605E+00
        -11   -1    0    0    0    0  0.00000000000E+00  0.00000000000E+00  0.45593999997E+02  0.45594000000E+02  0.51100000000E-03 0.  1.
         11   -1    0    0    0    0 -0.00000000000E+00 -0.00000000000E+00 -0.45593999997E+02  0.45594000000E+02  0.51100000000E-03 0. -1.
    9900012    2    1    2    0    0  0.15099357129E+02  0.80195963948E+01 -0.26914966106E+02  0.59301954267E+02  0.50000018673E+02 0.  0.
        -12    1    1    2    0    0 -0.15099357129E+02 -0.80195963948E+01  0.26914966106E+02  0.31886045733E+02  0.00000000000E+00 0.  1.
         11    1    3    3    0    0  0.89073510545E+01  0.33277719635E+01  0.12069103939E+02  0.15364837754E+02  0.51100000000E-03 0. -1.
        -11    1    3    3    0    0  0.22894567729E+01  0.48636774723E+01 -0.66169382863E+00  0.54161619117E+01  0.51100000000E-03 0.  1.
         12    1    3    3    0    0  0.39025493013E+01 -0.17185304101E+00 -0.38322376216E+02  0.38520954601E+02  0.00000000000E+00 0. -1.
</event>
<event>
 7    1  0.7313719E-013  0.5930194E+02  0.7816164E-02  0.1266605E+00
        -11   -1    0    0    0    0  0.00000000000E+00  0.00000000000E+00  0.45593999997E+02  0.45594000000E+02  0.51100000000E-03 0.  1.
         11   -1    0    0    0    0 -0.00000000000E+00 -0.00000000000E+00 -0.45593999997E+02  0.45594000000E+02  0.51100000000E-03 0. -1.
    9900012    2    1    2    0    0  0.66157500578E+01  0.51645898879E+01 -0.30761663560E+02  0.59301935920E+02  0.49999985214E+02 0.  0.
        -12    1    1    2    0    0 -0.66157500578E+01 -0.51645898879E+01  0.30761663560E+02  0.31886064080E+02  0.00000000000E+00 0.  1.
         11    1    3    3    0    0  0.22091154186E+01  0.11529093568E+02 -0.23336542921E+02  0.26122680283E+02  0.51100000000E-03 0. -1.
        -11    1    3    3    0    0 -0.69503563865E+01 -0.72037647633E+01 -0.16034908977E+02  0.18902909481E+02  0.51100000000E-03 0.  1.
         12    1    3    3    0    0  0.11356991026E+02  0.83926108361E+00  0.86097883387E+01  0.14276346156E+02  0.00000000000E+00 0. -1.
</event>
<event>
 7    1  0.7313719E-013  0.5930192E+02  0.7816164E-02  0.1266605E+00
        -11   -1    0    0    0    0  0.00000000000E+00  0.00000000000E+00  0.45593999997E+02  0.45594000000E+02  0.51100000000E-03 0.  1.
         11   -1    0    0    0    0 -0.00000000000E+00 -0.00000000000E+00 -0.45593999997E+02  0.45594000000E+02  0.51100000000E-03 0. -1.
    9900012    2    1    2    0    0 -0.94277898655E+01  0.72742598263E+01 -0.29579114874E+02  0.59301919738E+02  0.49999955701E+02 0.  0.
        -12    1    1    2    0    0  0.94277898655E+01 -0.72742598263E+01  0.29579114874E+02  0.31886080262E+02  0.00000000000E+00 0.  1.
         11    1    3    3    0    0 -0.80713096562E+01 -0.60882059074E+01 -0.47040824631E+01  0.11150815343E+02  0.51100000000E-03 0. -1.
        -11    1    3    3    0    0 -0.13861812667E+02 -0.78401887900E+01 -0.55810850429E+01  0.16875038406E+02  0.51100000000E-03 0.  1.
         12    1    3    3    0    0  0.12505332457E+02  0.21202654524E+02 -0.19293947368E+02  0.31276065989E+02  0.00000000000E+00 0. -1.
</event>
<event>
 7    1  0.7313719E-013  0.5930196E+02  0.7816164E-02  0.1266605E+00
        -11   -1    0    0    0    0  0.00000000000E+00  0.00000000000E+00  0.45593999997E+02  0.45594000000E+02  0.51100000000E-03 0.  1.
         11   -1    0    0    0    0 -0.00000000000E+00 -0.00000000000E+00 -0.45593999997E+02  0.45594000000E+02  0.51100000000E-03 0. -1.
    9900012    2    1    2    0    0 -0.26744325128E+02 -0.15682719710E+02 -0.74507145249E+01  0.59301956486E+02  0.50000022720E+02 0.  0.
        -12    1    1    2    0    0  0.26744325128E+02  0.15682719710E+02  0.74507145249E+01  0.31886043514E+02  0.00000000000E+00 0.  1.
         11    1    3    3    0    0 -0.40664021143E+01 -0.15432540426E+02  0.10051496249E+02  0.18860845879E+02  0.51100000000E-03 0. -1.
        -11    1    3    3    0    0  0.39696596393E+01  0.76582586078E+01 -0.49105339019E+01  0.99257476302E+01  0.51100000000E-03 0.  1.
         12    1    3    3    0    0 -0.26647582653E+02 -0.79084378925E+01 -0.12591676872E+02  0.30515362977E+02  0.00000000000E+00 0. -1.
</event>
<event>
 7    1  0.7313719E-013  0.5930192E+02  0.7816164E-02  0.1266605E+00
        -11   -1    0    0    0    0  0.00000000000E+00  0.00000000000E+00  0.45593999997E+02  0.45594000000E+02  0.51100000000E-03 0.  1.
         11   -1    0    0    0    0 -0.00000000000E+00 -0.00000000000E+00 -0.45593999997E+02  0.45594000000E+02  0.51100000000E-03 0. -1.
    9900012    2    1    2    0    0  0.27816961952E+02 -0.10680450499E+02 -0.11351945289E+02  0.59301920640E+02  0.49999957347E+02 0.  0.
        -12    1    1    2    0    0 -0.27816961952E+02  0.10680450499E+02  0.11351945289E+02  0.31886079360E+02  0.00000000000E+00 0.  1.
         11    1    3    3    0    0  0.31788024987E+00  0.21492599359E+01 -0.13324284344E+01  0.25486725798E+01  0.51100000000E-03 0. -1.
        -11    1    3    3    0    0 -0.99934027353E+01  0.63375115406E+01 -0.85874206922E+01  0.14621078796E+02  0.51100000000E-03 0.  1.
         12    1    3    3    0    0  0.37492484437E+02 -0.19167221975E+02 -0.14320961625E+01  0.42132169264E+02  0.00000000000E+00 0. -1.
</event>
<event>
 7    1  0.7313719E-013  0.5930224E+02  0.7816164E-02  0.1266604E+00
        -11   -1    0    0    0    0  0.00000000000E+00  0.00000000000E+00  0.45593999997E+02  0.45594000000E+02  0.51100000000E-03 0.  1.
         11   -1    0    0    0    0 -0.00000000000E+00 -0.00000000000E+00 -0.45593999997E+02  0.45594000000E+02  0.51100000000E-03 0. -1.
    9900012    2    1    2    0    0  0.22302976872E+01  0.25526790232E+02 -0.18976577699E+02  0.59302239095E+02  0.50000538129E+02 0.  0.
        -12    1    1    2    0    0 -0.22302976872E+01 -0.25526790232E+02  0.18976577699E+02  0.31885760905E+02  0.00000000000E+00 0.  1.
         11    1    3    3    0    0 -0.17251360446E+02  0.10897846070E+01 -0.13374096721E+02  0.21855514890E+02  0.51100000000E-03 0. -1.
        -11    1    3    3    0    0 -0.39201829301E+01  0.20210711739E+01  0.60553487871E+00  0.44518800125E+01  0.51100000000E-03 0.  1.
         12    1    3    3    0    0  0.23401841063E+02  0.22415934451E+02 -0.62080158568E+01  0.32994844193E+02  0.00000000000E+00 0. -1.
</event>
<event>
 7    1  0.7313719E-013  0.5930194E+02  0.7816164E-02  0.1266605E+00
        -11   -1    0    0    0    0  0.00000000000E+00  0.00000000000E+00  0.45593999997E+02  0.45594000000E+02  0.51100000000E-03 0. -1.
         11   -1    0    0    0    0 -0.00000000000E+00 -0.00000000000E+00 -0.45593999997E+02  0.45594000000E+02  0.51100000000E-03 0.  1.
    9900012    2    1    2    0    0  0.16424698257E+02  0.81465069208E+01  0.26088012522E+02  0.59301942150E+02  0.49999996576E+02 0.  0.
        -12    1    1    2    0    0 -0.16424698257E+02 -0.81465069208E+01 -0.26088012522E+02  0.31886057850E+02  0.00000000000E+00 0.  1.
         11    1    3    3    0    0  0.15881090689E+02 -0.62752510374E+01  0.26632676031E+02  0.31636802144E+02  0.51100000000E-03 0. -1.
        -11    1    3    3    0    0  0.36298810281E+01  0.13475564353E+00  0.93390336405E+01  0.10020566100E+02  0.51100000000E-03 0.  1.
        -12    1    3    3    0    0 -0.30862734602E+01  0.14287002315E+02 -0.98836971493E+01  0.17644573907E+02  0.00000000000E+00 0.  1.
</event>
<event>
 7    1  0.7313719E-013  0.5930206E+02  0.7816164E-02  0.1266604E+00
        -11   -1    0    0    0    0  0.00000000000E+00  0.00000000000E+00  0.45593999997E+02  0.45594000000E+02  0.51100000000E-03 0.  1.
         11   -1    0    0    0    0 -0.00000000000E+00 -0.00000000000E+00 -0.45593999997E+02  0.45594000000E+02  0.51100000000E-03 0. -1.
    9900012    2    1    2    0    0  0.51778440978E+00  0.49171780845E+01 -0.31500260558E+02  0.59302060211E+02  0.50000211890E+02 0.  0.
        -12    1    1    2    0    0 -0.51778440978E+00 -0.49171780845E+01  0.31500260558E+02  0.31885939789E+02  0.00000000000E+00 0.  1.
         11    1    3    3    0    0 -0.63802347262E+01  0.93603671106E+00 -0.41500605094E+01  0.76685436935E+01  0.51100000000E-03 0.  1.
        -11    1    3    3    0    0 -0.56653460378E+01  0.20624851688E+02 -0.70230196143E+01  0.22512295699E+02  0.51100000000E-03 0. -1.
        -12    1    3    3    0    0  0.12563365174E+02 -0.16643710315E+02 -0.20327180434E+02  0.29121220818E+02  0.00000000000E+00 0.  1.
</event>
<event>
 7    1  0.7313719E-013  0.5930194E+02  0.7816164E-02  0.1266605E+00
        -11   -1    0    0    0    0  0.00000000000E+00  0.00000000000E+00  0.45593999997E+02  0.45594000000E+02  0.51100000000E-03 0.  1.
         11   -1    0    0    0    0 -0.00000000000E+00 -0.00000000000E+00 -0.45593999997E+02  0.45594000000E+02  0.51100000000E-03 0. -1.
    9900012    2    1    2    0    0  0.47049471026E+01 -0.17509459312E+02 -0.26229819806E+02  0.59301935023E+02  0.49999983578E+02 0.  0.
        -12    1    1    2    0    0 -0.47049471026E+01  0.17509459312E+02  0.26229819806E+02  0.31886064977E+02  0.00000000000E+00 0.  1.
         11    1    3    3    0    0 -0.72590329985E+00 -0.24104728814E+01  0.87948126108E+01  0.91480076647E+01  0.51100000000E-03 0. -1.
        -11    1    3    3    0    0  0.12065805324E+02  0.57985259131E+01 -0.90317543025E+01  0.16148657743E+02  0.51100000000E-03 0.  1.
         12    1    3    3    0    0 -0.66349549211E+01 -0.20897512344E+02 -0.25992878114E+02  0.34005269615E+02  0.00000000000E+00 0. -1.
</event>
<event>
 7    1  0.7313719E-013  0.5930194E+02  0.7816164E-02  0.1266605E+00
        -11   -1    0    0    0    0  0.00000000000E+00  0.00000000000E+00  0.45593999997E+02  0.45594000000E+02  0.51100000000E-03 0.  1.
         11   -1    0    0    0    0 -0.00000000000E+00 -0.00000000000E+00 -0.45593999997E+02  0.45594000000E+02  0.51100000000E-03 0. -1.
    9900012    2    1    2    0    0 -0.15053285705E+01  0.31609926579E+02 -0.39073400644E+01  0.59301940683E+02  0.49999993899E+02 0.  0.
        -12    1    1    2    0    0  0.15053285705E+01 -0.31609926579E+02  0.39073400644E+01  0.31886059317E+02  0.00000000000E+00 0.  1.
         11    1    3    3    0    0 -0.14315458654E+01 -0.99669753708E+00  0.93205232699E+01  0.94823459034E+01  0.51100000000E-03 0. -1.
        -11    1    3    3    0    0 -0.14160368623E+01  0.11478708481E+02  0.12147393019E+02  0.16772747724E+02  0.51100000000E-03 0.  1.
         12    1    3    3    0    0  0.13422541572E+01  0.21127915635E+02 -0.25375256353E+02  0.33046847055E+02  0.00000000000E+00 0. -1.
</event>
<event>
 7    1  0.7313719E-013  0.5930194E+02  0.7816164E-02  0.1266605E+00
        -11   -1    0    0    0    0  0.00000000000E+00  0.00000000000E+00  0.45593999997E+02  0.45594000000E+02  0.51100000000E-03 0. -1.
         11   -1    0    0    0    0 -0.00000000000E+00 -0.00000000000E+00 -0.45593999997E+02  0.45594000000E+02  0.51100000000E-03 0.  1.
    9900012    2    1    2    0    0  0.29411344861E+02  0.46110459447E+01  0.11420681305E+02  0.59301938582E+02  0.49999990069E+02 0.  0.
        -12    1    1    2    0    0 -0.29411344861E+02 -0.46110459447E+01 -0.11420681305E+02  0.31886061418E+02  0.00000000000E+00 0.  1.
         11    1    3    3    0    0 -0.89815343308E+00 -0.37342435239E+01  0.30668693001E+00  0.38529613831E+01  0.51100000000E-03 0. -1.
        -11    1    3    3    0    0 -0.12565060076E+01 -0.53173981925E+01 -0.12557498321E+02  0.13694681275E+02  0.51100000000E-03 0.  1.
         12    1    3    3    0    0  0.31566004302E+02  0.13662687661E+02  0.23671492695E+02  0.41754295925E+02  0.00000000000E+00 0. -1.
</event>
<event>
 7    1  0.7313719E-013  0.5930197E+02  0.7816164E-02  0.1266605E+00
        -11   -1    0    0    0    0  0.00000000000E+00  0.00000000000E+00  0.45593999997E+02  0.45594000000E+02  0.51100000000E-03 0. -1.
         11   -1    0    0    0    0 -0.00000000000E+00 -0.00000000000E+00 -0.45593999997E+02  0.45594000000E+02  0.51100000000E-03 0.  1.
    9900012    2    1    2    0    0 -0.29847175891E+01 -0.22646838173E+02  0.22247042913E+02  0.59301972704E+02  0.50000052299E+02 0.  0.
        -12    1    1    2    0    0  0.29847175891E+01  0.22646838173E+02 -0.22247042913E+02  0.31886027296E+02  0.00000000000E+00 0.  1.
         11    1    3    3    0    0  0.78099949964E+01 -0.48162956508E+00  0.16578329552E+02  0.18332184809E+02  0.51100000000E-03 0. -1.
        -11    1    3    3    0    0  0.66023808851E+01 -0.74474424304E+01 -0.93681675429E+01  0.13668152599E+02  0.51100000000E-03 0.  1.
        -12    1    3    3    0    0 -0.17397093471E+02 -0.14717766178E+02  0.15036880904E+02  0.27301635295E+02  0.00000000000E+00 0.  1.
</event>
<event>
 7    1  0.7313719E-013  0.5930196E+02  0.7816164E-02  0.1266605E+00
        -11   -1    0    0    0    0  0.00000000000E+00  0.00000000000E+00  0.45593999997E+02  0.45594000000E+02  0.51100000000E-03 0. -1.
         11   -1    0    0    0    0 -0.00000000000E+00 -0.00000000000E+00 -0.45593999997E+02  0.45594000000E+02  0.51100000000E-03 0.  1.
    9900012    2    1    2    0    0 -0.18141685215E+02  0.23324997809E+02  0.11980946689E+02  0.59301963106E+02  0.50000034795E+02 0.  0.
        -12    1    1    2    0    0  0.18141685215E+02 -0.23324997809E+02 -0.11980946689E+02  0.31886036894E+02  0.00000000000E+00 0.  1.
         11    1    3    3    0    0 -0.44065907409E+01  0.21383965413E+01  0.17478683175E+02  0.18152001199E+02  0.51100000000E-03 0. -1.
        -11    1    3    3    0    0  0.84065869863E+01  0.10454510538E+02  0.51097207964E+01  0.14355373288E+02  0.51100000000E-03 0.  1.
         12    1    3    3    0    0 -0.22141681460E+02  0.10732090729E+02 -0.10607457282E+02  0.26794588620E+02  0.00000000000E+00 0. -1.
</event>
<event>
 7    1  0.7313719E-013  0.5930195E+02  0.7816164E-02  0.1266605E+00
        -11   -1    0    0    0    0  0.00000000000E+00  0.00000000000E+00  0.45593999997E+02  0.45594000000E+02  0.51100000000E-03 0. -1.
         11   -1    0    0    0    0 -0.00000000000E+00 -0.00000000000E+00 -0.45593999997E+02  0.45594000000E+02  0.51100000000E-03 0.  1.
    9900012    2    1    2    0    0 -0.29365414633E+02 -0.12425362695E+02 -0.53189994696E-01  0.59301952207E+02  0.50000014917E+02 0.  0.
        -12    1    1    2    0    0  0.29365414633E+02  0.12425362695E+02  0.53189994696E-01  0.31886047793E+02  0.00000000000E+00 0.  1.
         11    1    3    3    0    0 -0.26049722008E+02 -0.17863271633E+02 -0.95731007549E+00  0.31600647667E+02  0.51100000000E-03 0. -1.
        -11    1    3    3    0    0 -0.90284138358E+01 -0.13782774914E+01  0.10966801302E+02  0.14271742581E+02  0.51100000000E-03 0.  1.
        -12    1    3    3    0    0  0.57127212102E+01  0.68161864290E+01 -0.10062681221E+02  0.13429561959E+02  0.00000000000E+00 0.  1.
</event>
<event>
 7    1  0.7313719E-013  0.5930194E+02  0.7816164E-02  0.1266605E+00
        -11   -1    0    0    0    0  0.00000000000E+00  0.00000000000E+00  0.45593999997E+02  0.45594000000E+02  0.51100000000E-03 0. -1.
         11   -1    0    0    0    0 -0.00000000000E+00 -0.00000000000E+00 -0.45593999997E+02  0.45594000000E+02  0.51100000000E-03 0.  1.
    9900012    2    1    2    0    0 -0.33901061444E+00 -0.30453646217E+01  0.31738485062E+02  0.59301943362E+02  0.49999998787E+02 0.  0.
        -12    1    1    2    0    0  0.33901061444E+00  0.30453646217E+01 -0.31738485062E+02  0.31886056638E+02  0.00000000000E+00 0.  1.
         11    1    3    3    0    0 -0.66213455969E+01  0.89953255302E+01  0.20368444985E+02  0.23229973101E+02  0.51100000000E-03 0. -1.
        -11    1    3    3    0    0 -0.11746200390E+02 -0.87158317408E+01  0.99383282750E+01  0.17683588881E+02  0.51100000000E-03 0.  1.
         12    1    3    3    0    0  0.18028535373E+02 -0.33248584111E+01  0.14317118022E+01  0.18388381381E+02  0.00000000000E+00 0. -1.
</event>
<event>
 7    1  0.7313719E-013  0.5930194E+02  0.7816164E-02  0.1266605E+00
        -11   -1    0    0    0    0  0.00000000000E+00  0.00000000000E+00  0.45593999997E+02  0.45594000000E+02  0.51100000000E-03 0.  1.
         11   -1    0    0    0    0 -0.00000000000E+00 -0.00000000000E+00 -0.45593999997E+02  0.45594000000E+02  0.51100000000E-03 0. -1.
    9900012    2    1    2    0    0 -0.24102983200E+02  0.10828302173E+02 -0.17846989292E+02  0.59301937937E+02  0.49999988892E+02 0.  0.
        -12    1    1    2    0    0  0.24102983200E+02 -0.10828302173E+02  0.17846989292E+02  0.31886062063E+02  0.00000000000E+00 0.  1.
         11    1    3    3    0    0 -0.45124415758E+01 -0.85244230076E+01  0.57480775153E+01  0.11228014605E+02  0.51100000000E-03 0. -1.
        -11    1    3    3    0    0  0.35169754065E+01  0.55885547054E+01  0.53962746896E+01  0.85276515227E+01  0.51100000000E-03 0.  1.
         12    1    3    3    0    0 -0.23107517031E+02  0.13764170475E+02 -0.28991341497E+02  0.39546271809E+02  0.00000000000E+00 0. -1.
</event>
<event>
 7    1  0.7313719E-013  0.5930193E+02  0.7816164E-02  0.1266605E+00
        -11   -1    0    0    0    0  0.00000000000E+00  0.00000000000E+00  0.45593999997E+02  0.45594000000E+02  0.51100000000E-03 0. -1.
         11   -1    0    0    0    0 -0.00000000000E+00 -0.00000000000E+00 -0.45593999997E+02  0.45594000000E+02  0.51100000000E-03 0.  1.
    9900012    2    1    2    0    0 -0.25328384237E+02 -0.13313305909E+02  0.14069477558E+02  0.59301931553E+02  0.49999977248E+02 0.  0.
        -12    1    1    2    0    0  0.25328384237E+02  0.13313305909E+02 -0.14069477558E+02  0.31886068447E+02  0.00000000000E+00 0.  1.
         11    1    3    3    0    0 -0.46863498569E+01  0.69925661318E+01  0.52498292561E+01  0.99206130641E+01  0.51100000000E-03 0. -1.
        -11    1    3    3    0    0 -0.17273615433E+02 -0.11817989279E+02 -0.13744707758E+02  0.25039162373E+02  0.51100000000E-03 0.  1.
        -12    1    3    3    0    0 -0.33684189471E+01 -0.84878827612E+01  0.22564356059E+02  0.24342156115E+02  0.00000000000E+00 0.  1.
</event>
<event>
 7    1  0.7313719E-013  0.5930192E+02  0.7816164E-02  0.1266605E+00
        -11   -1    0    0    0    0  0.00000000000E+00  0.00000000000E+00  0.45593999997E+02  0.45594000000E+02  0.51100000000E-03 0.  1.
         11   -1    0    0    0    0 -0.00000000000E+00 -0.00000000000E+00 -0.45593999997E+02  0.45594000000E+02  0.51100000000E-03 0. -1.
    9900012    2    1    2    0    0  0.22412296293E+02  0.77784428391E+01 -0.21305094454E+02  0.59301917647E+02  0.49999951888E+02 0.  0.
        -12    1    1    2    0    0 -0.22412296293E+02 -0.77784428391E+01  0.21305094454E+02  0.31886082353E+02  0.00000000000E+00 0.  1.
         11    1    3    3    0    0  0.21321422114E+02  0.88204006654E+01 -0.12925748407E+02  0.26447636586E+02  0.51100000000E-03 0.  1.
        -11    1    3    3    0    0  0.20699684495E+01 -0.13355939616E+02 -0.13843351630E+02  0.19346944902E+02  0.51100000000E-03 0. -1.
        -12    1    3    3    0    0 -0.97909427040E+00  0.12313981790E+02  0.54640055830E+01  0.13507336160E+02  0.00000000000E+00 0.  1.
</event>
