<event>
 7    1  0.2812635E-010  0.4778728E+02  0.7816164E-02  0.1312668E+00
        -11   -1    0    0    0    0  0.00000000000E+00  0.00000000000E+00  0.45593999997E+02  0.45594000000E+02  0.51100000000E-03 0.  1.
         11   -1    0    0    0    0 -0.00000000000E+00 -0.00000000000E+00 -0.45593999997E+02  0.45594000000E+02  0.51100000000E-03 0. -1.
    9900012    2    1    2    0    0  0.20602116057E+02  0.37969475489E+02  0.41825965713E+01  0.47787281469E+02  0.20000047529E+02 0.  0.
         12    1    1    2    0    0 -0.20602116057E+02 -0.37969475489E+02 -0.41825965713E+01  0.43400718531E+02  0.00000000000E+00 0. -1.
         11    1    3    3    0    0  0.10533119750E+00  0.45902984810E+00 -0.65400294127E+00  0.80593000373E+00  0.51100000000E-03 0. -1.
        -11    1    3    3    0    0  0.32674764491E+01  0.32173823997E+01 -0.55726845722E+01  0.72168390209E+01  0.51100000000E-03 0.  1.
        -12    1    3    3    0    0  0.17229308410E+02  0.34293063241E+02  0.10409284085E+02  0.39764512444E+02  0.00000000000E+00 0.  1.
</event>
<event>
 7    1  0.2812635E-010  0.4778727E+02  0.7816164E-02  0.1312668E+00
        -11   -1    0    0    0    0  0.00000000000E+00  0.00000000000E+00  0.45593999997E+02  0.45594000000E+02  0.51100000000E-03 0. -1.
         11   -1    0    0    0    0 -0.00000000000E+00 -0.00000000000E+00 -0.45593999997E+02  0.45594000000E+02  0.51100000000E-03 0.  1.
    9900012    2    1    2    0    0  0.39484639086E+02  0.15986642071E+02 -0.83074699322E+01  0.47787268380E+02  0.19999987854E+02 0.  0.
         12    1    1    2    0    0 -0.39484639086E+02 -0.15986642071E+02  0.83074699322E+01  0.43400731620E+02  0.00000000000E+00 0. -1.
         11    1    3    3    0    0  0.23077780128E+01  0.70773193571E+01  0.74883914586E+00  0.74816474768E+01  0.51100000000E-03 0. -1.
        -11    1    3    3    0    0  0.27497468456E+02  0.98511989520E+01 -0.90559775734E+01  0.30580510498E+02  0.51100000000E-03 0.  1.
         12    1    3    3    0    0  0.96793926173E+01 -0.94187623797E+00 -0.33150459876E-03  0.97251104054E+01  0.00000000000E+00 0. -1.
</event>
<event>
 7    1  0.2812635E-010  0.4778727E+02  0.7816164E-02  0.1312668E+00
        -11   -1    0    0    0    0  0.00000000000E+00  0.00000000000E+00  0.45593999997E+02  0.45594000000E+02  0.51100000000E-03 0.  1.
         11   -1    0    0    0    0 -0.00000000000E+00 -0.00000000000E+00 -0.45593999997E+02  0.45594000000E+02  0.51100000000E-03 0. -1.
    9900012    2    1    2    0    0 -0.24753240324E+02  0.24301065056E+02  0.26083687300E+02  0.47787269446E+02  0.19999992714E+02 0.  0.
         12    1    1    2    0    0  0.24753240324E+02 -0.24301065056E+02 -0.26083687300E+02  0.43400730554E+02  0.00000000000E+00 0. -1.
         11    1    3    3    0    0 -0.13804475248E+00  0.73565804491E+01  0.30360876376E+01  0.79596583257E+01  0.51100000000E-03 0. -1.
        -11    1    3    3    0    0 -0.16607436458E+02  0.78111130298E+01  0.20314927205E+02  0.27377302645E+02  0.51100000000E-03 0.  1.
        -12    1    3    3    0    0 -0.80077591131E+01  0.91333715775E+01  0.27326724574E+01  0.12450308476E+02  0.00000000000E+00 0.  1.
</event>
<event>
 7    1  0.2812635E-010  0.4778724E+02  0.7816164E-02  0.1312668E+00
        -11   -1    0    0    0    0  0.00000000000E+00  0.00000000000E+00  0.45593999997E+02  0.45594000000E+02  0.51100000000E-03 0. -1.
         11   -1    0    0    0    0 -0.00000000000E+00 -0.00000000000E+00 -0.45593999997E+02  0.45594000000E+02  0.51100000000E-03 0.  1.
    9900012    2    1    2    0    0 -0.12016771703E+02 -0.37481940912E+02  0.18284611603E+02  0.47787242885E+02  0.19999871608E+02 0.  0.
         12    1    1    2    0    0  0.12016771703E+02  0.37481940912E+02 -0.18284611603E+02  0.43400757115E+02  0.00000000000E+00 0. -1.
         11    1    3    3    0    0 -0.37725383985E+01 -0.76928940122E-01 -0.47754164187E+00  0.38034208695E+01  0.51100000000E-03 0. -1.
        -11    1    3    3    0    0 -0.99825942149E+01 -0.35942517516E+02  0.16538387367E+02  0.40804840517E+02  0.51100000000E-03 0.  1.
         12    1    3    3    0    0  0.17383609103E+01 -0.14624944563E+01  0.22237658776E+01  0.31789814985E+01  0.00000000000E+00 0. -1.
</event>
<event>
 7    1  0.2812635E-010  0.4778727E+02  0.7816164E-02  0.1312668E+00
        -11   -1    0    0    0    0  0.00000000000E+00  0.00000000000E+00  0.45593999997E+02  0.45594000000E+02  0.51100000000E-03 0. -1.
         11   -1    0    0    0    0 -0.00000000000E+00 -0.00000000000E+00 -0.45593999997E+02  0.45594000000E+02  0.51100000000E-03 0.  1.
    9900012    2    1    2    0    0  0.22064245858E+01  0.39538177926E+02  0.17761967648E+02  0.47787270538E+02  0.19999997689E+02 0.  0.
         12    1    1    2    0    0 -0.22064245858E+01 -0.39538177926E+02 -0.17761967648E+02  0.43400729462E+02  0.00000000000E+00 0. -1.
         11    1    3    3    0    0  0.68976103283E+01  0.16395231353E+02  0.16188404324E+02  0.24050885101E+02  0.51100000000E-03 0. -1.
        -11    1    3    3    0    0 -0.42763303444E+01  0.18991771216E+02  0.73528734319E+00  0.19481145317E+02  0.51100000000E-03 0.  1.
        -12    1    3    3    0    0 -0.41485539815E+00  0.41511753578E+01  0.83827598055E+00  0.42552401192E+01  0.00000000000E+00 0.  1.
</event>
<event>
 7    1  0.2812635E-010  0.4778727E+02  0.7816164E-02  0.1312668E+00
        -11   -1    0    0    0    0  0.00000000000E+00  0.00000000000E+00  0.45593999997E+02  0.45594000000E+02  0.51100000000E-03 0.  1.
         11   -1    0    0    0    0 -0.00000000000E+00 -0.00000000000E+00 -0.45593999997E+02  0.45594000000E+02  0.51100000000E-03 0. -1.
    9900012    2    1    2    0    0  0.27401101928E+02 -0.17943931904E+02  0.28474877885E+02  0.47787265563E+02  0.19999975010E+02 0.  0.
         12    1    1    2    0    0 -0.27401101928E+02  0.17943931904E+02 -0.28474877885E+02  0.43400734437E+02  0.00000000000E+00 0. -1.
         11    1    3    3    0    0  0.88313398687E+01  0.17404808902E+01  0.63433320748E+01  0.11011798204E+02  0.51100000000E-03 0.  1.
        -11    1    3    3    0    0  0.19975271416E+02 -0.17613313496E+02  0.21409952173E+02  0.34170547739E+02  0.51100000000E-03 0. -1.
        -12    1    3    3    0    0 -0.14055093567E+01 -0.20710992978E+01  0.72159363745E+00  0.26049196208E+01  0.00000000000E+00 0.  1.
</event>
<event>
 7    1  0.2812635E-010  0.4778727E+02  0.7816164E-02  0.1312668E+00
        -11   -1    0    0    0    0  0.00000000000E+00  0.00000000000E+00  0.45593999997E+02  0.45594000000E+02  0.51100000000E-03 0.  1.
         11   -1    0    0    0    0 -0.00000000000E+00 -0.00000000000E+00 -0.45593999997E+02  0.45594000000E+02  0.51100000000E-03 0. -1.
    9900012    2    1    2    0    0 -0.31910544052E+02 -0.12717931206E+02  0.26525358632E+02  0.47787271361E+02  0.20000001443E+02 0.  0.
         12    1    1    2    0    0  0.31910544052E+02  0.12717931206E+02 -0.26525358632E+02  0.43400728639E+02  0.00000000000E+00 0. -1.
         11    1    3    3    0    0 -0.72720639217E+01 -0.49201384455E+01 -0.83229271331E+00  0.88194890683E+01  0.51100000000E-03 0. -1.
        -11    1    3    3    0    0 -0.70112341977E+01 -0.29360235782E+01  0.15243576365E+02  0.17033621461E+02  0.51100000000E-03 0.  1.
        -12    1    3    3    0    0 -0.17627245932E+02 -0.48617691825E+01  0.12114074981E+02  0.21934160831E+02  0.00000000000E+00 0.  1.
</event>
<event>
 7    1  0.2812635E-010  0.4778727E+02  0.7816164E-02  0.1312668E+00
        -11   -1    0    0    0    0  0.00000000000E+00  0.00000000000E+00  0.45593999997E+02  0.45594000000E+02  0.51100000000E-03 0. -1.
         11   -1    0    0    0    0 -0.00000000000E+00 -0.00000000000E+00 -0.45593999997E+02  0.45594000000E+02  0.51100000000E-03 0.  1.
    9900012    2    1    2    0    0 -0.32107284019E+02  0.61723627037E+01 -0.28542036809E+02  0.47787267130E+02  0.19999982153E+02 0.  0.
         12    1    1    2    0    0  0.32107284019E+02 -0.61723627037E+01  0.28542036809E+02  0.43400732870E+02  0.00000000000E+00 0. -1.
         11    1    3    3    0    0 -0.69065114470E+00  0.17662154334E+01 -0.37771317495E-01  0.18968244237E+01  0.51100000000E-03 0. -1.
        -11    1    3    3    0    0 -0.91235070804E+01 -0.53199087860E+01 -0.14120602637E+02  0.17633242187E+02  0.51100000000E-03 0.  1.
        -12    1    3    3    0    0 -0.22293125794E+02  0.97260560563E+01 -0.14383662855E+02  0.28257200519E+02  0.00000000000E+00 0.  1.
</event>
<event>
 7    1  0.2812635E-010  0.4778727E+02  0.7816164E-02  0.1312668E+00
        -11   -1    0    0    0    0  0.00000000000E+00  0.00000000000E+00  0.45593999997E+02  0.45594000000E+02  0.51100000000E-03 0. -1.
         11   -1    0    0    0    0 -0.00000000000E+00 -0.00000000000E+00 -0.45593999997E+02  0.45594000000E+02  0.51100000000E-03 0.  1.
    9900012    2    1    2    0    0  0.14117577351E+02  0.26830428282E+02 -0.31055522406E+02  0.47787270237E+02  0.19999996319E+02 0.  0.
         12    1    1    2    0    0 -0.14117577351E+02 -0.26830428282E+02  0.31055522406E+02  0.43400729763E+02  0.00000000000E+00 0. -1.
         11    1    3    3    0    0  0.54240146469E+01  0.24642092508E+01 -0.61149080499E+01  0.85372339104E+01  0.51100000000E-03 0.  1.
        -11    1    3    3    0    0  0.42806709662E+01  0.15791217196E+02 -0.50136196210E+01  0.17112073703E+02  0.51100000000E-03 0. -1.
        -12    1    3    3    0    0  0.44128917381E+01  0.85750018357E+01 -0.19926994735E+02  0.22137962624E+02  0.00000000000E+00 0.  1.
</event>
<event>
 7    1  0.2812635E-010  0.4778726E+02  0.7816164E-02  0.1312668E+00
        -11   -1    0    0    0    0  0.00000000000E+00  0.00000000000E+00  0.45593999997E+02  0.45594000000E+02  0.51100000000E-03 0.  1.
         11   -1    0    0    0    0 -0.00000000000E+00 -0.00000000000E+00 -0.45593999997E+02  0.45594000000E+02  0.51100000000E-03 0. -1.
    9900012    2    1    2    0    0 -0.39442312373E+02  0.18013035261E+02 -0.18597826868E+01  0.47787259956E+02  0.19999949446E+02 0.  0.
         12    1    1    2    0    0  0.39442312373E+02 -0.18013035261E+02  0.18597826868E+01  0.43400740044E+02  0.00000000000E+00 0. -1.
         11    1    3    3    0    0 -0.64349554308E+01  0.79848928905E+01  0.49168523807E+01  0.11372888967E+02  0.51100000000E-03 0. -1.
        -11    1    3    3    0    0 -0.24539343961E+02  0.44366890416E+01 -0.80103410613E+01  0.26192158671E+02  0.51100000000E-03 0.  1.
        -12    1    3    3    0    0 -0.84680129815E+01  0.55914533294E+01  0.12337059938E+01  0.10222212318E+02  0.00000000000E+00 0.  1.
</event>
<event>
 7    1  0.2812635E-010  0.4778727E+02  0.7816164E-02  0.1312668E+00
        -11   -1    0    0    0    0  0.00000000000E+00  0.00000000000E+00  0.45593999997E+02  0.45594000000E+02  0.51100000000E-03 0.  1.
         11   -1    0    0    0    0 -0.00000000000E+00 -0.00000000000E+00 -0.45593999997E+02  0.45594000000E+02  0.51100000000E-03 0. -1.
    9900012    2    1    2    0    0  0.13124439198E+02 -0.25230535696E+02  0.32784028274E+02  0.47787270218E+02  0.19999996232E+02 0.  0.
         12    1    1    2    0    0 -0.13124439198E+02  0.25230535696E+02 -0.32784028274E+02  0.43400729782E+02  0.00000000000E+00 0. -1.
         11    1    3    3    0    0  0.51203286592E+01 -0.15651523858E+02  0.11597821029E+02  0.20141931822E+02  0.51100000000E-03 0. -1.
        -11    1    3    3    0    0  0.50490347186E+01  0.22125067964E+01  0.79472903899E+01  0.96719885606E+01  0.51100000000E-03 0.  1.
        -12    1    3    3    0    0  0.29550758202E+01 -0.11791518634E+02  0.13238916854E+02  0.17973349835E+02  0.00000000000E+00 0.  1.
</event>
<event>
 7    1  0.2812635E-010  0.4778727E+02  0.7816164E-02  0.1312668E+00
        -11   -1    0    0    0    0  0.00000000000E+00  0.00000000000E+00  0.45593999997E+02  0.45594000000E+02  0.51100000000E-03 0.  1.
         11   -1    0    0    0    0 -0.00000000000E+00 -0.00000000000E+00 -0.45593999997E+02  0.45594000000E+02  0.51100000000E-03 0. -1.
    9900012    2    1    2    0    0  0.29550602084E+01 -0.42079299048E+02  0.10208975954E+02  0.47787274439E+02  0.20000015477E+02 0.  0.
         12    1    1    2    0    0 -0.29550602084E+01  0.42079299048E+02 -0.10208975954E+02  0.43400725561E+02  0.00000000000E+00 0. -1.
         11    1    3    3    0    0 -0.21286948442E+01  0.11367682123E+01 -0.84996975332E+00  0.25585215557E+01  0.51100000000E-03 0. -1.
        -11    1    3    3    0    0  0.28627949483E+01 -0.24521150049E+02  0.90554164373E+01  0.26296063617E+02  0.51100000000E-03 0.  1.
         12    1    3    3    0    0  0.22209601043E+01 -0.18694917211E+02  0.20035292699E+01  0.18932689266E+02  0.00000000000E+00 0. -1.
</event>
<event>
 7    1  0.2812635E-010  0.4778728E+02  0.7816164E-02  0.1312668E+00
        -11   -1    0    0    0    0  0.00000000000E+00  0.00000000000E+00  0.45593999997E+02  0.45594000000E+02  0.51100000000E-03 0.  1.
         11   -1    0    0    0    0 -0.00000000000E+00 -0.00000000000E+00 -0.45593999997E+02  0.45594000000E+02  0.51100000000E-03 0. -1.
    9900012    2    1    2    0    0  0.35038666390E+02 -0.25095652029E+02  0.51110666992E+01  0.47787275398E+02  0.20000019850E+02 0.  0.
         12    1    1    2    0    0 -0.35038666390E+02  0.25095652029E+02 -0.51110666992E+01  0.43400724602E+02  0.00000000000E+00 0. -1.
         11    1    3    3    0    0  0.27584099699E+01 -0.55010272980E+00 -0.24015989103E+01  0.36985289187E+01  0.51100000000E-03 0. -1.
        -11    1    3    3    0    0  0.44093829428E+01  0.12833450737E+01  0.37030555936E+01  0.58993434809E+01  0.51100000000E-03 0.  1.
        -12    1    3    3    0    0  0.27870873478E+02 -0.25828894373E+02  0.38096100158E+01  0.38189402999E+02  0.00000000000E+00 0.  1.
</event>
<event>
 7    1  0.2812635E-010  0.4778727E+02  0.7816164E-02  0.1312668E+00
        -11   -1    0    0    0    0  0.00000000000E+00  0.00000000000E+00  0.45593999997E+02  0.45594000000E+02  0.51100000000E-03 0.  1.
         11   -1    0    0    0    0 -0.00000000000E+00 -0.00000000000E+00 -0.45593999997E+02  0.45594000000E+02  0.51100000000E-03 0. -1.
    9900012    2    1    2    0    0 -0.17398918275E+02 -0.37323130710E+02  0.13707108931E+02  0.47787270992E+02  0.19999999761E+02 0.  0.
         12    1    1    2    0    0  0.17398918275E+02  0.37323130710E+02 -0.13707108931E+02  0.43400729008E+02  0.00000000000E+00 0. -1.
         11    1    3    3    0    0  0.22638524500E+01 -0.14382420613E+02  0.10445476033E+01  0.14596921955E+02  0.51100000000E-03 0. -1.
        -11    1    3    3    0    0 -0.12201936892E+02 -0.16080439041E+02  0.59905945871E+01  0.21055996947E+02  0.51100000000E-03 0.  1.
         12    1    3    3    0    0 -0.74608338331E+01 -0.68602710566E+01  0.66719667409E+01  0.12134352090E+02  0.00000000000E+00 0. -1.
</event>
<event>
 7    1  0.2812635E-010  0.4778727E+02  0.7816164E-02  0.1312668E+00
        -11   -1    0    0    0    0  0.00000000000E+00  0.00000000000E+00  0.45593999997E+02  0.45594000000E+02  0.51100000000E-03 0.  1.
         11   -1    0    0    0    0 -0.00000000000E+00 -0.00000000000E+00 -0.45593999997E+02  0.45594000000E+02  0.51100000000E-03 0. -1.
    9900012    2    1    2    0    0  0.71451492320E-01 -0.14755651472E+02  0.40815303762E+02  0.47787269858E+02  0.19999994592E+02 0.  0.
         12    1    1    2    0    0 -0.71451492320E-01  0.14755651472E+02 -0.40815303762E+02  0.43400730142E+02  0.00000000000E+00 0. -1.
         11    1    3    3    0    0  0.32006124389E+01 -0.56815640613E+01  0.49911862014E+01  0.82119443571E+01  0.51100000000E-03 0. -1.
        -11    1    3    3    0    0 -0.54617175975E+01 -0.12810468065E+01  0.26988188241E+02  0.27565081985E+02  0.51100000000E-03 0.  1.
        -12    1    3    3    0    0  0.23325566509E+01 -0.77930406039E+01  0.88359293194E+01  0.12010243516E+02  0.00000000000E+00 0.  1.
</event>
<event>
 7    1  0.2812635E-010  0.4778727E+02  0.7816164E-02  0.1312668E+00
        -11   -1    0    0    0    0  0.00000000000E+00  0.00000000000E+00  0.45593999997E+02  0.45594000000E+02  0.51100000000E-03 0. -1.
         11   -1    0    0    0    0 -0.00000000000E+00 -0.00000000000E+00 -0.45593999997E+02  0.45594000000E+02  0.51100000000E-03 0.  1.
    9900012    2    1    2    0    0 -0.12777122755E+02  0.21536212565E+02 -0.35447990256E+02  0.47787270389E+02  0.19999997014E+02 0.  0.
         12    1    1    2    0    0  0.12777122755E+02 -0.21536212565E+02  0.35447990256E+02  0.43400729611E+02  0.00000000000E+00 0. -1.
         11    1    3    3    0    0  0.39355470509E+00  0.16637706537E+01 -0.13990638518E+02  0.14094714772E+02  0.51100000000E-03 0.  1.
        -11    1    3    3    0    0 -0.20392765823E+01  0.93028886312E+01 -0.13156619360E+02  0.16241890873E+02  0.51100000000E-03 0. -1.
         12    1    3    3    0    0 -0.11131400878E+02  0.10569553280E+02 -0.83007323776E+01  0.17450664745E+02  0.00000000000E+00 0. -1.
</event>
<event>
 7    1  0.2812635E-010  0.4778728E+02  0.7816164E-02  0.1312668E+00
        -11   -1    0    0    0    0  0.00000000000E+00  0.00000000000E+00  0.45593999997E+02  0.45594000000E+02  0.51100000000E-03 0. -1.
         11   -1    0    0    0    0 -0.00000000000E+00 -0.00000000000E+00 -0.45593999997E+02  0.45594000000E+02  0.51100000000E-03 0.  1.
    9900012    2    1    2    0    0 -0.30073074135E+02  0.31285294326E+02 -0.68063580219E+00  0.47787277723E+02  0.20000030452E+02 0.  0.
         12    1    1    2    0    0  0.30073074135E+02 -0.31285294326E+02  0.68063580219E+00  0.43400722277E+02  0.00000000000E+00 0. -1.
         11    1    3    3    0    0 -0.82598287906E+01  0.19241309507E+02  0.26859947625E+01  0.21110834453E+02  0.51100000000E-03 0. -1.
        -11    1    3    3    0    0 -0.45083113096E+01  0.45456784823E+01  0.25785451573E+01  0.69019532828E+01  0.51100000000E-03 0.  1.
         12    1    3    3    0    0 -0.17304934035E+02  0.74983063372E+01 -0.59451757220E+01  0.19774489987E+02  0.00000000000E+00 0. -1.
</event>
<event>
 7    1  0.2812635E-010  0.4778727E+02  0.7816164E-02  0.1312668E+00
        -11   -1    0    0    0    0  0.00000000000E+00  0.00000000000E+00  0.45593999997E+02  0.45594000000E+02  0.51100000000E-03 0.  1.
         11   -1    0    0    0    0 -0.00000000000E+00 -0.00000000000E+00 -0.45593999997E+02  0.45594000000E+02  0.51100000000E-03 0. -1.
    9900012    2    1    2    0    0  0.50161401031E+01 -0.19920284526E+02  0.38231451855E+02  0.47787270651E+02  0.19999998205E+02 0.  0.
         12    1    1    2    0    0 -0.50161401031E+01  0.19920284526E+02 -0.38231451855E+02  0.43400729349E+02  0.00000000000E+00 0. -1.
         11    1    3    3    0    0 -0.28881531533E+01 -0.80512753419E+01  0.39794919403E+01  0.94340245724E+01  0.51100000000E-03 0. -1.
        -11    1    3    3    0    0 -0.10115610339E+01 -0.49746646509E+01  0.55694562035E+01  0.75358733255E+01  0.51100000000E-03 0.  1.
         12    1    3    3    0    0  0.89158542903E+01 -0.68943445333E+01  0.28682503711E+02  0.30817372753E+02  0.00000000000E+00 0. -1.
</event>
<event>
 7    1  0.2812635E-010  0.4778727E+02  0.7816164E-02  0.1312668E+00
        -11   -1    0    0    0    0  0.00000000000E+00  0.00000000000E+00  0.45593999997E+02  0.45594000000E+02  0.51100000000E-03 0.  1.
         11   -1    0    0    0    0 -0.00000000000E+00 -0.00000000000E+00 -0.45593999997E+02  0.45594000000E+02  0.51100000000E-03 0. -1.
    9900012    2    1    2    0    0  0.27104276558E+02 -0.20622618675E+02  0.26901465743E+02  0.47787273418E+02  0.20000010821E+02 0.  0.
         12    1    1    2    0    0 -0.27104276558E+02  0.20622618675E+02 -0.26901465743E+02  0.43400726582E+02  0.00000000000E+00 0. -1.
         11    1    3    3    0    0  0.31830101102E+01 -0.58956153970E+01  0.14981532287E+02  0.16411463804E+02  0.51100000000E-03 0. -1.
        -11    1    3    3    0    0  0.84349305656E+01 -0.23858578251E+01  0.11694270332E+01  0.88435248094E+01  0.51100000000E-03 0.  1.
         12    1    3    3    0    0  0.15486335882E+02 -0.12341145453E+02  0.10750506423E+02  0.22532284804E+02  0.00000000000E+00 0. -1.
</event>
<event>
 7    1  0.2812635E-010  0.4778727E+02  0.7816164E-02  0.1312668E+00
        -11   -1    0    0    0    0  0.00000000000E+00  0.00000000000E+00  0.45593999997E+02  0.45594000000E+02  0.51100000000E-03 0.  1.
         11   -1    0    0    0    0 -0.00000000000E+00 -0.00000000000E+00 -0.45593999997E+02  0.45594000000E+02  0.51100000000E-03 0. -1.
    9900012    2    1    2    0    0  0.25294463415E+02 -0.32737790248E+02  0.13116793628E+02  0.47787273452E+02  0.20000010977E+02 0.  0.
         12    1    1    2    0    0 -0.25294463415E+02  0.32737790248E+02 -0.13116793628E+02  0.43400726548E+02  0.00000000000E+00 0. -1.
         11    1    3    3    0    0  0.64105983195E+01 -0.41168020855E+01  0.86025543934E+01  0.11491204140E+02  0.51100000000E-03 0. -1.
        -11    1    3    3    0    0  0.13575972195E+02 -0.23140751682E+02  0.78725549880E+01  0.27960302784E+02  0.51100000000E-03 0.  1.
         12    1    3    3    0    0  0.53078929005E+01 -0.54802364805E+01 -0.33583157529E+01  0.83357665288E+01  0.00000000000E+00 0. -1.
</event>
<event>
 7    1  0.2812635E-010  0.4778727E+02  0.7816164E-02  0.1312668E+00
        -11   -1    0    0    0    0  0.00000000000E+00  0.00000000000E+00  0.45593999997E+02  0.45594000000E+02  0.51100000000E-03 0.  1.
         11   -1    0    0    0    0 -0.00000000000E+00 -0.00000000000E+00 -0.45593999997E+02  0.45594000000E+02  0.51100000000E-03 0. -1.
    9900012    2    1    2    0    0  0.74354068046E+01  0.39531942107E+02  0.16296114860E+02  0.47787273271E+02  0.20000010150E+02 0.  0.
         12    1    1    2    0    0 -0.74354068046E+01 -0.39531942107E+02 -0.16296114860E+02  0.43400726729E+02  0.00000000000E+00 0. -1.
         11    1    3    3    0    0  0.39963122566E+01  0.18356449285E+01  0.57900479809E+01  0.72708156240E+01  0.51100000000E-03 0. -1.
        -11    1    3    3    0    0  0.34033581633E+01  0.19423831961E+02  0.59409451571E+00  0.19728685800E+02  0.51100000000E-03 0.  1.
         12    1    3    3    0    0  0.35736384598E-01  0.18272465217E+02  0.99119723632E+01  0.20787771846E+02  0.00000000000E+00 0. -1.
</event>
<event>
 7    1  0.2812635E-010  0.4778727E+02  0.7816164E-02  0.1312668E+00
        -11   -1    0    0    0    0  0.00000000000E+00  0.00000000000E+00  0.45593999997E+02  0.45594000000E+02  0.51100000000E-03 0.  1.
         11   -1    0    0    0    0 -0.00000000000E+00 -0.00000000000E+00 -0.45593999997E+02  0.45594000000E+02  0.51100000000E-03 0. -1.
    9900012    2    1    2    0    0 -0.26247506719E+02 -0.32219486646E+02  0.12513841305E+02  0.47787272438E+02  0.20000006355E+02 0.  0.
         12    1    1    2    0    0  0.26247506719E+02  0.32219486646E+02 -0.12513841305E+02  0.43400727562E+02  0.00000000000E+00 0. -1.
         11    1    3    3    0    0 -0.17164391800E+02 -0.27105232215E+02  0.96474080715E+01  0.33501976689E+02  0.51100000000E-03 0. -1.
        -11    1    3    3    0    0 -0.94991099749E+01 -0.71632736490E+01  0.22800316004E+01  0.12113798911E+02  0.51100000000E-03 0.  1.
         12    1    3    3    0    0  0.41599505671E+00  0.20490192183E+01  0.58640163329E+00  0.21714968385E+01  0.00000000000E+00 0. -1.
</event>
<event>
 7    1  0.2812635E-010  0.4778727E+02  0.7816164E-02  0.1312668E+00
        -11   -1    0    0    0    0  0.00000000000E+00  0.00000000000E+00  0.45593999997E+02  0.45594000000E+02  0.51100000000E-03 0.  1.
         11   -1    0    0    0    0 -0.00000000000E+00 -0.00000000000E+00 -0.45593999997E+02  0.45594000000E+02  0.51100000000E-03 0. -1.
    9900012    2    1    2    0    0 -0.42809648381E+02 -0.13461241657E+01  0.70103593747E+01  0.47787272087E+02  0.20000004754E+02 0.  0.
         12    1    1    2    0    0  0.42809648381E+02  0.13461241657E+01 -0.70103593747E+01  0.43400727913E+02  0.00000000000E+00 0. -1.
         11    1    3    3    0    0 -0.11096596739E+02 -0.36164714631E+01 -0.30769481934E+01  0.12069835769E+02  0.51100000000E-03 0. -1.
        -11    1    3    3    0    0 -0.16449665229E+02  0.52303763715E+01  0.10426800481E+02  0.20165973611E+02  0.51100000000E-03 0.  1.
        -12    1    3    3    0    0 -0.15263386413E+02 -0.29600290741E+01 -0.33949291252E+00  0.15551462708E+02  0.00000000000E+00 0.  1.
</event>
<event>
 7    1  0.2812635E-010  0.4778727E+02  0.7816164E-02  0.1312668E+00
        -11   -1    0    0    0    0  0.00000000000E+00  0.00000000000E+00  0.45593999997E+02  0.45594000000E+02  0.51100000000E-03 0.  1.
         11   -1    0    0    0    0 -0.00000000000E+00 -0.00000000000E+00 -0.45593999997E+02  0.45594000000E+02  0.51100000000E-03 0. -1.
    9900012    2    1    2    0    0  0.11714946434E+02 -0.31563281592E+02  0.27388739296E+02  0.47787265501E+02  0.19999974726E+02 0.  0.
         12    1    1    2    0    0 -0.11714946434E+02  0.31563281592E+02 -0.27388739296E+02  0.43400734499E+02  0.00000000000E+00 0. -1.
         11    1    3    3    0    0  0.10340759084E+02 -0.26951019055E+02  0.25234147576E+02  0.38341243208E+02  0.51100000000E-03 0. -1.
        -11    1    3    3    0    0 -0.29611706171E+01 -0.30729830480E+01 -0.21141031751E+00  0.42727568174E+01  0.51100000000E-03 0.  1.
         12    1    3    3    0    0  0.43353579667E+01 -0.15392794888E+01  0.23660020372E+01  0.51732654759E+01  0.00000000000E+00 0. -1.
</event>
<event>
 7    1  0.2812635E-010  0.4778727E+02  0.7816164E-02  0.1312668E+00
        -11   -1    0    0    0    0  0.00000000000E+00  0.00000000000E+00  0.45593999997E+02  0.45594000000E+02  0.51100000000E-03 0.  1.
         11   -1    0    0    0    0 -0.00000000000E+00 -0.00000000000E+00 -0.45593999997E+02  0.45594000000E+02  0.51100000000E-03 0. -1.
    9900012    2    1    2    0    0  0.35582547452E+02  0.21561944281E+02  0.12352650332E+02  0.47787273110E+02  0.20000009419E+02 0.  0.
         12    1    1    2    0    0 -0.35582547452E+02 -0.21561944281E+02 -0.12352650332E+02  0.43400726890E+02  0.00000000000E+00 0. -1.
         11    1    3    3    0    0  0.18351786773E+02  0.29410112544E+01 -0.25632131028E+00  0.18587719759E+02  0.51100000000E-03 0. -1.
        -11    1    3    3    0    0  0.12618357310E+02  0.87988250079E+01  0.86524765461E+01  0.17649578277E+02  0.51100000000E-03 0.  1.
         12    1    3    3    0    0  0.46124033691E+01  0.98221080186E+01  0.39564950963E+01  0.11549975074E+02  0.00000000000E+00 0. -1.
</event>
<event>
 7    1  0.2812635E-010  0.4778726E+02  0.7816164E-02  0.1312668E+00
        -11   -1    0    0    0    0  0.00000000000E+00  0.00000000000E+00  0.45593999997E+02  0.45594000000E+02  0.51100000000E-03 0.  1.
         11   -1    0    0    0    0 -0.00000000000E+00 -0.00000000000E+00 -0.45593999997E+02  0.45594000000E+02  0.51100000000E-03 0. -1.
    9900012    2    1    2    0    0  0.61795084718E+01  0.14087274358E+02  0.40583078038E+02  0.47787264444E+02  0.19999969905E+02 0.  0.
         12    1    1    2    0    0 -0.61795084718E+01 -0.14087274358E+02 -0.40583078038E+02  0.43400735556E+02  0.00000000000E+00 0. -1.
         11    1    3    3    0    0  0.15025292164E+01  0.72272939302E+01  0.38347794026E+01  0.83184677031E+01  0.51100000000E-03 0. -1.
        -11    1    3    3    0    0 -0.20679259972E+01 -0.10257330275E+01  0.17039627151E+02  0.17195270858E+02  0.51100000000E-03 0.  1.
        -12    1    3    3    0    0  0.67449052526E+01  0.78857134550E+01  0.19708671485E+02  0.22273525883E+02  0.00000000000E+00 0.  1.
</event>
<event>
 7    1  0.2812635E-010  0.4778727E+02  0.7816164E-02  0.1312668E+00
        -11   -1    0    0    0    0  0.00000000000E+00  0.00000000000E+00  0.45593999997E+02  0.45594000000E+02  0.51100000000E-03 0. -1.
         11   -1    0    0    0    0 -0.00000000000E+00 -0.00000000000E+00 -0.45593999997E+02  0.45594000000E+02  0.51100000000E-03 0.  1.
    9900012    2    1    2    0    0 -0.42264889021E+02 -0.69997461174E+01 -0.69502619917E+01  0.47787269230E+02  0.19999991726E+02 0.  0.
         12    1    1    2    0    0  0.42264889021E+02  0.69997461174E+01  0.69502619917E+01  0.43400730770E+02  0.00000000000E+00 0. -1.
         11    1    3    3    0    0 -0.21557168854E+02 -0.29363828093E+01  0.37116181311E+01  0.22070568239E+02  0.51100000000E-03 0. -1.
        -11    1    3    3    0    0 -0.70675908071E+01 -0.41504047468E-01  0.12362514517E+01  0.71750177920E+01  0.51100000000E-03 0.  1.
         12    1    3    3    0    0 -0.13640129360E+02 -0.40218592607E+01 -0.11898131575E+02  0.18541683199E+02  0.00000000000E+00 0. -1.
</event>
<event>
 7    1  0.2812635E-010  0.4778727E+02  0.7816164E-02  0.1312668E+00
        -11   -1    0    0    0    0  0.00000000000E+00  0.00000000000E+00  0.45593999997E+02  0.45594000000E+02  0.51100000000E-03 0.  1.
         11   -1    0    0    0    0 -0.00000000000E+00 -0.00000000000E+00 -0.45593999997E+02  0.45594000000E+02  0.51100000000E-03 0. -1.
    9900012    2    1    2    0    0 -0.14198127923E+02 -0.36685812785E+02  0.18335412380E+02  0.47787273701E+02  0.20000012110E+02 0.  0.
         12    1    1    2    0    0  0.14198127923E+02  0.36685812785E+02 -0.18335412380E+02  0.43400726299E+02  0.00000000000E+00 0. -1.
         11    1    3    3    0    0 -0.87789842373E+01 -0.19366421526E+02  0.20446522684E+02  0.29498968407E+02  0.51100000000E-03 0. -1.
        -11    1    3    3    0    0 -0.43480963554E+01 -0.13458328509E+02 -0.13266111823E+01  0.14205366791E+02  0.51100000000E-03 0.  1.
         12    1    3    3    0    0 -0.10710473306E+01 -0.38610627500E+01 -0.78449912225E+00  0.40829385027E+01  0.00000000000E+00 0. -1.
</event>
<event>
 7    1  0.2812635E-010  0.4778724E+02  0.7816164E-02  0.1312668E+00
        -11   -1    0    0    0    0  0.00000000000E+00  0.00000000000E+00  0.45593999997E+02  0.45594000000E+02  0.51100000000E-03 0.  1.
         11   -1    0    0    0    0 -0.00000000000E+00 -0.00000000000E+00 -0.45593999997E+02  0.45594000000E+02  0.51100000000E-03 0. -1.
    9900012    2    1    2    0    0 -0.43290533740E+02  0.23100993749E+01  0.20540795267E+01  0.47787238333E+02  0.19999850854E+02 0.  0.
         12    1    1    2    0    0  0.43290533740E+02 -0.23100993749E+01 -0.20540795267E+01  0.43400761667E+02  0.00000000000E+00 0. -1.
         11    1    3    3    0    0 -0.25167233691E+02 -0.61791890857E+01 -0.11626462444E+01  0.25940774390E+02  0.51100000000E-03 0. -1.
        -11    1    3    3    0    0 -0.23839161716E+01  0.23924542526E+01  0.36355898388E+01  0.49622986006E+01  0.51100000000E-03 0.  1.
         12    1    3    3    0    0 -0.15739383877E+02  0.60968342081E+01 -0.41886406768E+00  0.16884165342E+02  0.00000000000E+00 0. -1.
</event>
<event>
 7    1  0.2812635E-010  0.4778727E+02  0.7816164E-02  0.1312668E+00
        -11   -1    0    0    0    0  0.00000000000E+00  0.00000000000E+00  0.45593999997E+02  0.45594000000E+02  0.51100000000E-03 0.  1.
         11   -1    0    0    0    0 -0.00000000000E+00 -0.00000000000E+00 -0.45593999997E+02  0.45594000000E+02  0.51100000000E-03 0. -1.
    9900012    2    1    2    0    0  0.10543205717E+01  0.22265008389E+02  0.37239508848E+02  0.47787271784E+02  0.20000003370E+02 0.  0.
         12    1    1    2    0    0 -0.10543205717E+01 -0.22265008389E+02 -0.37239508848E+02  0.43400728216E+02  0.00000000000E+00 0. -1.
         11    1    3    3    0    0 -0.80394671052E+00  0.22813381842E+00  0.18723573395E+02  0.18742213751E+02  0.51100000000E-03 0. -1.
        -11    1    3    3    0    0  0.21915063012E+01  0.17954198693E+02  0.16486342477E+02  0.24473566130E+02  0.51100000000E-03 0.  1.
         12    1    3    3    0    0 -0.33323901898E+00  0.40826758780E+01  0.20295929761E+01  0.45714919028E+01  0.00000000000E+00 0. -1.
</event>
<event>
 7    1  0.2812635E-010  0.4778729E+02  0.7816164E-02  0.1312668E+00
        -11   -1    0    0    0    0  0.00000000000E+00  0.00000000000E+00  0.45593999997E+02  0.45594000000E+02  0.51100000000E-03 0.  1.
         11   -1    0    0    0    0 -0.00000000000E+00 -0.00000000000E+00 -0.45593999997E+02  0.45594000000E+02  0.51100000000E-03 0. -1.
    9900012    2    1    2    0    0 -0.21863436973E+02  0.32337867799E+02  0.18970349378E+02  0.47787288881E+02  0.20000081325E+02 0.  0.
         12    1    1    2    0    0  0.21863436973E+02 -0.32337867799E+02 -0.18970349378E+02  0.43400711119E+02  0.00000000000E+00 0. -1.
         11    1    3    3    0    0 -0.98748394409E+00 -0.28415685654E+00  0.45113010298E+01  0.46268463235E+01  0.51100000000E-03 0. -1.
        -11    1    3    3    0    0 -0.14074805197E+02  0.27137837977E+02  0.63140279664E+01  0.31215850795E+02  0.51100000000E-03 0.  1.
        -12    1    3    3    0    0 -0.68011478325E+01  0.54841866784E+01  0.81450203819E+01  0.11944591763E+02  0.00000000000E+00 0.  1.
</event>
<event>
 7    1  0.2812635E-010  0.4778727E+02  0.7816164E-02  0.1312668E+00
        -11   -1    0    0    0    0  0.00000000000E+00  0.00000000000E+00  0.45593999997E+02  0.45594000000E+02  0.51100000000E-03 0.  1.
         11   -1    0    0    0    0 -0.00000000000E+00 -0.00000000000E+00 -0.45593999997E+02  0.45594000000E+02  0.51100000000E-03 0. -1.
    9900012    2    1    2    0    0 -0.36208591596E+02  0.12409074422E+02  0.20459130057E+02  0.47787271480E+02  0.20000001987E+02 0.  0.
         12    1    1    2    0    0  0.36208591596E+02 -0.12409074422E+02 -0.20459130057E+02  0.43400728520E+02  0.00000000000E+00 0. -1.
         11    1    3    3    0    0  0.23471432974E+01  0.11797072083E+01  0.42885655543E+00  0.26617116602E+01  0.51100000000E-03 0. -1.
        -11    1    3    3    0    0 -0.25396071722E+02  0.95361023124E+01  0.12491939018E+02  0.29865469139E+02  0.51100000000E-03 0.  1.
         12    1    3    3    0    0 -0.13159663171E+02  0.16932649009E+01  0.75383344836E+01  0.15260090681E+02  0.00000000000E+00 0. -1.
</event>
<event>
 7    1  0.2812635E-010  0.4778727E+02  0.7816164E-02  0.1312668E+00
        -11   -1    0    0    0    0  0.00000000000E+00  0.00000000000E+00  0.45593999997E+02  0.45594000000E+02  0.51100000000E-03 0. -1.
         11   -1    0    0    0    0 -0.00000000000E+00 -0.00000000000E+00 -0.45593999997E+02  0.45594000000E+02  0.51100000000E-03 0.  1.
    9900012    2    1    2    0    0  0.23201384628E+02 -0.20218290722E+02 -0.30602937821E+02  0.47787270379E+02  0.19999996967E+02 0.  0.
         12    1    1    2    0    0 -0.23201384628E+02  0.20218290722E+02  0.30602937821E+02  0.43400729621E+02  0.00000000000E+00 0. -1.
         11    1    3    3    0    0  0.26517035566E+01 -0.31424706663E+01  0.18120253320E+01  0.44933383698E+01  0.51100000000E-03 0. -1.
        -11    1    3    3    0    0  0.13117602944E+02 -0.49888360334E+01 -0.20046308788E+02  0.24470686305E+02  0.51100000000E-03 0.  1.
         12    1    3    3    0    0  0.74320781272E+01 -0.12086984022E+02 -0.12368654365E+02  0.18823245704E+02  0.00000000000E+00 0. -1.
</event>
<event>
 7    1  0.2812635E-010  0.4778727E+02  0.7816164E-02  0.1312668E+00
        -11   -1    0    0    0    0  0.00000000000E+00  0.00000000000E+00  0.45593999997E+02  0.45594000000E+02  0.51100000000E-03 0.  1.
         11   -1    0    0    0    0 -0.00000000000E+00 -0.00000000000E+00 -0.45593999997E+02  0.45594000000E+02  0.51100000000E-03 0. -1.
    9900012    2    1    2    0    0 -0.37782683499E+02  0.93524337949E+00  0.21335822970E+02  0.47787271960E+02  0.20000004175E+02 0.  0.
         12    1    1    2    0    0  0.37782683499E+02 -0.93524337949E+00 -0.21335822970E+02  0.43400728040E+02  0.00000000000E+00 0. -1.
         11    1    3    3    0    0 -0.35345982857E+01 -0.10653591864E+01 -0.22705074341E+01  0.43340027119E+01  0.51100000000E-03 0. -1.
        -11    1    3    3    0    0 -0.33659021038E+02 -0.63604538241E+00  0.20876905160E+02  0.39612869377E+02  0.51100000000E-03 0.  1.
        -12    1    3    3    0    0 -0.58906417522E+00  0.26366479483E+01  0.27294252441E+01  0.38403998710E+01  0.00000000000E+00 0.  1.
</event>
<event>
 7    1  0.2812635E-010  0.4778727E+02  0.7816164E-02  0.1312668E+00
        -11   -1    0    0    0    0  0.00000000000E+00  0.00000000000E+00  0.45593999997E+02  0.45594000000E+02  0.51100000000E-03 0. -1.
         11   -1    0    0    0    0 -0.00000000000E+00 -0.00000000000E+00 -0.45593999997E+02  0.45594000000E+02  0.51100000000E-03 0.  1.
    9900012    2    1    2    0    0  0.42110071684E+02  0.10403800674E+02  0.14582522326E+01  0.47787266075E+02  0.19999977342E+02 0.  0.
         12    1    1    2    0    0 -0.42110071684E+02 -0.10403800674E+02 -0.14582522326E+01  0.43400733925E+02  0.00000000000E+00 0. -1.
         11    1    3    3    0    0  0.42866030925E+01  0.28229153262E+01 -0.58372302293E+01  0.77728420814E+01  0.51100000000E-03 0. -1.
        -11    1    3    3    0    0  0.29953828088E+02  0.65008174304E+01  0.25397184169E+01  0.30756180099E+02  0.51100000000E-03 0.  1.
        -12    1    3    3    0    0  0.78696405036E+01  0.10800679170E+01  0.47557640450E+01  0.92582438947E+01  0.00000000000E+00 0.  1.
</event>
<event>
 7    1  0.2812635E-010  0.4778727E+02  0.7816164E-02  0.1312668E+00
        -11   -1    0    0    0    0  0.00000000000E+00  0.00000000000E+00  0.45593999997E+02  0.45594000000E+02  0.51100000000E-03 0.  1.
         11   -1    0    0    0    0 -0.00000000000E+00 -0.00000000000E+00 -0.45593999997E+02  0.45594000000E+02  0.51100000000E-03 0. -1.
    9900012    2    1    2    0    0  0.29430259973E+02  0.68275973179E+01  0.31158740933E+02  0.47787269318E+02  0.19999992128E+02 0.  0.
         12    1    1    2    0    0 -0.29430259973E+02 -0.68275973179E+01 -0.31158740933E+02  0.43400730682E+02  0.00000000000E+00 0. -1.
         11    1    3    3    0    0  0.61835931804E+01  0.53492486387E+01  0.19717049682E+02  0.21345100938E+02  0.51100000000E-03 0. -1.
        -11    1    3    3    0    0  0.15786490831E+02 -0.83279244268E+00  0.93112769097E+01  0.18346844796E+02  0.51100000000E-03 0.  1.
         12    1    3    3    0    0  0.74601759615E+01  0.23111411220E+01  0.21304143404E+01  0.80953235837E+01  0.00000000000E+00 0. -1.
</event>
<event>
 7    1  0.2812635E-010  0.4778727E+02  0.7816164E-02  0.1312668E+00
        -11   -1    0    0    0    0  0.00000000000E+00  0.00000000000E+00  0.45593999997E+02  0.45594000000E+02  0.51100000000E-03 0.  1.
         11   -1    0    0    0    0 -0.00000000000E+00 -0.00000000000E+00 -0.45593999997E+02  0.45594000000E+02  0.51100000000E-03 0. -1.
    9900012    2    1    2    0    0  0.10979266370E+01 -0.79801759571E+01  0.42646630283E+02  0.47787265839E+02  0.19999976266E+02 0.  0.
         12    1    1    2    0    0 -0.10979266370E+01  0.79801759571E+01 -0.42646630283E+02  0.43400734161E+02  0.00000000000E+00 0. -1.
         11    1    3    3    0    0  0.26811730456E+01  0.48334990312E+01  0.15326368052E+02  0.16292604448E+02  0.51100000000E-03 0. -1.
        -11    1    3    3    0    0 -0.25451884880E+01 -0.69303897041E+01  0.22935069819E+02  0.24094101223E+02  0.51100000000E-03 0.  1.
         12    1    3    3    0    0  0.96194207938E+00 -0.58832852842E+01  0.43851924121E+01  0.74005601674E+01  0.00000000000E+00 0. -1.
</event>
<event>
 7    1  0.2812635E-010  0.4778729E+02  0.7816164E-02  0.1312668E+00
        -11   -1    0    0    0    0  0.00000000000E+00  0.00000000000E+00  0.45593999997E+02  0.45594000000E+02  0.51100000000E-03 0.  1.
         11   -1    0    0    0    0 -0.00000000000E+00 -0.00000000000E+00 -0.45593999997E+02  0.45594000000E+02  0.51100000000E-03 0. -1.
    9900012    2    1    2    0    0  0.39272942595E+02 -0.14242196871E+02  0.11765095545E+02  0.47787289579E+02  0.20000084508E+02 0.  0.
         12    1    1    2    0    0 -0.39272942595E+02  0.14242196871E+02 -0.11765095545E+02  0.43400710421E+02  0.00000000000E+00 0. -1.
         11    1    3    3    0    0 -0.13105690773E+00  0.12953141513E+01  0.27358054784E+01  0.30297931514E+01  0.51100000000E-03 0. -1.
        -11    1    3    3    0    0  0.29766201824E+02 -0.11330106308E+02  0.16151798649E+01  0.31890545405E+02  0.51100000000E-03 0.  1.
        -12    1    3    3    0    0  0.96377976789E+01 -0.42074047151E+01  0.74141102021E+01  0.12866951023E+02  0.00000000000E+00 0.  1.
</event>
<event>
 7    1  0.2812635E-010  0.4778727E+02  0.7816164E-02  0.1312668E+00
        -11   -1    0    0    0    0  0.00000000000E+00  0.00000000000E+00  0.45593999997E+02  0.45594000000E+02  0.51100000000E-03 0. -1.
         11   -1    0    0    0    0 -0.00000000000E+00 -0.00000000000E+00 -0.45593999997E+02  0.45594000000E+02  0.51100000000E-03 0.  1.
    9900012    2    1    2    0    0 -0.12181409089E+01 -0.43025808733E+02  0.55604935752E+01  0.47787272204E+02  0.20000005288E+02 0.  0.
         12    1    1    2    0    0  0.12181409089E+01  0.43025808733E+02 -0.55604935752E+01  0.43400727796E+02  0.00000000000E+00 0. -1.
         11    1    3    3    0    0  0.97282300880E+00 -0.14816420838E+01 -0.14051581899E+01  0.22618836554E+01  0.51100000000E-03 0. -1.
        -11    1    3    3    0    0 -0.14914665816E+01 -0.19405395292E+01 -0.37624661846E+01  0.44884650249E+01  0.51100000000E-03 0.  1.
        -12    1    3    3    0    0 -0.69949733610E+00 -0.39603627120E+02  0.10728117950E+02  0.41036923524E+02  0.00000000000E+00 0.  1.
</event>
<event>
 7    1  0.2812635E-010  0.4778725E+02  0.7816164E-02  0.1312668E+00
        -11   -1    0    0    0    0  0.00000000000E+00  0.00000000000E+00  0.45593999997E+02  0.45594000000E+02  0.51100000000E-03 0. -1.
         11   -1    0    0    0    0 -0.00000000000E+00 -0.00000000000E+00 -0.45593999997E+02  0.45594000000E+02  0.51100000000E-03 0.  1.
    9900012    2    1    2    0    0 -0.56500489958E+01  0.12101739519E+01 -0.43014383597E+02  0.47787253798E+02  0.19999921368E+02 0.  0.
         12    1    1    2    0    0  0.56500489958E+01 -0.12101739519E+01  0.43014383597E+02  0.43400746202E+02  0.00000000000E+00 0. -1.
         11    1    3    3    0    0  0.30814053717E+01 -0.22693489526E+01 -0.20869431020E+02  0.21217402176E+02  0.51100000000E-03 0. -1.
        -11    1    3    3    0    0 -0.31119065584E+01  0.69654848826E+01 -0.85958460632E+01  0.11493063642E+02  0.51100000000E-03 0.  1.
        -12    1    3    3    0    0 -0.56195478090E+01 -0.34859619781E+01 -0.13549106513E+02  0.15076787980E+02  0.00000000000E+00 0.  1.
</event>
<event>
 7    1  0.2812635E-010  0.4778727E+02  0.7816164E-02  0.1312668E+00
        -11   -1    0    0    0    0  0.00000000000E+00  0.00000000000E+00  0.45593999997E+02  0.45594000000E+02  0.51100000000E-03 0.  1.
         11   -1    0    0    0    0 -0.00000000000E+00 -0.00000000000E+00 -0.45593999997E+02  0.45594000000E+02  0.51100000000E-03 0. -1.
    9900012    2    1    2    0    0 -0.19842540126E+02 -0.19112823361E+02  0.33535009879E+02  0.47787270708E+02  0.19999998467E+02 0.  0.
         12    1    1    2    0    0  0.19842540126E+02  0.19112823361E+02 -0.33535009879E+02  0.43400729292E+02  0.00000000000E+00 0. -1.
         11    1    3    3    0    0 -0.15283024403E+02 -0.46962113650E+01  0.13990077825E+02  0.21244940901E+02  0.51100000000E-03 0. -1.
        -11    1    3    3    0    0 -0.59693948335E+01 -0.15209390829E+02  0.17886189129E+02  0.24225503212E+02  0.51100000000E-03 0.  1.
         12    1    3    3    0    0  0.14098791100E+01  0.79277883231E+00  0.16587429250E+01  0.23168265954E+01  0.00000000000E+00 0. -1.
</event>
<event>
 7    1  0.2812635E-010  0.4778727E+02  0.7816164E-02  0.1312668E+00
        -11   -1    0    0    0    0  0.00000000000E+00  0.00000000000E+00  0.45593999997E+02  0.45594000000E+02  0.51100000000E-03 0.  1.
         11   -1    0    0    0    0 -0.00000000000E+00 -0.00000000000E+00 -0.45593999997E+02  0.45594000000E+02  0.51100000000E-03 0. -1.
    9900012    2    1    2    0    0 -0.31473755888E+02 -0.95748385718E+01  0.28308104921E+02  0.47787266739E+02  0.19999980370E+02 0.  0.
         12    1    1    2    0    0  0.31473755888E+02  0.95748385718E+01 -0.28308104921E+02  0.43400733261E+02  0.00000000000E+00 0. -1.
         11    1    3    3    0    0 -0.96329445751E+00 -0.36168440437E+01 -0.94893538848E+00  0.38613437662E+01  0.51100000000E-03 0. -1.
        -11    1    3    3    0    0 -0.19982301750E+02 -0.37834235553E+01  0.12057271761E+02  0.23642852611E+02  0.51100000000E-03 0.  1.
         12    1    3    3    0    0 -0.10528159681E+02 -0.21745709729E+01  0.17199768549E+02  0.20283070362E+02  0.00000000000E+00 0. -1.
</event>
<event>
 7    1  0.2812635E-010  0.4778727E+02  0.7816164E-02  0.1312668E+00
        -11   -1    0    0    0    0  0.00000000000E+00  0.00000000000E+00  0.45593999997E+02  0.45594000000E+02  0.51100000000E-03 0.  1.
         11   -1    0    0    0    0 -0.00000000000E+00 -0.00000000000E+00 -0.45593999997E+02  0.45594000000E+02  0.51100000000E-03 0. -1.
    9900012    2    1    2    0    0  0.33567515439E+01  0.25872674230E+02  0.34683716678E+02  0.47787271258E+02  0.20000000975E+02 0.  0.
         12    1    1    2    0    0 -0.33567515439E+01 -0.25872674230E+02 -0.34683716678E+02  0.43400728742E+02  0.00000000000E+00 0. -1.
         11    1    3    3    0    0  0.16863154292E+01 -0.22008660045E+01  0.57925595401E+01  0.64219325116E+01  0.51100000000E-03 0. -1.
        -11    1    3    3    0    0  0.20910093047E+01  0.28530987940E+02  0.26858745604E+02  0.39240053624E+02  0.51100000000E-03 0.  1.
        -12    1    3    3    0    0 -0.42057318996E+00 -0.45744770551E+00  0.20324115336E+01  0.21252851228E+01  0.00000000000E+00 0.  1.
</event>
<event>
 7    1  0.2812635E-010  0.4778726E+02  0.7816164E-02  0.1312668E+00
        -11   -1    0    0    0    0  0.00000000000E+00  0.00000000000E+00  0.45593999997E+02  0.45594000000E+02  0.51100000000E-03 0.  1.
         11   -1    0    0    0    0 -0.00000000000E+00 -0.00000000000E+00 -0.45593999997E+02  0.45594000000E+02  0.51100000000E-03 0. -1.
    9900012    2    1    2    0    0 -0.29459782201E+02  0.21574556590E+02  0.23458132100E+02  0.47787260133E+02  0.19999950249E+02 0.  0.
         12    1    1    2    0    0  0.29459782201E+02 -0.21574556590E+02 -0.23458132100E+02  0.43400739867E+02  0.00000000000E+00 0. -1.
         11    1    3    3    0    0 -0.12364214138E+02  0.32162325503E+01  0.89573393730E+01  0.15602944337E+02  0.51100000000E-03 0. -1.
        -11    1    3    3    0    0 -0.15769308662E+02  0.20464389766E+02  0.14633741613E+02  0.29691896841E+02  0.51100000000E-03 0.  1.
        -12    1    3    3    0    0 -0.13262594013E+01 -0.21060657258E+01 -0.13294888650E+00  0.24924189550E+01  0.00000000000E+00 0.  1.
</event>
<event>
 7    1  0.2812635E-010  0.4778727E+02  0.7816164E-02  0.1312668E+00
        -11   -1    0    0    0    0  0.00000000000E+00  0.00000000000E+00  0.45593999997E+02  0.45594000000E+02  0.51100000000E-03 0.  1.
         11   -1    0    0    0    0 -0.00000000000E+00 -0.00000000000E+00 -0.45593999997E+02  0.45594000000E+02  0.51100000000E-03 0. -1.
    9900012    2    1    2    0    0  0.26465292722E+02  0.13796239915E+01  0.34370163199E+02  0.47787271901E+02  0.20000003904E+02 0.  0.
         12    1    1    2    0    0 -0.26465292722E+02 -0.13796239915E+01 -0.34370163199E+02  0.43400728099E+02  0.00000000000E+00 0. -1.
         11    1    3    3    0    0  0.13975128812E+02  0.41593635054E+01  0.89877346131E+01  0.17128453048E+02  0.51100000000E-03 0. -1.
        -11    1    3    3    0    0  0.64560529907E+01 -0.69131693115E+01  0.10883601228E+02  0.14419615325E+02  0.51100000000E-03 0.  1.
         12    1    3    3    0    0  0.60341109196E+01  0.41334297976E+01  0.14498827358E+02  0.16239203528E+02  0.00000000000E+00 0. -1.
</event>
<event>
 7    1  0.2812635E-010  0.4778727E+02  0.7816164E-02  0.1312668E+00
        -11   -1    0    0    0    0  0.00000000000E+00  0.00000000000E+00  0.45593999997E+02  0.45594000000E+02  0.51100000000E-03 0. -1.
         11   -1    0    0    0    0 -0.00000000000E+00 -0.00000000000E+00 -0.45593999997E+02  0.45594000000E+02  0.51100000000E-03 0.  1.
    9900012    2    1    2    0    0 -0.34453433442E+01 -0.24630937241E+02 -0.35567821634E+02  0.47787269639E+02  0.19999993591E+02 0.  0.
         12    1    1    2    0    0  0.34453433442E+01  0.24630937241E+02  0.35567821634E+02  0.43400730361E+02  0.00000000000E+00 0. -1.
         11    1    3    3    0    0 -0.12424192469E+01 -0.19627672681E+01  0.23237145848E+01  0.32856826789E+01  0.51100000000E-03 0. -1.
        -11    1    3    3    0    0 -0.68440199623E+00 -0.18541701013E+02 -0.27045906916E+02  0.32798539048E+02  0.51100000000E-03 0.  1.
         12    1    3    3    0    0 -0.15185221011E+01 -0.41264689599E+01 -0.10845629303E+02  0.11703047912E+02  0.00000000000E+00 0. -1.
</event>
<event>
 7    1  0.2812635E-010  0.4778727E+02  0.7816164E-02  0.1312668E+00
        -11   -1    0    0    0    0  0.00000000000E+00  0.00000000000E+00  0.45593999997E+02  0.45594000000E+02  0.51100000000E-03 0.  1.
         11   -1    0    0    0    0 -0.00000000000E+00 -0.00000000000E+00 -0.45593999997E+02  0.45594000000E+02  0.51100000000E-03 0. -1.
    9900012    2    1    2    0    0  0.19829294141E+02 -0.32628207033E+02  0.20635466665E+02  0.47787270918E+02  0.19999999425E+02 0.  0.
         12    1    1    2    0    0 -0.19829294141E+02  0.32628207033E+02 -0.20635466665E+02  0.43400729082E+02  0.00000000000E+00 0. -1.
         11    1    3    3    0    0  0.11596201449E+01  0.78405845003E+00  0.22718070754E+00  0.14181247719E+01  0.51100000000E-03 0. -1.
        -11    1    3    3    0    0 -0.28341341115E+01 -0.51212846803E+01  0.12026828514E+01  0.59754764866E+01  0.51100000000E-03 0.  1.
        -12    1    3    3    0    0  0.21503808108E+02 -0.28290980803E+02  0.19205603106E+02  0.40393669660E+02  0.00000000000E+00 0.  1.
</event>
<event>
 7    1  0.2812635E-010  0.4778727E+02  0.7816164E-02  0.1312668E+00
        -11   -1    0    0    0    0  0.00000000000E+00  0.00000000000E+00  0.45593999997E+02  0.45594000000E+02  0.51100000000E-03 0.  1.
         11   -1    0    0    0    0 -0.00000000000E+00 -0.00000000000E+00 -0.45593999997E+02  0.45594000000E+02  0.51100000000E-03 0. -1.
    9900012    2    1    2    0    0  0.28348681847E+02 -0.15846014092E+02  0.28790267493E+02  0.47787269276E+02  0.19999991937E+02 0.  0.
         12    1    1    2    0    0 -0.28348681847E+02  0.15846014092E+02 -0.28790267493E+02  0.43400730724E+02  0.00000000000E+00 0. -1.
         11    1    3    3    0    0  0.11097758336E+02  0.46520653584E+00  0.42120222052E+01  0.11879300843E+02  0.51100000000E-03 0.  1.
        -11    1    3    3    0    0  0.50114361437E+01 -0.84351959854E+01  0.16671363087E+02  0.19344285227E+02  0.51100000000E-03 0. -1.
        -12    1    3    3    0    0  0.12239487367E+02 -0.78760246425E+01  0.79068822012E+01  0.16563683205E+02  0.00000000000E+00 0.  1.
</event>
<event>
 7    1  0.2812635E-010  0.4778727E+02  0.7816164E-02  0.1312668E+00
        -11   -1    0    0    0    0  0.00000000000E+00  0.00000000000E+00  0.45593999997E+02  0.45594000000E+02  0.51100000000E-03 0. -1.
         11   -1    0    0    0    0 -0.00000000000E+00 -0.00000000000E+00 -0.45593999997E+02  0.45594000000E+02  0.51100000000E-03 0.  1.
    9900012    2    1    2    0    0 -0.13621032380E+02 -0.39876155965E+02 -0.10391504552E+02  0.47787266083E+02  0.19999977380E+02 0.  0.
         12    1    1    2    0    0  0.13621032380E+02  0.39876155965E+02  0.10391504552E+02  0.43400733917E+02  0.00000000000E+00 0. -1.
         11    1    3    3    0    0 -0.35641423743E+01 -0.61999387979E+01 -0.50423209577E+01  0.87502773021E+01  0.51100000000E-03 0. -1.
        -11    1    3    3    0    0 -0.13861237731E+02 -0.20465098319E+02 -0.15126105887E+01  0.24763726531E+02  0.51100000000E-03 0.  1.
        -12    1    3    3    0    0  0.38043477250E+01 -0.13211118848E+02 -0.38365730054E+01  0.14273262250E+02  0.00000000000E+00 0.  1.
</event>
<event>
 7    1  0.2812635E-010  0.4778728E+02  0.7816164E-02  0.1312668E+00
        -11   -1    0    0    0    0  0.00000000000E+00  0.00000000000E+00  0.45593999997E+02  0.45594000000E+02  0.51100000000E-03 0.  1.
         11   -1    0    0    0    0 -0.00000000000E+00 -0.00000000000E+00 -0.45593999997E+02  0.45594000000E+02  0.51100000000E-03 0. -1.
    9900012    2    1    2    0    0  0.16540720658E+02 -0.39368782722E+02  0.77541117623E+01  0.47787277171E+02  0.20000027933E+02 0.  0.
         12    1    1    2    0    0 -0.16540720658E+02  0.39368782722E+02 -0.77541117623E+01  0.43400722829E+02  0.00000000000E+00 0. -1.
         11    1    3    3    0    0  0.55423290595E+01 -0.36126397671E+01  0.53237280202E+01  0.84917994432E+01  0.51100000000E-03 0.  1.
        -11    1    3    3    0    0  0.12902058915E+02 -0.34525570281E+02  0.29316370853E+01  0.36973945201E+02  0.51100000000E-03 0. -1.
        -12    1    3    3    0    0 -0.19036673166E+01 -0.12305726734E+01 -0.50125334320E+00  0.23215325263E+01  0.00000000000E+00 0.  1.
</event>
<event>
 7    1  0.3104480E-010  0.4778727E+02  0.7816164E-02  0.1312668E+00
        -11   -1    0    0    0    0  0.00000000000E+00  0.00000000000E+00  0.45593999997E+02  0.45594000000E+02  0.51100000000E-03 0. -1.
         11   -1    0    0    0    0 -0.00000000000E+00 -0.00000000000E+00 -0.45593999997E+02  0.45594000000E+02  0.51100000000E-03 0.  1.
    9900012    2    1    2    0    0  0.13859534049E+01  0.45896783507E+01 -0.43135101965E+02  0.47787273788E+02  0.20000012507E+02 0.  0.
         12    1    1    2    0    0 -0.13859534049E+01 -0.45896783507E+01  0.43135101965E+02  0.43400726212E+02  0.00000000000E+00 0. -1.
         11    1    3    3    0    0  0.36561785858E+01 -0.12479381316E+01 -0.93898320190E+00  0.39757617065E+01  0.51100000000E-03 0. -1.
        -11    1    3    3    0    0 -0.32222307093E+01  0.81495637581E+01 -0.26342474185E+02  0.27761918281E+02  0.51100000000E-03 0.  1.
         12    1    3    3    0    0  0.95200552826E+00 -0.23119472758E+01 -0.15853644578E+02  0.16049593800E+02  0.00000000000E+00 0. -1.
</event>
<event>
 7    1  0.2812635E-010  0.4778727E+02  0.7816164E-02  0.1312668E+00
        -11   -1    0    0    0    0  0.00000000000E+00  0.00000000000E+00  0.45593999997E+02  0.45594000000E+02  0.51100000000E-03 0.  1.
         11   -1    0    0    0    0 -0.00000000000E+00 -0.00000000000E+00 -0.45593999997E+02  0.45594000000E+02  0.51100000000E-03 0. -1.
    9900012    2    1    2    0    0 -0.10534673751E+02  0.16329513414E+02  0.38807098118E+02  0.47787271622E+02  0.20000002635E+02 0.  0.
         12    1    1    2    0    0  0.10534673751E+02 -0.16329513414E+02 -0.38807098118E+02  0.43400728378E+02  0.00000000000E+00 0. -1.
         11    1    3    3    0    0 -0.11184005418E+02  0.31301367667E+01  0.18722541113E+02  0.22032096572E+02  0.51100000000E-03 0. -1.
        -11    1    3    3    0    0 -0.72569897669E-01  0.55979145950E+01  0.16296925884E+02  0.17231706466E+02  0.51100000000E-03 0.  1.
         12    1    3    3    0    0  0.72190156462E+00  0.76014620525E+01  0.37876311208E+01  0.85234685846E+01  0.00000000000E+00 0. -1.
</event>
<event>
 7    1  0.2812635E-010  0.4778727E+02  0.7816164E-02  0.1312668E+00
        -11   -1    0    0    0    0  0.00000000000E+00  0.00000000000E+00  0.45593999997E+02  0.45594000000E+02  0.51100000000E-03 0. -1.
         11   -1    0    0    0    0 -0.00000000000E+00 -0.00000000000E+00 -0.45593999997E+02  0.45594000000E+02  0.51100000000E-03 0.  1.
    9900012    2    1    2    0    0 -0.15297882632E+02 -0.40166494053E+02  0.60208640436E+01  0.47787271188E+02  0.20000000655E+02 0.  0.
         12    1    1    2    0    0  0.15297882632E+02  0.40166494053E+02 -0.60208640436E+01  0.43400728812E+02  0.00000000000E+00 0. -1.
         11    1    3    3    0    0 -0.87383391864E+01 -0.33009734809E+01  0.24198268741E+01  0.96493813283E+01  0.51100000000E-03 0. -1.
        -11    1    3    3    0    0 -0.18949761492E+01 -0.21945386246E+02  0.44912740901E+01  0.22480268132E+02  0.51100000000E-03 0.  1.
         12    1    3    3    0    0 -0.46645672967E+01 -0.14920134327E+02 -0.89023692066E+00  0.15657621728E+02  0.00000000000E+00 0. -1.
</event>
<event>
 7    1  0.2812635E-010  0.4778727E+02  0.7816164E-02  0.1312668E+00
        -11   -1    0    0    0    0  0.00000000000E+00  0.00000000000E+00  0.45593999997E+02  0.45594000000E+02  0.51100000000E-03 0.  1.
         11   -1    0    0    0    0 -0.00000000000E+00 -0.00000000000E+00 -0.45593999997E+02  0.45594000000E+02  0.51100000000E-03 0. -1.
    9900012    2    1    2    0    0  0.31953812560E+02 -0.25110977693E+02  0.15232075136E+02  0.47787269007E+02  0.19999990709E+02 0.  0.
         12    1    1    2    0    0 -0.31953812560E+02  0.25110977693E+02 -0.15232075136E+02  0.43400730993E+02  0.00000000000E+00 0. -1.
         11    1    3    3    0    0  0.24570882159E+01 -0.81342688300E+01  0.60595715259E+01  0.10436571240E+02  0.51100000000E-03 0. -1.
        -11    1    3    3    0    0  0.14845715107E+02 -0.76068286564E+01 -0.18150047640E+01  0.16779551299E+02  0.51100000000E-03 0.  1.
        -12    1    3    3    0    0  0.14651009237E+02 -0.93698802069E+01  0.10987508374E+02  0.20571146468E+02  0.00000000000E+00 0.  1.
</event>
<event>
 7    1  0.2812635E-010  0.4778727E+02  0.7816164E-02  0.1312668E+00
        -11   -1    0    0    0    0  0.00000000000E+00  0.00000000000E+00  0.45593999997E+02  0.45594000000E+02  0.51100000000E-03 0.  1.
         11   -1    0    0    0    0 -0.00000000000E+00 -0.00000000000E+00 -0.45593999997E+02  0.45594000000E+02  0.51100000000E-03 0. -1.
    9900012    2    1    2    0    0  0.32861586706E+02 -0.87494019600E+00  0.28336792139E+02  0.47787272012E+02  0.20000004411E+02 0.  0.
         12    1    1    2    0    0 -0.32861586706E+02  0.87494019600E+00 -0.28336792139E+02  0.43400727988E+02  0.00000000000E+00 0. -1.
         11    1    3    3    0    0  0.23271289600E+02 -0.65395429740E+01  0.12408571628E+02  0.27171514350E+02  0.51100000000E-03 0. -1.
        -11    1    3    3    0    0  0.94617553516E+01  0.68774179353E+01  0.15252702878E+02  0.19221566979E+02  0.51100000000E-03 0.  1.
         12    1    3    3    0    0  0.12854175472E+00 -0.12128151573E+01  0.67551763253E+00  0.13941906829E+01  0.00000000000E+00 0. -1.
</event>
<event>
 7    1  0.2812635E-010  0.4778728E+02  0.7816164E-02  0.1312668E+00
        -11   -1    0    0    0    0  0.00000000000E+00  0.00000000000E+00  0.45593999997E+02  0.45594000000E+02  0.51100000000E-03 0.  1.
         11   -1    0    0    0    0 -0.00000000000E+00 -0.00000000000E+00 -0.45593999997E+02  0.45594000000E+02  0.51100000000E-03 0. -1.
    9900012    2    1    2    0    0 -0.52372398507E+01 -0.42406809027E+02 -0.76063256487E+01  0.47787281999E+02  0.20000049945E+02 0.  0.
         12    1    1    2    0    0  0.52372398507E+01  0.42406809027E+02  0.76063256487E+01  0.43400718001E+02  0.00000000000E+00 0. -1.
         11    1    3    3    0    0  0.39895882514E+01 -0.10852797057E+02  0.20342004972E+01  0.11740442509E+02  0.51100000000E-03 0. -1.
        -11    1    3    3    0    0 -0.85853197757E+01 -0.13059902335E+02 -0.77505698664E+01  0.17445346032E+02  0.51100000000E-03 0.  1.
        -12    1    3    3    0    0 -0.64150832637E+00 -0.18494109636E+02 -0.18899562795E+01  0.18601493458E+02  0.00000000000E+00 0.  1.
</event>
<event>
 7    1  0.2812635E-010  0.4778727E+02  0.7816164E-02  0.1312668E+00
        -11   -1    0    0    0    0  0.00000000000E+00  0.00000000000E+00  0.45593999997E+02  0.45594000000E+02  0.51100000000E-03 0. -1.
         11   -1    0    0    0    0 -0.00000000000E+00 -0.00000000000E+00 -0.45593999997E+02  0.45594000000E+02  0.51100000000E-03 0.  1.
    9900012    2    1    2    0    0 -0.32988626532E+02 -0.20629808308E+02 -0.19229788452E+02  0.47787271490E+02  0.20000002030E+02 0.  0.
         12    1    1    2    0    0  0.32988626532E+02  0.20629808308E+02  0.19229788452E+02  0.43400728510E+02  0.00000000000E+00 0. -1.
         11    1    3    3    0    0 -0.84988843415E+01 -0.68249798424E+01 -0.13967990550E+02  0.17717678887E+02  0.51100000000E-03 0. -1.
        -11    1    3    3    0    0 -0.19230449978E+02 -0.12364427290E+02 -0.55966481350E+00  0.22869247769E+02  0.51100000000E-03 0.  1.
        -12    1    3    3    0    0 -0.52592922124E+01 -0.14404011760E+01 -0.47021330895E+01  0.72003448330E+01  0.00000000000E+00 0.  1.
</event>
<event>
 7    1  0.2812635E-010  0.4778728E+02  0.7816164E-02  0.1312668E+00
        -11   -1    0    0    0    0  0.00000000000E+00  0.00000000000E+00  0.45593999997E+02  0.45594000000E+02  0.51100000000E-03 0.  1.
         11   -1    0    0    0    0 -0.00000000000E+00 -0.00000000000E+00 -0.45593999997E+02  0.45594000000E+02  0.51100000000E-03 0. -1.
    9900012    2    1    2    0    0  0.14336489281E+01 -0.28626163982E+02  0.32590029978E+02  0.47787278030E+02  0.20000031849E+02 0.  0.
         12    1    1    2    0    0 -0.14336489281E+01  0.28626163982E+02 -0.32590029978E+02  0.43400721970E+02  0.00000000000E+00 0. -1.
         11    1    3    3    0    0 -0.17092374119E+01 -0.20477105363E+01 -0.90898249385E+00  0.28179532299E+01  0.51100000000E-03 0. -1.
        -11    1    3    3    0    0  0.69959102217E+00 -0.92342972029E+01  0.22386049877E+02  0.24225955126E+02  0.51100000000E-03 0.  1.
        -12    1    3    3    0    0  0.24432953178E+01 -0.17344156243E+02  0.11112962595E+02  0.20743369674E+02  0.00000000000E+00 0.  1.
</event>
<event>
 7    1  0.2812635E-010  0.4778724E+02  0.7816164E-02  0.1312668E+00
        -11   -1    0    0    0    0  0.00000000000E+00  0.00000000000E+00  0.45593999997E+02  0.45594000000E+02  0.51100000000E-03 0.  1.
         11   -1    0    0    0    0 -0.00000000000E+00 -0.00000000000E+00 -0.45593999997E+02  0.45594000000E+02  0.51100000000E-03 0. -1.
    9900012    2    1    2    0    0 -0.33310154263E+02  0.22221426754E+02  0.16741212346E+02  0.47787235320E+02  0.19999837116E+02 0.  0.
         12    1    1    2    0    0  0.33310154263E+02 -0.22221426754E+02 -0.16741212346E+02  0.43400764680E+02  0.00000000000E+00 0. -1.
         11    1    3    3    0    0 -0.75556426623E+01 -0.60471013854E+00 -0.58698922596E+00  0.76024974189E+01  0.51100000000E-03 0. -1.
        -11    1    3    3    0    0 -0.85553715751E+01  0.15076474331E+02  0.94287227345E+01  0.19733100965E+02  0.51100000000E-03 0.  1.
        -12    1    3    3    0    0 -0.17199140025E+02  0.77496625620E+01  0.78994788379E+01  0.20451636936E+02  0.00000000000E+00 0.  1.
</event>
<event>
 7    1  0.2812635E-010  0.4778727E+02  0.7816164E-02  0.1312668E+00
        -11   -1    0    0    0    0  0.00000000000E+00  0.00000000000E+00  0.45593999997E+02  0.45594000000E+02  0.51100000000E-03 0.  1.
         11   -1    0    0    0    0 -0.00000000000E+00 -0.00000000000E+00 -0.45593999997E+02  0.45594000000E+02  0.51100000000E-03 0. -1.
    9900012    2    1    2    0    0  0.61235923776E+01 -0.42440491023E+02  0.67029430004E+01  0.47787272970E+02  0.20000008781E+02 0.  0.
         12    1    1    2    0    0 -0.61235923776E+01  0.42440491023E+02 -0.67029430004E+01  0.43400727030E+02  0.00000000000E+00 0. -1.
         11    1    3    3    0    0 -0.14055114093E+01 -0.38675043358E+01 -0.22943901542E+01  0.47113987891E+01  0.51100000000E-03 0. -1.
        -11    1    3    3    0    0  0.11901371912E+02 -0.32056245937E+02  0.83669828618E+01  0.35203010658E+02  0.51100000000E-03 0.  1.
        -12    1    3    3    0    0 -0.43722681248E+01 -0.65167407499E+01  0.63035029286E+00  0.78728635228E+01  0.00000000000E+00 0.  1.
</event>
<event>
 7    1  0.2812635E-010  0.4778727E+02  0.7816164E-02  0.1312668E+00
        -11   -1    0    0    0    0  0.00000000000E+00  0.00000000000E+00  0.45593999997E+02  0.45594000000E+02  0.51100000000E-03 0.  1.
         11   -1    0    0    0    0 -0.00000000000E+00 -0.00000000000E+00 -0.45593999997E+02  0.45594000000E+02  0.51100000000E-03 0. -1.
    9900012    2    1    2    0    0  0.12558786437E+02 -0.10281541511E+02  0.40251589016E+02  0.47787266931E+02  0.19999981245E+02 0.  0.
         12    1    1    2    0    0 -0.12558786437E+02  0.10281541511E+02 -0.40251589016E+02  0.43400733069E+02  0.00000000000E+00 0. -1.
         11    1    3    3    0    0  0.26680035804E+01  0.18150599437E+01  0.26631636330E+02  0.26826418687E+02  0.51100000000E-03 0. -1.
        -11    1    3    3    0    0  0.74277170162E+01 -0.83786398237E+01  0.11399774304E+02  0.15978968672E+02  0.51100000000E-03 0.  1.
        -12    1    3    3    0    0  0.24630658402E+01 -0.37179616307E+01  0.22201783821E+01  0.49818795719E+01  0.00000000000E+00 0.  1.
</event>
<event>
 7    1  0.2812635E-010  0.4778727E+02  0.7816164E-02  0.1312668E+00
        -11   -1    0    0    0    0  0.00000000000E+00  0.00000000000E+00  0.45593999997E+02  0.45594000000E+02  0.51100000000E-03 0. -1.
         11   -1    0    0    0    0 -0.00000000000E+00 -0.00000000000E+00 -0.45593999997E+02  0.45594000000E+02  0.51100000000E-03 0.  1.
    9900012    2    1    2    0    0 -0.14739065919E+02  0.40740531185E+02  0.25675076324E+01  0.47787273729E+02  0.20000012242E+02 0.  0.
         12    1    1    2    0    0  0.14739065919E+02 -0.40740531185E+02 -0.25675076324E+01  0.43400726271E+02  0.00000000000E+00 0. -1.
         11    1    3    3    0    0 -0.58809226392E+01  0.11859834607E+02  0.22600068333E+01  0.13429391615E+02  0.51100000000E-03 0. -1.
        -11    1    3    3    0    0 -0.12979312555E+02  0.14959143692E+02  0.91845482259E+00  0.19826298039E+02  0.51100000000E-03 0.  1.
        -12    1    3    3    0    0  0.41211692750E+01  0.13921552886E+02 -0.61095402351E+00  0.14531584076E+02  0.00000000000E+00 0.  1.
</event>
<event>
 7    1  0.2812635E-010  0.4778726E+02  0.7816164E-02  0.1312668E+00
        -11   -1    0    0    0    0  0.00000000000E+00  0.00000000000E+00  0.45593999997E+02  0.45594000000E+02  0.51100000000E-03 0. -1.
         11   -1    0    0    0    0 -0.00000000000E+00 -0.00000000000E+00 -0.45593999997E+02  0.45594000000E+02  0.51100000000E-03 0.  1.
    9900012    2    1    2    0    0 -0.76173576724E+01 -0.41956313343E+02 -0.80788507168E+01  0.47787260420E+02  0.19999951557E+02 0.  0.
         12    1    1    2    0    0  0.76173576724E+01  0.41956313343E+02  0.80788507168E+01  0.43400739580E+02  0.00000000000E+00 0. -1.
         11    1    3    3    0    0 -0.16481901769E+01 -0.48642941454E+00  0.30234598237E+01  0.34777081536E+01  0.51100000000E-03 0. -1.
        -11    1    3    3    0    0 -0.17131712290E+00 -0.29821131963E+02 -0.66224280899E+01  0.30548090205E+02  0.51100000000E-03 0.  1.
        -12    1    3    3    0    0 -0.57978503726E+01 -0.11648751965E+02 -0.44798824506E+01  0.13761462061E+02  0.00000000000E+00 0.  1.
</event>
<event>
 7    1  0.2812635E-010  0.4778727E+02  0.7816164E-02  0.1312668E+00
        -11   -1    0    0    0    0  0.00000000000E+00  0.00000000000E+00  0.45593999997E+02  0.45594000000E+02  0.51100000000E-03 0.  1.
         11   -1    0    0    0    0 -0.00000000000E+00 -0.00000000000E+00 -0.45593999997E+02  0.45594000000E+02  0.51100000000E-03 0. -1.
    9900012    2    1    2    0    0  0.16499499213E+02  0.39395763152E+02 -0.77047732351E+01  0.47787272365E+02  0.20000006021E+02 0.  0.
         12    1    1    2    0    0 -0.16499499213E+02 -0.39395763152E+02  0.77047732351E+01  0.43400727635E+02  0.00000000000E+00 0. -1.
         11    1    3    3    0    0 -0.73625053852E+00  0.11305958369E+02 -0.82442377020E+01  0.14011931167E+02  0.51100000000E-03 0. -1.
        -11    1    3    3    0    0  0.10582668794E+02  0.18295583311E+02  0.38443503042E+01  0.21482557507E+02  0.51100000000E-03 0.  1.
         12    1    3    3    0    0  0.66530809577E+01  0.97942214725E+01 -0.33048858373E+01  0.12292783691E+02  0.00000000000E+00 0. -1.
</event>
<event>
 7    1  0.2812635E-010  0.4778727E+02  0.7816164E-02  0.1312668E+00
        -11   -1    0    0    0    0  0.00000000000E+00  0.00000000000E+00  0.45593999997E+02  0.45594000000E+02  0.51100000000E-03 0. -1.
         11   -1    0    0    0    0 -0.00000000000E+00 -0.00000000000E+00 -0.45593999997E+02  0.45594000000E+02  0.51100000000E-03 0.  1.
    9900012    2    1    2    0    0 -0.36010048062E+02  0.13937585701E+02  0.19815235017E+02  0.47787269644E+02  0.19999993616E+02 0.  0.
         12    1    1    2    0    0  0.36010048062E+02 -0.13937585701E+02 -0.19815235017E+02  0.43400730356E+02  0.00000000000E+00 0. -1.
         11    1    3    3    0    0 -0.21539865019E+01  0.42447561879E+01  0.76657662151E+01  0.90233909851E+01  0.51100000000E-03 0. -1.
        -11    1    3    3    0    0 -0.15043051425E+02  0.52564981471E+01  0.25603463394E-02  0.15934998455E+02  0.51100000000E-03 0.  1.
         12    1    3    3    0    0 -0.18813010136E+02  0.44363313663E+01  0.12146908456E+02  0.22828880204E+02  0.00000000000E+00 0. -1.
</event>
<event>
 7    1  0.2812635E-010  0.4778727E+02  0.7816164E-02  0.1312668E+00
        -11   -1    0    0    0    0  0.00000000000E+00  0.00000000000E+00  0.45593999997E+02  0.45594000000E+02  0.51100000000E-03 0.  1.
         11   -1    0    0    0    0 -0.00000000000E+00 -0.00000000000E+00 -0.45593999997E+02  0.45594000000E+02  0.51100000000E-03 0. -1.
    9900012    2    1    2    0    0  0.25861160674E+02 -0.20006365973E+02  0.28540648640E+02  0.47787274940E+02  0.20000017763E+02 0.  0.
         12    1    1    2    0    0 -0.25861160674E+02  0.20006365973E+02 -0.28540648640E+02  0.43400725060E+02  0.00000000000E+00 0. -1.
         11    1    3    3    0    0 -0.82484351633E+00  0.23207009595E+01  0.54715139046E-01  0.24635368431E+01  0.51100000000E-03 0. -1.
        -11    1    3    3    0    0  0.20304084603E+02 -0.14608475268E+02  0.17951753114E+02  0.30788453052E+02  0.51100000000E-03 0.  1.
         12    1    3    3    0    0  0.63819195882E+01 -0.77185916648E+01  0.10534180387E+02  0.14535285045E+02  0.00000000000E+00 0. -1.
</event>
<event>
 7    1  0.3040560E-010  0.4778727E+02  0.7816164E-02  0.1312668E+00
        -11   -1    0    0    0    0  0.00000000000E+00  0.00000000000E+00  0.45593999997E+02  0.45594000000E+02  0.51100000000E-03 0.  1.
         11   -1    0    0    0    0 -0.00000000000E+00 -0.00000000000E+00 -0.45593999997E+02  0.45594000000E+02  0.51100000000E-03 0. -1.
    9900012    2    1    2    0    0  0.32330175183E+02  0.24894688455E+02  0.14786387129E+02  0.47787274373E+02  0.20000015175E+02 0.  0.
         12    1    1    2    0    0 -0.32330175183E+02 -0.24894688455E+02 -0.14786387129E+02  0.43400725627E+02  0.00000000000E+00 0. -1.
         11    1    3    3    0    0  0.15135274459E+01  0.14119145396E+00 -0.32365340396E+01  0.35757311430E+01  0.51100000000E-03 0. -1.
        -11    1    3    3    0    0  0.18024178401E+02  0.10233731893E+02  0.66586274262E+01  0.21770107831E+02  0.51100000000E-03 0.  1.
         12    1    3    3    0    0  0.12792469336E+02  0.14519765109E+02  0.11364293742E+02  0.22441435399E+02  0.00000000000E+00 0. -1.
</event>
<event>
 7    1  0.2812635E-010  0.4778727E+02  0.7816164E-02  0.1312668E+00
        -11   -1    0    0    0    0  0.00000000000E+00  0.00000000000E+00  0.45593999997E+02  0.45594000000E+02  0.51100000000E-03 0.  1.
         11   -1    0    0    0    0 -0.00000000000E+00 -0.00000000000E+00 -0.45593999997E+02  0.45594000000E+02  0.51100000000E-03 0. -1.
    9900012    2    1    2    0    0  0.60235465504E+01  0.32336955233E+02  0.28313626987E+02  0.47787271205E+02  0.20000000733E+02 0.  0.
         12    1    1    2    0    0 -0.60235465504E+01 -0.32336955233E+02 -0.28313626987E+02  0.43400728795E+02  0.00000000000E+00 0. -1.
         11    1    3    3    0    0  0.64258321120E+00  0.55224648639E+00 -0.82346584427E-01  0.85127585784E+00  0.51100000000E-03 0.  1.
        -11    1    3    3    0    0  0.32227672245E+01  0.12997752195E+02  0.71265945117E+00  0.13410282415E+02  0.51100000000E-03 0. -1.
        -12    1    3    3    0    0  0.21581961147E+01  0.18786956552E+02  0.27683314120E+02  0.33525712932E+02  0.00000000000E+00 0.  1.
</event>
<event>
 7    1  0.2812635E-010  0.4778727E+02  0.7816164E-02  0.1312668E+00
        -11   -1    0    0    0    0  0.00000000000E+00  0.00000000000E+00  0.45593999997E+02  0.45594000000E+02  0.51100000000E-03 0.  1.
         11   -1    0    0    0    0 -0.00000000000E+00 -0.00000000000E+00 -0.45593999997E+02  0.45594000000E+02  0.51100000000E-03 0. -1.
    9900012    2    1    2    0    0 -0.37900098447E+02 -0.21058932363E+02 -0.19305326116E+01  0.47787273615E+02  0.20000011722E+02 0.  0.
         12    1    1    2    0    0  0.37900098447E+02  0.21058932363E+02  0.19305326116E+01  0.43400726385E+02  0.00000000000E+00 0. -1.
         11    1    3    3    0    0 -0.15620140870E+02 -0.12446345167E+02 -0.99568890939E+01  0.22316808676E+02  0.51100000000E-03 0. -1.
        -11    1    3    3    0    0 -0.17667961890E+02 -0.83226498636E+01  0.60625432529E+01  0.20449396301E+02  0.51100000000E-03 0.  1.
         12    1    3    3    0    0 -0.46119956869E+01 -0.28993733231E+00  0.19638132294E+01  0.50210686385E+01  0.00000000000E+00 0. -1.
</event>
<event>
 7    1  0.2812635E-010  0.4778727E+02  0.7816164E-02  0.1312668E+00
        -11   -1    0    0    0    0  0.00000000000E+00  0.00000000000E+00  0.45593999997E+02  0.45594000000E+02  0.51100000000E-03 0. -1.
         11   -1    0    0    0    0 -0.00000000000E+00 -0.00000000000E+00 -0.45593999997E+02  0.45594000000E+02  0.51100000000E-03 0.  1.
    9900012    2    1    2    0    0  0.35981555844E+02 -0.23887933525E+02 -0.42799414846E+01  0.47787266963E+02  0.19999981390E+02 0.  0.
         12    1    1    2    0    0 -0.35981555844E+02  0.23887933525E+02  0.42799414846E+01  0.43400733037E+02  0.00000000000E+00 0. -1.
         11    1    3    3    0    0  0.19331957409E+01 -0.20190421563E+00  0.28118041536E+01  0.34182237996E+01  0.51100000000E-03 0. -1.
        -11    1    3    3    0    0  0.31475771090E+02 -0.20399746741E+02 -0.10533661732E+02  0.38959361680E+02  0.51100000000E-03 0.  1.
        -12    1    3    3    0    0  0.25725890136E+01 -0.32862825679E+01  0.34419160938E+01  0.54096814828E+01  0.00000000000E+00 0.  1.
</event>
<event>
 7    1  0.2812635E-010  0.4778727E+02  0.7816164E-02  0.1312668E+00
        -11   -1    0    0    0    0  0.00000000000E+00  0.00000000000E+00  0.45593999997E+02  0.45594000000E+02  0.51100000000E-03 0.  1.
         11   -1    0    0    0    0 -0.00000000000E+00 -0.00000000000E+00 -0.45593999997E+02  0.45594000000E+02  0.51100000000E-03 0. -1.
    9900012    2    1    2    0    0  0.36450288476E+02  0.16251537878E+02  0.17055428410E+02  0.47787266693E+02  0.19999980160E+02 0.  0.
         12    1    1    2    0    0 -0.36450288476E+02 -0.16251537878E+02 -0.17055428410E+02  0.43400733307E+02  0.00000000000E+00 0. -1.
         11    1    3    3    0    0  0.29239791488E+02  0.78934859924E+01  0.55337105595E+01  0.30787895027E+02  0.51100000000E-03 0. -1.
        -11    1    3    3    0    0  0.78058730373E+01  0.59950643266E+01  0.78352012562E+01  0.12580255528E+02  0.51100000000E-03 0.  1.
         12    1    3    3    0    0 -0.59537604982E+00  0.23629875591E+01  0.36865165941E+01  0.44191161383E+01  0.00000000000E+00 0. -1.
</event>
<event>
 7    1  0.2812635E-010  0.4778727E+02  0.7816164E-02  0.1312668E+00
        -11   -1    0    0    0    0  0.00000000000E+00  0.00000000000E+00  0.45593999997E+02  0.45594000000E+02  0.51100000000E-03 0.  1.
         11   -1    0    0    0    0 -0.00000000000E+00 -0.00000000000E+00 -0.45593999997E+02  0.45594000000E+02  0.51100000000E-03 0. -1.
    9900012    2    1    2    0    0 -0.54032143735E+01  0.26306103516E+02  0.34094247336E+02  0.47787268333E+02  0.19999987639E+02 0.  0.
         12    1    1    2    0    0  0.54032143735E+01 -0.26306103516E+02 -0.34094247336E+02  0.43400731667E+02  0.00000000000E+00 0. -1.
         11    1    3    3    0    0 -0.50380116847E+00  0.78401556416E+00  0.55781866778E+01  0.56554984657E+01  0.51100000000E-03 0. -1.
        -11    1    3    3    0    0  0.10408478557E+01  0.23797122947E+02  0.26485937355E+02  0.35621500567E+02  0.51100000000E-03 0.  1.
        -12    1    3    3    0    0 -0.59402610608E+01  0.17249650054E+01  0.20301233035E+01  0.65102693007E+01  0.00000000000E+00 0.  1.
</event>
<event>
 7    1  0.2812635E-010  0.4778728E+02  0.7816164E-02  0.1312668E+00
        -11   -1    0    0    0    0  0.00000000000E+00  0.00000000000E+00  0.45593999997E+02  0.45594000000E+02  0.51100000000E-03 0.  1.
         11   -1    0    0    0    0 -0.00000000000E+00 -0.00000000000E+00 -0.45593999997E+02  0.45594000000E+02  0.51100000000E-03 0. -1.
    9900012    2    1    2    0    0 -0.31084401897E+01 -0.69725378122E+01  0.42724042135E+02  0.47787280417E+02  0.20000042732E+02 0.  0.
         12    1    1    2    0    0  0.31084401897E+01  0.69725378122E+01 -0.42724042135E+02  0.43400719583E+02  0.00000000000E+00 0. -1.
         11    1    3    3    0    0  0.33107234675E+01  0.37626746089E+01  0.84460097019E+01  0.98210839645E+01  0.51100000000E-03 0. -1.
        -11    1    3    3    0    0 -0.40592606525E+01 -0.10170499724E+02  0.15196507327E+02  0.18731003627E+02  0.51100000000E-03 0.  1.
        -12    1    3    3    0    0 -0.23599030046E+01 -0.56471269711E+00  0.19081525107E+02  0.19235192825E+02  0.00000000000E+00 0.  1.
</event>
<event>
 7    1  0.2812635E-010  0.4778727E+02  0.7816164E-02  0.1312668E+00
        -11   -1    0    0    0    0  0.00000000000E+00  0.00000000000E+00  0.45593999997E+02  0.45594000000E+02  0.51100000000E-03 0. -1.
         11   -1    0    0    0    0 -0.00000000000E+00 -0.00000000000E+00 -0.45593999997E+02  0.45594000000E+02  0.51100000000E-03 0.  1.
    9900012    2    1    2    0    0  0.80359099137E+01  0.13026093859E+02 -0.40612420001E+02  0.47787266968E+02  0.19999981412E+02 0.  0.
         12    1    1    2    0    0 -0.80359099137E+01 -0.13026093859E+02  0.40612420001E+02  0.43400733032E+02  0.00000000000E+00 0. -1.
         11    1    3    3    0    0  0.44103620359E+00  0.42812898027E+01 -0.16024113005E+01  0.45925676418E+01  0.51100000000E-03 0. -1.
        -11    1    3    3    0    0  0.11932134389E+01  0.10061354424E+02 -0.32197878899E+02  0.33754377746E+02  0.51100000000E-03 0.  1.
        -12    1    3    3    0    0  0.64016602712E+01 -0.13165503672E+01 -0.68121298020E+01  0.94403215802E+01  0.00000000000E+00 0.  1.
</event>
<event>
 7    1  0.2812635E-010  0.4778727E+02  0.7816164E-02  0.1312668E+00
        -11   -1    0    0    0    0  0.00000000000E+00  0.00000000000E+00  0.45593999997E+02  0.45594000000E+02  0.51100000000E-03 0.  1.
         11   -1    0    0    0    0 -0.00000000000E+00 -0.00000000000E+00 -0.45593999997E+02  0.45594000000E+02  0.51100000000E-03 0. -1.
    9900012    2    1    2    0    0 -0.11470423931E+02 -0.69572674233E+01  0.41275284030E+02  0.47787271125E+02  0.20000000366E+02 0.  0.
         12    1    1    2    0    0  0.11470423931E+02  0.69572674233E+01 -0.41275284030E+02  0.43400728875E+02  0.00000000000E+00 0. -1.
         11    1    3    3    0    0 -0.78160608065E+01 -0.28330891072E+01  0.35818238320E+02  0.36770414697E+02  0.51100000000E-03 0. -1.
        -11    1    3    3    0    0 -0.37676794598E+01 -0.61453575460E+01  0.53733794016E+01  0.89907749574E+01  0.51100000000E-03 0.  1.
         12    1    3    3    0    0  0.11331633522E+00  0.20211792299E+01  0.83666308526E-01  0.20260814698E+01  0.00000000000E+00 0. -1.
</event>
<event>
 7    1  0.2812635E-010  0.4778727E+02  0.7816164E-02  0.1312668E+00
        -11   -1    0    0    0    0  0.00000000000E+00  0.00000000000E+00  0.45593999997E+02  0.45594000000E+02  0.51100000000E-03 0.  1.
         11   -1    0    0    0    0 -0.00000000000E+00 -0.00000000000E+00 -0.45593999997E+02  0.45594000000E+02  0.51100000000E-03 0. -1.
    9900012    2    1    2    0    0 -0.41905409159E+02 -0.25711031317E+01  0.10997694784E+02  0.47787272142E+02  0.20000005002E+02 0.  0.
         12    1    1    2    0    0  0.41905409159E+02  0.25711031317E+01 -0.10997694784E+02  0.43400727858E+02  0.00000000000E+00 0. -1.
         11    1    3    3    0    0  0.10147914990E+00  0.32317215892E+01 -0.79066282909E+00  0.33285838458E+01  0.51100000000E-03 0. -1.
        -11    1    3    3    0    0 -0.19620844983E+02 -0.25343517132E+01  0.87489970959E+01  0.21632046757E+02  0.51100000000E-03 0.  1.
        -12    1    3    3    0    0 -0.22386043326E+02 -0.32684730076E+01  0.30393605169E+01  0.22826641539E+02  0.00000000000E+00 0.  1.
</event>
<event>
 7    1  0.2812635E-010  0.4778727E+02  0.7816164E-02  0.1312668E+00
        -11   -1    0    0    0    0  0.00000000000E+00  0.00000000000E+00  0.45593999997E+02  0.45594000000E+02  0.51100000000E-03 0.  1.
         11   -1    0    0    0    0 -0.00000000000E+00 -0.00000000000E+00 -0.45593999997E+02  0.45594000000E+02  0.51100000000E-03 0. -1.
    9900012    2    1    2    0    0  0.13002037683E+02  0.22006222913E+02  0.35075581161E+02  0.47787271612E+02  0.20000002586E+02 0.  0.
         12    1    1    2    0    0 -0.13002037683E+02 -0.22006222913E+02 -0.35075581161E+02  0.43400728388E+02  0.00000000000E+00 0. -1.
         11    1    3    3    0    0  0.15391690910E+02  0.11724073019E+02  0.18866552300E+02  0.27024152774E+02  0.51100000000E-03 0.  1.
        -11    1    3    3    0    0 -0.42896658112E+01  0.36804484415E+01  0.46603688550E+01  0.73257062205E+01  0.51100000000E-03 0. -1.
        -12    1    3    3    0    0  0.19000125843E+01  0.66017014527E+01  0.11548660006E+02  0.13437412617E+02  0.00000000000E+00 0.  1.
</event>
<event>
 7    1  0.2812635E-010  0.4778727E+02  0.7816164E-02  0.1312668E+00
        -11   -1    0    0    0    0  0.00000000000E+00  0.00000000000E+00  0.45593999997E+02  0.45594000000E+02  0.51100000000E-03 0.  1.
         11   -1    0    0    0    0 -0.00000000000E+00 -0.00000000000E+00 -0.45593999997E+02  0.45594000000E+02  0.51100000000E-03 0. -1.
    9900012    2    1    2    0    0 -0.29484763157E+02 -0.30058119830E+02  0.10525272919E+02  0.47787271940E+02  0.20000004081E+02 0.  0.
         12    1    1    2    0    0  0.29484763157E+02  0.30058119830E+02 -0.10525272919E+02  0.43400728060E+02  0.00000000000E+00 0. -1.
         11    1    3    3    0    0 -0.22015552744E+02 -0.19685339062E+02  0.10670591067E+02  0.31401570830E+02  0.51100000000E-03 0.  1.
        -11    1    3    3    0    0 -0.25361016772E+01  0.11735740473E+01 -0.23332293675E+01  0.36404735000E+01  0.51100000000E-03 0. -1.
        -12    1    3    3    0    0 -0.49331087360E+01 -0.11546354815E+02  0.21879112200E+01  0.12745227610E+02  0.00000000000E+00 0.  1.
</event>
<event>
 7    1  0.2812635E-010  0.4778726E+02  0.7816164E-02  0.1312668E+00
        -11   -1    0    0    0    0  0.00000000000E+00  0.00000000000E+00  0.45593999997E+02  0.45594000000E+02  0.51100000000E-03 0.  1.
         11   -1    0    0    0    0 -0.00000000000E+00 -0.00000000000E+00 -0.45593999997E+02  0.45594000000E+02  0.51100000000E-03 0. -1.
    9900012    2    1    2    0    0  0.90636610802E+01 -0.25492007118E+02  0.33935698139E+02  0.47787262826E+02  0.19999962528E+02 0.  0.
         12    1    1    2    0    0 -0.90636610802E+01  0.25492007118E+02 -0.33935698139E+02  0.43400737174E+02  0.00000000000E+00 0. -1.
         11    1    3    3    0    0  0.42691595716E+00 -0.15155849829E+02  0.85844531659E+01  0.17423400291E+02  0.51100000000E-03 0. -1.
        -11    1    3    3    0    0  0.62064823112E+01 -0.11723853745E+02  0.23570031748E+02  0.27046544441E+02  0.51100000000E-03 0.  1.
        -12    1    3    3    0    0  0.24302628118E+01  0.13876964556E+01  0.17812132252E+01  0.33173180946E+01  0.00000000000E+00 0.  1.
</event>
<event>
 7    1  0.2812635E-010  0.4778727E+02  0.7816164E-02  0.1312668E+00
        -11   -1    0    0    0    0  0.00000000000E+00  0.00000000000E+00  0.45593999997E+02  0.45594000000E+02  0.51100000000E-03 0.  1.
         11   -1    0    0    0    0 -0.00000000000E+00 -0.00000000000E+00 -0.45593999997E+02  0.45594000000E+02  0.51100000000E-03 0. -1.
    9900012    2    1    2    0    0  0.10799434745E+02 -0.30049732705E+02  0.29394034338E+02  0.47787268657E+02  0.19999989114E+02 0.  0.
         12    1    1    2    0    0 -0.10799434745E+02  0.30049732705E+02 -0.29394034338E+02  0.43400731343E+02  0.00000000000E+00 0. -1.
         11    1    3    3    0    0  0.12349275874E+01 -0.15306045000E+02  0.18580413988E+02  0.24104602132E+02  0.51100000000E-03 0. -1.
        -11    1    3    3    0    0  0.19879392821E+00 -0.38375770411E+01  0.82214358484E+01  0.90751597365E+01  0.51100000000E-03 0.  1.
         12    1    3    3    0    0  0.93657132295E+01 -0.10906110663E+02  0.25921845022E+01  0.14607506789E+02  0.00000000000E+00 0. -1.
</event>
<event>
 7    1  0.2812635E-010  0.4778727E+02  0.7816164E-02  0.1312668E+00
        -11   -1    0    0    0    0  0.00000000000E+00  0.00000000000E+00  0.45593999997E+02  0.45594000000E+02  0.51100000000E-03 0.  1.
         11   -1    0    0    0    0 -0.00000000000E+00 -0.00000000000E+00 -0.45593999997E+02  0.45594000000E+02  0.51100000000E-03 0. -1.
    9900012    2    1    2    0    0 -0.50052897877E+01 -0.20711912734E+01  0.43061357500E+02  0.47787271101E+02  0.20000000259E+02 0.  0.
         12    1    1    2    0    0  0.50052897877E+01  0.20711912734E+01 -0.43061357500E+02  0.43400728899E+02  0.00000000000E+00 0. -1.
         11    1    3    3    0    0  0.18483692369E+01  0.28300745496E+01  0.29503656526E+01  0.44866968403E+01  0.51100000000E-03 0. -1.
        -11    1    3    3    0    0 -0.55344283988E+01 -0.93384341749E+01  0.21033420389E+02  0.23669411148E+02  0.51100000000E-03 0.  1.
        -12    1    3    3    0    0 -0.13192306257E+01  0.44371683519E+01  0.19077571458E+02  0.19631163113E+02  0.00000000000E+00 0.  1.
</event>
<event>
 7    1  0.2812635E-010  0.4778727E+02  0.7816164E-02  0.1312668E+00
        -11   -1    0    0    0    0  0.00000000000E+00  0.00000000000E+00  0.45593999997E+02  0.45594000000E+02  0.51100000000E-03 0.  1.
         11   -1    0    0    0    0 -0.00000000000E+00 -0.00000000000E+00 -0.45593999997E+02  0.45594000000E+02  0.51100000000E-03 0. -1.
    9900012    2    1    2    0    0  0.15332333371E+02  0.19649228450E+02  0.35530983778E+02  0.47787269205E+02  0.19999991612E+02 0.  0.
         12    1    1    2    0    0 -0.15332333371E+02 -0.19649228450E+02 -0.35530983778E+02  0.43400730795E+02  0.00000000000E+00 0. -1.
         11    1    3    3    0    0 -0.21291897692E+01 -0.12719851619E+01  0.24949037401E+00  0.24927176000E+01  0.51100000000E-03 0. -1.
        -11    1    3    3    0    0  0.15233708813E+02  0.18377319732E+02  0.34272045976E+02  0.41765594697E+02  0.51100000000E-03 0.  1.
         12    1    3    3    0    0  0.22278143273E+01  0.25438938797E+01  0.10094474289E+01  0.35289569082E+01  0.00000000000E+00 0. -1.
</event>
<event>
 7    1  0.2812635E-010  0.4778727E+02  0.7816164E-02  0.1312668E+00
        -11   -1    0    0    0    0  0.00000000000E+00  0.00000000000E+00  0.45593999997E+02  0.45594000000E+02  0.51100000000E-03 0.  1.
         11   -1    0    0    0    0 -0.00000000000E+00 -0.00000000000E+00 -0.45593999997E+02  0.45594000000E+02  0.51100000000E-03 0. -1.
    9900012    2    1    2    0    0  0.18415958639E+02  0.93031717615E+01  0.38182804756E+02  0.47787272858E+02  0.20000008267E+02 0.  0.
         12    1    1    2    0    0 -0.18415958639E+02 -0.93031717615E+01 -0.38182804756E+02  0.43400727142E+02  0.00000000000E+00 0. -1.
         11    1    3    3    0    0  0.13107640041E+02  0.12427312839E+02  0.27763998237E+02  0.33122317706E+02  0.51100000000E-03 0. -1.
        -11    1    3    3    0    0  0.32866254567E+01  0.26160918051E+01  0.48439033953E+01  0.64116490538E+01  0.51100000000E-03 0.  1.
         12    1    3    3    0    0  0.20216931416E+01 -0.57402328826E+01  0.55749031244E+01  0.82533060982E+01  0.00000000000E+00 0. -1.
</event>
<event>
 7    1  0.2812635E-010  0.4778727E+02  0.7816164E-02  0.1312668E+00
        -11   -1    0    0    0    0  0.00000000000E+00  0.00000000000E+00  0.45593999997E+02  0.45594000000E+02  0.51100000000E-03 0. -1.
         11   -1    0    0    0    0 -0.00000000000E+00 -0.00000000000E+00 -0.45593999997E+02  0.45594000000E+02  0.51100000000E-03 0.  1.
    9900012    2    1    2    0    0  0.32307143219E+02  0.20259875501E+02  0.20722191152E+02  0.47787271153E+02  0.20000000495E+02 0.  0.
         12    1    1    2    0    0 -0.32307143219E+02 -0.20259875501E+02 -0.20722191152E+02  0.43400728847E+02  0.00000000000E+00 0. -1.
         11    1    3    3    0    0  0.14105654995E+01  0.69199705956E+00 -0.23376954348E+01  0.28166247826E+01  0.51100000000E-03 0. -1.
        -11    1    3    3    0    0  0.24774627734E+02  0.10600860504E+02  0.20383096092E+02  0.33788030859E+02  0.51100000000E-03 0.  1.
        -12    1    3    3    0    0  0.61219499863E+01  0.89670179374E+01  0.26767904946E+01  0.11182615511E+02  0.00000000000E+00 0.  1.
</event>
<event>
 7    1  0.2812635E-010  0.4778727E+02  0.7816164E-02  0.1312668E+00
        -11   -1    0    0    0    0  0.00000000000E+00  0.00000000000E+00  0.45593999997E+02  0.45594000000E+02  0.51100000000E-03 0.  1.
         11   -1    0    0    0    0 -0.00000000000E+00 -0.00000000000E+00 -0.45593999997E+02  0.45594000000E+02  0.51100000000E-03 0. -1.
    9900012    2    1    2    0    0 -0.13328905044E+02  0.19122287996E+02  0.36610130670E+02  0.47787271025E+02  0.19999999913E+02 0.  0.
         12    1    1    2    0    0  0.13328905044E+02 -0.19122287996E+02 -0.36610130670E+02  0.43400728975E+02  0.00000000000E+00 0. -1.
         11    1    3    3    0    0 -0.96616962736E+01  0.14722850131E+02  0.23417555568E+02  0.29300044367E+02  0.51100000000E-03 0.  1.
        -11    1    3    3    0    0 -0.36091071155E+01  0.65059133707E+00 -0.10053610462E+01  0.38025878495E+01  0.51100000000E-03 0. -1.
        -12    1    3    3    0    0 -0.58101654935E-01  0.37488465281E+01  0.14197936148E+02  0.14684638809E+02  0.00000000000E+00 0.  1.
</event>
<event>
 7    1  0.2812635E-010  0.4778727E+02  0.7816164E-02  0.1312668E+00
        -11   -1    0    0    0    0  0.00000000000E+00  0.00000000000E+00  0.45593999997E+02  0.45594000000E+02  0.51100000000E-03 0.  1.
         11   -1    0    0    0    0 -0.00000000000E+00 -0.00000000000E+00 -0.45593999997E+02  0.45594000000E+02  0.51100000000E-03 0. -1.
    9900012    2    1    2    0    0  0.28081966672E+02 -0.17869004628E+01  0.33042901947E+02  0.47787271498E+02  0.20000002066E+02 0.  0.
         12    1    1    2    0    0 -0.28081966672E+02  0.17869004628E+01 -0.33042901947E+02  0.43400728502E+02  0.00000000000E+00 0. -1.
         11    1    3    3    0    0  0.21621725987E+02 -0.77415204753E+01  0.23634569748E+02  0.32954864002E+02  0.51100000000E-03 0. -1.
        -11    1    3    3    0    0  0.48103355077E+01 -0.28759062416E+00  0.53781141462E+01  0.72212289878E+01  0.51100000000E-03 0.  1.
         12    1    3    3    0    0  0.16499051771E+01  0.62422106367E+01  0.40302180534E+01  0.76111785082E+01  0.00000000000E+00 0. -1.
</event>
<event>
 7    1  0.2812635E-010  0.4778728E+02  0.7816164E-02  0.1312668E+00
        -11   -1    0    0    0    0  0.00000000000E+00  0.00000000000E+00  0.45593999997E+02  0.45594000000E+02  0.51100000000E-03 0. -1.
         11   -1    0    0    0    0 -0.00000000000E+00 -0.00000000000E+00 -0.45593999997E+02  0.45594000000E+02  0.51100000000E-03 0.  1.
    9900012    2    1    2    0    0  0.48257346569E+01  0.29798619587E+02 -0.31182964627E+02  0.47787277342E+02  0.20000028715E+02 0.  0.
         12    1    1    2    0    0 -0.48257346569E+01 -0.29798619587E+02  0.31182964627E+02  0.43400722658E+02  0.00000000000E+00 0. -1.
         11    1    3    3    0    0 -0.19595092361E+01  0.13624795247E+02 -0.20040416502E+02  0.24312404567E+02  0.51100000000E-03 0.  1.
        -11    1    3    3    0    0  0.93596439560E+01  0.94859154530E+01 -0.86506038471E+01  0.15887683096E+02  0.51100000000E-03 0. -1.
        -12    1    3    3    0    0 -0.25744000630E+01  0.66879088867E+01 -0.24919442778E+01  0.75871896803E+01  0.00000000000E+00 0.  1.
</event>
<event>
 7    1  0.2812635E-010  0.4778727E+02  0.7816164E-02  0.1312668E+00
        -11   -1    0    0    0    0  0.00000000000E+00  0.00000000000E+00  0.45593999997E+02  0.45594000000E+02  0.51100000000E-03 0.  1.
         11   -1    0    0    0    0 -0.00000000000E+00 -0.00000000000E+00 -0.45593999997E+02  0.45594000000E+02  0.51100000000E-03 0. -1.
    9900012    2    1    2    0    0  0.21103310139E+02 -0.27727264516E+02  0.25874169181E+02  0.47787268127E+02  0.19999986698E+02 0.  0.
         12    1    1    2    0    0 -0.21103310139E+02  0.27727264516E+02 -0.25874169181E+02  0.43400731873E+02  0.00000000000E+00 0. -1.
         11    1    3    3    0    0  0.19823289580E+02 -0.15879699141E+02  0.86510404693E+01  0.26832222346E+02  0.51100000000E-03 0. -1.
        -11    1    3    3    0    0  0.30527272850E+00 -0.15155487513E+01  0.19236671438E+01  0.24679090335E+01  0.51100000000E-03 0.  1.
         12    1    3    3    0    0  0.97474782987E+00 -0.10332016624E+02  0.15299461568E+02  0.18487136747E+02  0.00000000000E+00 0. -1.
</event>
<event>
 7    1  0.2812635E-010  0.4778731E+02  0.7816164E-02  0.1312668E+00
        -11   -1    0    0    0    0  0.00000000000E+00  0.00000000000E+00  0.45593999997E+02  0.45594000000E+02  0.51100000000E-03 0.  1.
         11   -1    0    0    0    0 -0.00000000000E+00 -0.00000000000E+00 -0.45593999997E+02  0.45594000000E+02  0.51100000000E-03 0. -1.
    9900012    2    1    2    0    0  0.14105265137E+01 -0.33498123532E+02  0.27559131680E+02  0.47787313321E+02  0.20000192757E+02 0.  0.
         12    1    1    2    0    0 -0.14105265137E+01  0.33498123532E+02 -0.27559131680E+02  0.43400686679E+02  0.00000000000E+00 0. -1.
         11    1    3    3    0    0 -0.66572267641E+01 -0.80127554268E+01  0.72102593406E+01  0.12669284026E+02  0.51100000000E-03 0. -1.
        -11    1    3    3    0    0  0.56814449470E+01 -0.23266116563E+02  0.13401476942E+02  0.27444317829E+02  0.51100000000E-03 0.  1.
        -12    1    3    3    0    0  0.23863083308E+01 -0.22192515424E+01  0.69473953978E+01  0.76737114665E+01  0.00000000000E+00 0.  1.
</event>
<event>
 7    1  0.2812635E-010  0.4778727E+02  0.7816164E-02  0.1312668E+00
        -11   -1    0    0    0    0  0.00000000000E+00  0.00000000000E+00  0.45593999997E+02  0.45594000000E+02  0.51100000000E-03 0.  1.
         11   -1    0    0    0    0 -0.00000000000E+00 -0.00000000000E+00 -0.45593999997E+02  0.45594000000E+02  0.51100000000E-03 0. -1.
    9900012    2    1    2    0    0 -0.35292932467E+02  0.13585668519E+02 -0.21294640657E+02  0.47787271988E+02  0.20000004304E+02 0.  0.
         12    1    1    2    0    0  0.35292932467E+02 -0.13585668519E+02  0.21294640657E+02  0.43400728012E+02  0.00000000000E+00 0. -1.
         11    1    3    3    0    0 -0.46043771122E+01 -0.52253107925E+00 -0.68260336557E+00  0.46839379731E+01  0.51100000000E-03 0. -1.
        -11    1    3    3    0    0 -0.24224392709E+02  0.81301453780E+01 -0.63288420154E+01  0.26324412767E+02  0.51100000000E-03 0.  1.
        -12    1    3    3    0    0 -0.64641626455E+01  0.59780542200E+01 -0.14283195276E+02  0.16778921248E+02  0.00000000000E+00 0.  1.
</event>
<event>
 7    1  0.2812635E-010  0.4778727E+02  0.7816164E-02  0.1312668E+00
        -11   -1    0    0    0    0  0.00000000000E+00  0.00000000000E+00  0.45593999997E+02  0.45594000000E+02  0.51100000000E-03 0.  1.
         11   -1    0    0    0    0 -0.00000000000E+00 -0.00000000000E+00 -0.45593999997E+02  0.45594000000E+02  0.51100000000E-03 0. -1.
    9900012    2    1    2    0    0 -0.12412122012E+02 -0.13827956679E+02  0.39221806999E+02  0.47787270708E+02  0.19999998466E+02 0.  0.
         12    1    1    2    0    0  0.12412122012E+02  0.13827956679E+02 -0.39221806999E+02  0.43400729292E+02  0.00000000000E+00 0. -1.
         11    1    3    3    0    0 -0.11691384016E+02 -0.31086334651E+01  0.15188113610E+02  0.19417282444E+02  0.51100000000E-03 0. -1.
        -11    1    3    3    0    0 -0.79506403926E+00 -0.99605656934E+01  0.25124825969E+02  0.27038895614E+02  0.51100000000E-03 0.  1.
        -12    1    3    3    0    0  0.74326043283E-01 -0.75875752072E+00 -0.10911325798E+01  0.13310926499E+01  0.00000000000E+00 0.  1.
</event>
<event>
 7    1  0.2812635E-010  0.4778727E+02  0.7816164E-02  0.1312668E+00
        -11   -1    0    0    0    0  0.00000000000E+00  0.00000000000E+00  0.45593999997E+02  0.45594000000E+02  0.51100000000E-03 0.  1.
         11   -1    0    0    0    0 -0.00000000000E+00 -0.00000000000E+00 -0.45593999997E+02  0.45594000000E+02  0.51100000000E-03 0. -1.
    9900012    2    1    2    0    0 -0.21375276095E+02  0.22306651280E+02  0.30481707558E+02  0.47787267113E+02  0.19999982076E+02 0.  0.
         12    1    1    2    0    0  0.21375276095E+02 -0.22306651280E+02 -0.30481707558E+02  0.43400732887E+02  0.00000000000E+00 0. -1.
         11    1    3    3    0    0  0.11688215770E+01  0.30338278822E+01  0.44028364251E+01  0.54731366093E+01  0.51100000000E-03 0. -1.
        -11    1    3    3    0    0 -0.15814284277E+02  0.43711741398E+01  0.91842491234E+01  0.18802903573E+02  0.51100000000E-03 0.  1.
        -12    1    3    3    0    0 -0.67298133946E+01  0.14901649258E+02  0.16894622010E+02  0.23511226931E+02  0.00000000000E+00 0.  1.
</event>
<event>
 7    1  0.2812635E-010  0.4778727E+02  0.7816164E-02  0.1312668E+00
        -11   -1    0    0    0    0  0.00000000000E+00  0.00000000000E+00  0.45593999997E+02  0.45594000000E+02  0.51100000000E-03 0. -1.
         11   -1    0    0    0    0 -0.00000000000E+00 -0.00000000000E+00 -0.45593999997E+02  0.45594000000E+02  0.51100000000E-03 0.  1.
    9900012    2    1    2    0    0  0.30642470954E+02 -0.28461612946E+02 -0.11601679766E+02  0.47787269464E+02  0.19999992796E+02 0.  0.
         12    1    1    2    0    0 -0.30642470954E+02  0.28461612946E+02  0.11601679766E+02  0.43400730536E+02  0.00000000000E+00 0. -1.
         11    1    3    3    0    0  0.36157496657E+01  0.51082903561E+00 -0.35221703242E+01  0.50734875582E+01  0.51100000000E-03 0. -1.
        -11    1    3    3    0    0  0.19439117916E+02 -0.24434023593E+02 -0.75487415279E+00  0.31232525507E+02  0.51100000000E-03 0.  1.
        -12    1    3    3    0    0  0.75876033717E+01 -0.45384183890E+01 -0.73246352887E+01  0.11481256400E+02  0.00000000000E+00 0.  1.
</event>
<event>
 7    1  0.2812635E-010  0.4778727E+02  0.7816164E-02  0.1312668E+00
        -11   -1    0    0    0    0  0.00000000000E+00  0.00000000000E+00  0.45593999997E+02  0.45594000000E+02  0.51100000000E-03 0. -1.
         11   -1    0    0    0    0 -0.00000000000E+00 -0.00000000000E+00 -0.45593999997E+02  0.45594000000E+02  0.51100000000E-03 0.  1.
    9900012    2    1    2    0    0 -0.45413928253E+01 -0.34484022625E+02 -0.25958640579E+02  0.47787273209E+02  0.20000009871E+02 0.  0.
         12    1    1    2    0    0  0.45413928253E+01  0.34484022625E+02  0.25958640579E+02  0.43400726791E+02  0.00000000000E+00 0. -1.
         11    1    3    3    0    0  0.24587028528E+01 -0.32887364250E+01  0.14478177523E+01  0.43539847837E+01  0.51100000000E-03 0. -1.
        -11    1    3    3    0    0  0.72588404570E+00 -0.19963306865E+02 -0.17796365026E+02  0.26753899473E+02  0.51100000000E-03 0.  1.
         12    1    3    3    0    0 -0.77259797239E+01 -0.11231979335E+02 -0.96100933062E+01  0.16679388953E+02  0.00000000000E+00 0. -1.
</event>
<event>
 7    1  0.2812635E-010  0.4778727E+02  0.7816164E-02  0.1312668E+00
        -11   -1    0    0    0    0  0.00000000000E+00  0.00000000000E+00  0.45593999997E+02  0.45594000000E+02  0.51100000000E-03 0.  1.
         11   -1    0    0    0    0 -0.00000000000E+00 -0.00000000000E+00 -0.45593999997E+02  0.45594000000E+02  0.51100000000E-03 0. -1.
    9900012    2    1    2    0    0  0.11998427476E+02 -0.30261299916E+02  0.28703913915E+02  0.47787271797E+02  0.20000003433E+02 0.  0.
         12    1    1    2    0    0 -0.11998427476E+02  0.30261299916E+02 -0.28703913915E+02  0.43400728203E+02  0.00000000000E+00 0. -1.
         11    1    3    3    0    0  0.42020667335E+00 -0.53483396821E+01 -0.25362149689E+01  0.59341130452E+01  0.51100000000E-03 0. -1.
        -11    1    3    3    0    0  0.92344063838E+01 -0.23136144658E+02  0.27937117902E+02  0.37430442261E+02  0.51100000000E-03 0.  1.
        -12    1    3    3    0    0  0.23438144188E+01 -0.17768155756E+01  0.33030109817E+01  0.44227164916E+01  0.00000000000E+00 0.  1.
</event>
<event>
 7    1  0.2812635E-010  0.4778727E+02  0.7816164E-02  0.1312668E+00
        -11   -1    0    0    0    0  0.00000000000E+00  0.00000000000E+00  0.45593999997E+02  0.45594000000E+02  0.51100000000E-03 0.  1.
         11   -1    0    0    0    0 -0.00000000000E+00 -0.00000000000E+00 -0.45593999997E+02  0.45594000000E+02  0.51100000000E-03 0. -1.
    9900012    2    1    2    0    0  0.35846636919E+02 -0.12162955906E+02  0.21229795006E+02  0.47787273384E+02  0.20000010669E+02 0.  0.
         12    1    1    2    0    0 -0.35846636919E+02  0.12162955906E+02 -0.21229795006E+02  0.43400726616E+02  0.00000000000E+00 0. -1.
         11    1    3    3    0    0  0.74056132766E+01 -0.61970240777E+01 -0.13928790289E+01  0.97563480705E+01  0.51100000000E-03 0. -1.
        -11    1    3    3    0    0  0.27160684397E+02 -0.42656555305E+01  0.23028954716E+02  0.35864067666E+02  0.51100000000E-03 0.  1.
        -12    1    3    3    0    0  0.12803392454E+01 -0.17002762979E+01 -0.40628068123E+00  0.21668576474E+01  0.00000000000E+00 0.  1.
</event>
<event>
 7    1  0.2812635E-010  0.4778727E+02  0.7816164E-02  0.1312668E+00
        -11   -1    0    0    0    0  0.00000000000E+00  0.00000000000E+00  0.45593999997E+02  0.45594000000E+02  0.51100000000E-03 0.  1.
         11   -1    0    0    0    0 -0.00000000000E+00 -0.00000000000E+00 -0.45593999997E+02  0.45594000000E+02  0.51100000000E-03 0. -1.
    9900012    2    1    2    0    0  0.27601479952E+02 -0.33480687922E+02  0.90835296301E+00  0.47787271153E+02  0.20000000497E+02 0.  0.
         12    1    1    2    0    0 -0.27601479952E+02  0.33480687922E+02 -0.90835296301E+00  0.43400728847E+02  0.00000000000E+00 0. -1.
         11    1    3    3    0    0 -0.11521398525E+01 -0.29483568218E+01  0.28991178870E+01  0.42924490646E+01  0.51100000000E-03 0. -1.
        -11    1    3    3    0    0  0.24984711373E+02 -0.30445903875E+02 -0.35859712042E+00  0.39386767541E+02  0.51100000000E-03 0.  1.
         12    1    3    3    0    0  0.37689084317E+01 -0.86427225792E-01 -0.16321678036E+01  0.41080545482E+01  0.00000000000E+00 0. -1.
</event>
<event>
 7    1  0.2812635E-010  0.4778727E+02  0.7816164E-02  0.1312668E+00
        -11   -1    0    0    0    0  0.00000000000E+00  0.00000000000E+00  0.45593999997E+02  0.45594000000E+02  0.51100000000E-03 0.  1.
         11   -1    0    0    0    0 -0.00000000000E+00 -0.00000000000E+00 -0.45593999997E+02  0.45594000000E+02  0.51100000000E-03 0. -1.
    9900012    2    1    2    0    0 -0.17578425852E+02 -0.34638927290E+02  0.19358893526E+02  0.47787273073E+02  0.20000009247E+02 0.  0.
         12    1    1    2    0    0  0.17578425852E+02  0.34638927290E+02 -0.19358893526E+02  0.43400726927E+02  0.00000000000E+00 0. -1.
         11    1    3    3    0    0  0.20290055744E+01 -0.13894367274E+01  0.12179918580E+01  0.27442489806E+01  0.51100000000E-03 0. -1.
        -11    1    3    3    0    0 -0.21787412501E+02 -0.30463568483E+02  0.15114886085E+02  0.40387871073E+02  0.51100000000E-03 0.  1.
        -12    1    3    3    0    0  0.21799810744E+01 -0.27859220804E+01  0.30260155831E+01  0.46551530191E+01  0.00000000000E+00 0.  1.
</event>
<event>
 7    1  0.2812635E-010  0.4778727E+02  0.7816164E-02  0.1312668E+00
        -11   -1    0    0    0    0  0.00000000000E+00  0.00000000000E+00  0.45593999997E+02  0.45594000000E+02  0.51100000000E-03 0.  1.
         11   -1    0    0    0    0 -0.00000000000E+00 -0.00000000000E+00 -0.45593999997E+02  0.45594000000E+02  0.51100000000E-03 0. -1.
    9900012    2    1    2    0    0  0.33641947570E+02  0.88183194632E+01  0.25963045601E+02  0.47787272686E+02  0.20000007486E+02 0.  0.
         12    1    1    2    0    0 -0.33641947570E+02 -0.88183194632E+01 -0.25963045601E+02  0.43400727314E+02  0.00000000000E+00 0. -1.
         11    1    3    3    0    0  0.39597746970E+01  0.28725131529E+00 -0.10126605609E+00  0.39714712695E+01  0.51100000000E-03 0. -1.
        -11    1    3    3    0    0  0.31802367201E+02  0.72869517438E+01  0.25143093253E+02  0.41190598003E+02  0.51100000000E-03 0.  1.
        -12    1    3    3    0    0 -0.21201943276E+01  0.12441164041E+01  0.92121840449E+00  0.26252034135E+01  0.00000000000E+00 0.  1.
</event>
<event>
 7    1  0.2812635E-010  0.4778727E+02  0.7816164E-02  0.1312668E+00
        -11   -1    0    0    0    0  0.00000000000E+00  0.00000000000E+00  0.45593999997E+02  0.45594000000E+02  0.51100000000E-03 0. -1.
         11   -1    0    0    0    0 -0.00000000000E+00 -0.00000000000E+00 -0.45593999997E+02  0.45594000000E+02  0.51100000000E-03 0.  1.
    9900012    2    1    2    0    0  0.39869269482E+02 -0.17024887602E+02 -0.20536703336E+01  0.47787274099E+02  0.20000013926E+02 0.  0.
         12    1    1    2    0    0 -0.39869269482E+02  0.17024887602E+02  0.20536703336E+01  0.43400725901E+02  0.00000000000E+00 0. -1.
         11    1    3    3    0    0  0.26781120182E+01 -0.55552894123E+01  0.21181607474E+01  0.65207460961E+01  0.51100000000E-03 0. -1.
        -11    1    3    3    0    0  0.26388942073E+02 -0.19740856548E+01 -0.46888367834E+01  0.26874866857E+02  0.51100000000E-03 0.  1.
        -12    1    3    3    0    0  0.10802215391E+02 -0.94955125350E+01  0.51700570236E+00  0.14391661146E+02  0.00000000000E+00 0.  1.
</event>
<event>
 7    1  0.2812635E-010  0.4778731E+02  0.7816164E-02  0.1312668E+00
        -11   -1    0    0    0    0  0.00000000000E+00  0.00000000000E+00  0.45593999997E+02  0.45594000000E+02  0.51100000000E-03 0.  1.
         11   -1    0    0    0    0 -0.00000000000E+00 -0.00000000000E+00 -0.45593999997E+02  0.45594000000E+02  0.51100000000E-03 0. -1.
    9900012    2    1    2    0    0  0.78108165565E+01  0.41500146743E+02  0.10017414838E+02  0.47787312967E+02  0.20000191139E+02 0.  0.
         12    1    1    2    0    0 -0.78108165565E+01 -0.41500146743E+02 -0.10017414838E+02  0.43400687033E+02  0.00000000000E+00 0. -1.
         11    1    3    3    0    0 -0.11887695913E+01  0.17228791633E+01 -0.20841299942E+01  0.29538252904E+01  0.51100000000E-03 0. -1.
        -11    1    3    3    0    0  0.31964269790E+01  0.28396581695E+02  0.14163374684E+02  0.31893325009E+02  0.51100000000E-03 0.  1.
        -12    1    3    3    0    0  0.58031591687E+01  0.11380685884E+02 -0.20618298518E+01  0.12940162667E+02  0.00000000000E+00 0.  1.
</event>
<event>
 7    1  0.2812635E-010  0.4778728E+02  0.7816164E-02  0.1312668E+00
        -11   -1    0    0    0    0  0.00000000000E+00  0.00000000000E+00  0.45593999997E+02  0.45594000000E+02  0.51100000000E-03 0. -1.
         11   -1    0    0    0    0 -0.00000000000E+00 -0.00000000000E+00 -0.45593999997E+02  0.45594000000E+02  0.51100000000E-03 0.  1.
    9900012    2    1    2    0    0 -0.17843582549E+02 -0.34321949427E+01 -0.39413818637E+02  0.47787279962E+02  0.20000040657E+02 0.  0.
         12    1    1    2    0    0  0.17843582549E+02  0.34321949427E+01  0.39413818637E+02  0.43400720038E+02  0.00000000000E+00 0. -1.
         11    1    3    3    0    0 -0.16444776926E+02 -0.31170514107E+01 -0.16892788214E+02  0.23780517058E+02  0.51100000000E-03 0. -1.
        -11    1    3    3    0    0  0.14495967527E+01  0.19167886392E+01 -0.18255687280E+02  0.18413188963E+02  0.51100000000E-03 0.  1.
        -12    1    3    3    0    0 -0.28484023751E+01 -0.22319321712E+01 -0.42653431426E+01  0.55935739408E+01  0.00000000000E+00 0.  1.
</event>
<event>
 7    1  0.2812635E-010  0.4778727E+02  0.7816164E-02  0.1312668E+00
        -11   -1    0    0    0    0  0.00000000000E+00  0.00000000000E+00  0.45593999997E+02  0.45594000000E+02  0.51100000000E-03 0.  1.
         11   -1    0    0    0    0 -0.00000000000E+00 -0.00000000000E+00 -0.45593999997E+02  0.45594000000E+02  0.51100000000E-03 0. -1.
    9900012    2    1    2    0    0  0.31874819251E+02  0.61625733084E+01  0.28803500467E+02  0.47787273610E+02  0.20000011696E+02 0.  0.
         12    1    1    2    0    0 -0.31874819251E+02 -0.61625733084E+01 -0.28803500467E+02  0.43400726390E+02  0.00000000000E+00 0. -1.
         11    1    3    3    0    0  0.14332326088E+02  0.91988628415E+01  0.67632926851E+01  0.18324212858E+02  0.51100000000E-03 0. -1.
        -11    1    3    3    0    0  0.84560244973E+01 -0.53054712660E+01  0.92408211099E+01  0.13603130180E+02  0.51100000000E-03 0.  1.
        -12    1    3    3    0    0  0.90864686652E+01  0.22691817329E+01  0.12799386672E+02  0.15859930571E+02  0.00000000000E+00 0.  1.
</event>
<event>
 7    1  0.2812635E-010  0.4778727E+02  0.7816164E-02  0.1312668E+00
        -11   -1    0    0    0    0  0.00000000000E+00  0.00000000000E+00  0.45593999997E+02  0.45594000000E+02  0.51100000000E-03 0. -1.
         11   -1    0    0    0    0 -0.00000000000E+00 -0.00000000000E+00 -0.45593999997E+02  0.45594000000E+02  0.51100000000E-03 0.  1.
    9900012    2    1    2    0    0 -0.42712170485E+02  0.17381273787E+01 -0.75015197046E+01  0.47787269681E+02  0.19999993785E+02 0.  0.
         12    1    1    2    0    0  0.42712170485E+02 -0.17381273787E+01  0.75015197046E+01  0.43400730319E+02  0.00000000000E+00 0. -1.
         11    1    3    3    0    0 -0.49370707796E+01 -0.49537643585E+01 -0.58390228682E+01  0.91109076122E+01  0.51100000000E-03 0. -1.
        -11    1    3    3    0    0 -0.34317511142E+02  0.72092472952E+01 -0.80110152579E+00  0.35075726386E+02  0.51100000000E-03 0.  1.
         12    1    3    3    0    0 -0.34575885631E+01 -0.51735555803E+00 -0.86139531066E+00  0.36006356837E+01  0.00000000000E+00 0. -1.
</event>
<event>
 7    1  0.2812635E-010  0.4778727E+02  0.7816164E-02  0.1312668E+00
        -11   -1    0    0    0    0  0.00000000000E+00  0.00000000000E+00  0.45593999997E+02  0.45594000000E+02  0.51100000000E-03 0. -1.
         11   -1    0    0    0    0 -0.00000000000E+00 -0.00000000000E+00 -0.45593999997E+02  0.45594000000E+02  0.51100000000E-03 0.  1.
    9900012    2    1    2    0    0 -0.27900028943E+02 -0.33135650043E+02 -0.26907975393E+01  0.47787270626E+02  0.19999998092E+02 0.  0.
         12    1    1    2    0    0  0.27900028943E+02  0.33135650043E+02  0.26907975393E+01  0.43400729374E+02  0.00000000000E+00 0. -1.
         11    1    3    3    0    0 -0.34704554546E-01 -0.33475327212E+01  0.34929581807E+01  0.48381749492E+01  0.51100000000E-03 0. -1.
        -11    1    3    3    0    0 -0.15407597518E+02 -0.81884324537E+01 -0.41263404849E+01  0.17929617212E+02  0.51100000000E-03 0.  1.
        -12    1    3    3    0    0 -0.12457726870E+02 -0.21599684869E+02 -0.20574152351E+01  0.25019478465E+02  0.00000000000E+00 0.  1.
</event>
<event>
 7    1  0.2812635E-010  0.4778731E+02  0.7816164E-02  0.1312668E+00
        -11   -1    0    0    0    0  0.00000000000E+00  0.00000000000E+00  0.45593999997E+02  0.45594000000E+02  0.51100000000E-03 0. -1.
         11   -1    0    0    0    0 -0.00000000000E+00 -0.00000000000E+00 -0.45593999997E+02  0.45594000000E+02  0.51100000000E-03 0.  1.
    9900012    2    1    2    0    0  0.40712530131E+02  0.51789359639E+01 -0.14116952914E+02  0.47787310524E+02  0.20000180002E+02 0.  0.
         12    1    1    2    0    0 -0.40712530131E+02 -0.51789359639E+01  0.14116952914E+02  0.43400689476E+02  0.00000000000E+00 0. -1.
         11    1    3    3    0    0  0.63949411098E+00 -0.31789440468E+01 -0.24294108580E+01  0.40517496651E+01  0.51100000000E-03 0. -1.
        -11    1    3    3    0    0  0.25204057793E+02  0.96317531272E+01 -0.97382741549E+01  0.28685347850E+02  0.51100000000E-03 0.  1.
        -12    1    3    3    0    0  0.14868978228E+02 -0.12738731165E+01 -0.19492679014E+01  0.15050213009E+02  0.00000000000E+00 0.  1.
</event>
<event>
 7    1  0.2812635E-010  0.4778727E+02  0.7816164E-02  0.1312668E+00
        -11   -1    0    0    0    0  0.00000000000E+00  0.00000000000E+00  0.45593999997E+02  0.45594000000E+02  0.51100000000E-03 0.  1.
         11   -1    0    0    0    0 -0.00000000000E+00 -0.00000000000E+00 -0.45593999997E+02  0.45594000000E+02  0.51100000000E-03 0. -1.
    9900012    2    1    2    0    0 -0.30692452260E+01  0.17920135800E+02  0.39409029893E+02  0.47787272236E+02  0.20000005432E+02 0.  0.
         12    1    1    2    0    0  0.30692452260E+01 -0.17920135800E+02 -0.39409029893E+02  0.43400727764E+02  0.00000000000E+00 0. -1.
         11    1    3    3    0    0 -0.42784448016E+01 -0.20761713295E+01  0.58394652311E+01  0.75309316659E+01  0.51100000000E-03 0. -1.
        -11    1    3    3    0    0 -0.15841106180E+01  0.19077410074E+02  0.30465282069E+02  0.35980416804E+02  0.51100000000E-03 0.  1.
        -12    1    3    3    0    0  0.27933101935E+01  0.91889705511E+00  0.31042825932E+01  0.42759237661E+01  0.00000000000E+00 0.  1.
</event>
<event>
 7    1  0.2812635E-010  0.4778728E+02  0.7816164E-02  0.1312668E+00
        -11   -1    0    0    0    0  0.00000000000E+00  0.00000000000E+00  0.45593999997E+02  0.45594000000E+02  0.51100000000E-03 0.  1.
         11   -1    0    0    0    0 -0.00000000000E+00 -0.00000000000E+00 -0.45593999997E+02  0.45594000000E+02  0.51100000000E-03 0. -1.
    9900012    2    1    2    0    0 -0.92879980320E+01  0.15505362302E+02  0.39458070519E+02  0.47787279999E+02  0.20000040826E+02 0.  0.
         12    1    1    2    0    0  0.92879980320E+01 -0.15505362302E+02 -0.39458070519E+02  0.43400720001E+02  0.00000000000E+00 0. -1.
         11    1    3    3    0    0 -0.85969461848E+01  0.11353768254E+02  0.11519400016E+02  0.18316989770E+02  0.51100000000E-03 0. -1.
        -11    1    3    3    0    0 -0.25205549115E+01  0.50464658148E+01  0.26175657929E+02  0.26776577125E+02  0.51100000000E-03 0.  1.
        -12    1    3    3    0    0  0.18295030644E+01 -0.89487176717E+00  0.17630125749E+01  0.26937131031E+01  0.00000000000E+00 0.  1.
</event>
<event>
 7    1  0.2812635E-010  0.4778727E+02  0.7816164E-02  0.1312668E+00
        -11   -1    0    0    0    0  0.00000000000E+00  0.00000000000E+00  0.45593999997E+02  0.45594000000E+02  0.51100000000E-03 0.  1.
         11   -1    0    0    0    0 -0.00000000000E+00 -0.00000000000E+00 -0.45593999997E+02  0.45594000000E+02  0.51100000000E-03 0. -1.
    9900012    2    1    2    0    0  0.26869705716E+02  0.31962181452E+02  0.11834742613E+02  0.47787271191E+02  0.20000000669E+02 0.  0.
         12    1    1    2    0    0 -0.26869705716E+02 -0.31962181452E+02 -0.11834742613E+02  0.43400728809E+02  0.00000000000E+00 0. -1.
         11    1    3    3    0    0  0.48414816506E-01  0.77717942720E+01 -0.18190676354E+00  0.77740736125E+01  0.51100000000E-03 0. -1.
        -11    1    3    3    0    0  0.22693081403E+02  0.13443113344E+02  0.10548450471E+02  0.28407095021E+02  0.51100000000E-03 0.  1.
        -12    1    3    3    0    0  0.41282094968E+01  0.10747273836E+02  0.14681989048E+01  0.11606102558E+02  0.00000000000E+00 0.  1.
</event>
<event>
 7    1  0.2812635E-010  0.4778729E+02  0.7816164E-02  0.1312668E+00
        -11   -1    0    0    0    0  0.00000000000E+00  0.00000000000E+00  0.45593999997E+02  0.45594000000E+02  0.51100000000E-03 0.  1.
         11   -1    0    0    0    0 -0.00000000000E+00 -0.00000000000E+00 -0.45593999997E+02  0.45594000000E+02  0.51100000000E-03 0. -1.
    9900012    2    1    2    0    0  0.19425849940E+02  0.19272911082E+02  0.33686983740E+02  0.47787290086E+02  0.20000086820E+02 0.  0.
         12    1    1    2    0    0 -0.19425849940E+02 -0.19272911082E+02 -0.33686983740E+02  0.43400709914E+02  0.00000000000E+00 0. -1.
         11    1    3    3    0    0  0.87134686602E+01  0.31503342332E+01  0.17797339347E+02  0.20064755916E+02  0.51100000000E-03 0. -1.
        -11    1    3    3    0    0  0.81785288105E+01  0.17857620577E+02  0.13548122566E+02  0.23860732837E+02  0.51100000000E-03 0.  1.
         12    1    3    3    0    0  0.25338524697E+01 -0.17350437279E+01  0.23415218270E+01  0.38618013339E+01  0.00000000000E+00 0. -1.
</event>
<event>
 7    1  0.2812635E-010  0.4778728E+02  0.7816164E-02  0.1312668E+00
        -11   -1    0    0    0    0  0.00000000000E+00  0.00000000000E+00  0.45593999997E+02  0.45594000000E+02  0.51100000000E-03 0. -1.
         11   -1    0    0    0    0 -0.00000000000E+00 -0.00000000000E+00 -0.45593999997E+02  0.45594000000E+02  0.51100000000E-03 0.  1.
    9900012    2    1    2    0    0  0.10913881826E+02  0.13787307482E+02 -0.39678964008E+02  0.47787275941E+02  0.20000022326E+02 0.  0.
         12    1    1    2    0    0 -0.10913881826E+02 -0.13787307482E+02  0.39678964008E+02  0.43400724059E+02  0.00000000000E+00 0. -1.
         11    1    3    3    0    0 -0.29487464768E+01 -0.84734682264E+00 -0.34345729730E+01  0.46053658042E+01  0.51100000000E-03 0. -1.
        -11    1    3    3    0    0  0.11322299842E+02  0.10617454433E+02 -0.34971582623E+02  0.38261421873E+02  0.51100000000E-03 0.  1.
         12    1    3    3    0    0  0.25403284608E+01  0.40171998718E+01 -0.12728084117E+01  0.49204882636E+01  0.00000000000E+00 0. -1.
</event>
<event>
 7    1  0.2812635E-010  0.4778727E+02  0.7816164E-02  0.1312668E+00
        -11   -1    0    0    0    0  0.00000000000E+00  0.00000000000E+00  0.45593999997E+02  0.45594000000E+02  0.51100000000E-03 0.  1.
         11   -1    0    0    0    0 -0.00000000000E+00 -0.00000000000E+00 -0.45593999997E+02  0.45594000000E+02  0.51100000000E-03 0. -1.
    9900012    2    1    2    0    0 -0.16042779206E+02  0.18680254230E+02  0.35739346154E+02  0.47787268137E+02  0.19999986744E+02 0.  0.
         12    1    1    2    0    0  0.16042779206E+02 -0.18680254230E+02 -0.35739346154E+02  0.43400731863E+02  0.00000000000E+00 0. -1.
         11    1    3    3    0    0  0.34754395849E+01  0.47916826681E+01  0.50930139875E+01  0.78088216037E+01  0.51100000000E-03 0. -1.
        -11    1    3    3    0    0 -0.25260793365E+01  0.54315785997E+01  0.11785917076E+02  0.13220853395E+02  0.51100000000E-03 0.  1.
         12    1    3    3    0    0 -0.16992139454E+02  0.84569929624E+01  0.18860415090E+02  0.26757593138E+02  0.00000000000E+00 0. -1.
</event>
<event>
 7    1  0.2812635E-010  0.4778727E+02  0.7816164E-02  0.1312668E+00
        -11   -1    0    0    0    0  0.00000000000E+00  0.00000000000E+00  0.45593999997E+02  0.45594000000E+02  0.51100000000E-03 0. -1.
         11   -1    0    0    0    0 -0.00000000000E+00 -0.00000000000E+00 -0.45593999997E+02  0.45594000000E+02  0.51100000000E-03 0.  1.
    9900012    2    1    2    0    0 -0.20269766905E+02 -0.36563546817E+02 -0.11656180214E+02  0.47787274851E+02  0.20000017356E+02 0.  0.
         12    1    1    2    0    0  0.20269766905E+02  0.36563546817E+02  0.11656180214E+02  0.43400725149E+02  0.00000000000E+00 0. -1.
         11    1    3    3    0    0 -0.44382219121E+01 -0.22809252983E+02 -0.29801714409E+01  0.23427361300E+02  0.51100000000E-03 0. -1.
        -11    1    3    3    0    0  0.11876053103E+00 -0.29011034521E+01 -0.31661995442E+01  0.42959661449E+01  0.51100000000E-03 0.  1.
         12    1    3    3    0    0 -0.15950305524E+02 -0.10853190382E+02 -0.55098092291E+01  0.20063947406E+02  0.00000000000E+00 0. -1.
</event>
<event>
 7    1  0.2812635E-010  0.4778727E+02  0.7816164E-02  0.1312668E+00
        -11   -1    0    0    0    0  0.00000000000E+00  0.00000000000E+00  0.45593999997E+02  0.45594000000E+02  0.51100000000E-03 0. -1.
         11   -1    0    0    0    0 -0.00000000000E+00 -0.00000000000E+00 -0.45593999997E+02  0.45594000000E+02  0.51100000000E-03 0.  1.
    9900012    2    1    2    0    0  0.17745312408E+02  0.39072653508E+02 -0.64849902258E+01  0.47787268868E+02  0.19999990075E+02 0.  0.
         12    1    1    2    0    0 -0.17745312408E+02 -0.39072653508E+02  0.64849902258E+01  0.43400731132E+02  0.00000000000E+00 0. -1.
         11    1    3    3    0    0  0.15763682316E+02  0.20009515701E+02 -0.74516861452E+01  0.26540573193E+02  0.51100000000E-03 0. -1.
        -11    1    3    3    0    0  0.54925912815E+01  0.14163096826E+02  0.46784214690E+00  0.15198050771E+02  0.51100000000E-03 0.  1.
         12    1    3    3    0    0 -0.35109611894E+01  0.49000409813E+01  0.49885377248E+00  0.60486449043E+01  0.00000000000E+00 0. -1.
</event>
<event>
 7    1  0.2812635E-010  0.4778727E+02  0.7816164E-02  0.1312668E+00
        -11   -1    0    0    0    0  0.00000000000E+00  0.00000000000E+00  0.45593999997E+02  0.45594000000E+02  0.51100000000E-03 0.  1.
         11   -1    0    0    0    0 -0.00000000000E+00 -0.00000000000E+00 -0.45593999997E+02  0.45594000000E+02  0.51100000000E-03 0. -1.
    9900012    2    1    2    0    0 -0.63478090854E+01 -0.29674777259E+02  0.31027991833E+02  0.47787270021E+02  0.19999995335E+02 0.  0.
         12    1    1    2    0    0  0.63478090854E+01  0.29674777259E+02 -0.31027991833E+02  0.43400729979E+02  0.00000000000E+00 0. -1.
         11    1    3    3    0    0  0.50147129677E+01 -0.17499073716E+01  0.19261144969E+01  0.56497291328E+01  0.51100000000E-03 0. -1.
        -11    1    3    3    0    0 -0.22166352182E+01 -0.10970298783E+02  0.11391736734E+02  0.15969739921E+02  0.51100000000E-03 0.  1.
         12    1    3    3    0    0 -0.91458868349E+01 -0.16954571104E+02  0.17710140602E+02  0.26167800967E+02  0.00000000000E+00 0. -1.
</event>
<event>
 7    1  0.2812635E-010  0.4778727E+02  0.7816164E-02  0.1312668E+00
        -11   -1    0    0    0    0  0.00000000000E+00  0.00000000000E+00  0.45593999997E+02  0.45594000000E+02  0.51100000000E-03 0.  1.
         11   -1    0    0    0    0 -0.00000000000E+00 -0.00000000000E+00 -0.45593999997E+02  0.45594000000E+02  0.51100000000E-03 0. -1.
    9900012    2    1    2    0    0 -0.17030004252E+02  0.13034785537E+02  0.37731904015E+02  0.47787271211E+02  0.20000000758E+02 0.  0.
         12    1    1    2    0    0  0.17030004252E+02 -0.13034785537E+02 -0.37731904015E+02  0.43400728789E+02  0.00000000000E+00 0. -1.
         11    1    3    3    0    0 -0.86665551840E+01  0.21808754055E+01  0.28136876797E+01  0.93692174119E+01  0.51100000000E-03 0. -1.
        -11    1    3    3    0    0 -0.90243906895E+01  0.94966037895E+01  0.23537878819E+02  0.26938018681E+02  0.51100000000E-03 0.  1.
         12    1    3    3    0    0  0.66094162201E+00  0.13573063423E+01  0.11380337516E+02  0.11480035118E+02  0.00000000000E+00 0. -1.
</event>
<event>
 7    1  0.2812635E-010  0.4778727E+02  0.7816164E-02  0.1312668E+00
        -11   -1    0    0    0    0  0.00000000000E+00  0.00000000000E+00  0.45593999997E+02  0.45594000000E+02  0.51100000000E-03 0.  1.
         11   -1    0    0    0    0 -0.00000000000E+00 -0.00000000000E+00 -0.45593999997E+02  0.45594000000E+02  0.51100000000E-03 0. -1.
    9900012    2    1    2    0    0  0.39516822163E+02 -0.33015510995E+01  0.17639267435E+02  0.47787271560E+02  0.20000002351E+02 0.  0.
         12    1    1    2    0    0 -0.39516822163E+02  0.33015510995E+01 -0.17639267435E+02  0.43400728440E+02  0.00000000000E+00 0. -1.
         11    1    3    3    0    0  0.10515914688E+02  0.46689503699E+01  0.21468346114E+01  0.11704377744E+02  0.51100000000E-03 0. -1.
        -11    1    3    3    0    0  0.21030518112E+02 -0.10436080515E+02  0.78125713441E+01  0.24743296867E+02  0.51100000000E-03 0.  1.
         12    1    3    3    0    0  0.79703893625E+01  0.24655790453E+01  0.76798614790E+01  0.11339596949E+02  0.00000000000E+00 0. -1.
</event>
<event>
 7    1  0.2812635E-010  0.4778727E+02  0.7816164E-02  0.1312668E+00
        -11   -1    0    0    0    0  0.00000000000E+00  0.00000000000E+00  0.45593999997E+02  0.45594000000E+02  0.51100000000E-03 0.  1.
         11   -1    0    0    0    0 -0.00000000000E+00 -0.00000000000E+00 -0.45593999997E+02  0.45594000000E+02  0.51100000000E-03 0. -1.
    9900012    2    1    2    0    0 -0.26095350616E+02 -0.24119268903E+02  0.24918201903E+02  0.47787271408E+02  0.20000001659E+02 0.  0.
         12    1    1    2    0    0  0.26095350616E+02  0.24119268903E+02 -0.24918201903E+02  0.43400728592E+02  0.00000000000E+00 0. -1.
         11    1    3    3    0    0 -0.13763948783E+01 -0.64378651666E+01  0.40471367032E+01  0.77278642923E+01  0.51100000000E-03 0.  1.
        -11    1    3    3    0    0 -0.35198617934E+01  0.12042160139E+01 -0.14003646222E+01  0.39749949168E+01  0.51100000000E-03 0. -1.
        -12    1    3    3    0    0 -0.21199093945E+02 -0.18885619751E+02  0.22271429822E+02  0.36084412199E+02  0.00000000000E+00 0.  1.
</event>
<event>
 7    1  0.2812635E-010  0.4778727E+02  0.7816164E-02  0.1312668E+00
        -11   -1    0    0    0    0  0.00000000000E+00  0.00000000000E+00  0.45593999997E+02  0.45594000000E+02  0.51100000000E-03 0.  1.
         11   -1    0    0    0    0 -0.00000000000E+00 -0.00000000000E+00 -0.45593999997E+02  0.45594000000E+02  0.51100000000E-03 0. -1.
    9900012    2    1    2    0    0 -0.19878073665E+02 -0.26995314288E+02  0.27563350470E+02  0.47787273102E+02  0.20000009380E+02 0.  0.
         12    1    1    2    0    0  0.19878073665E+02  0.26995314288E+02 -0.27563350470E+02  0.43400726898E+02  0.00000000000E+00 0. -1.
         11    1    3    3    0    0 -0.35506731103E+01  0.48865560495E+00  0.36623883068E+01  0.51243684691E+01  0.51100000000E-03 0. -1.
        -11    1    3    3    0    0 -0.12621884690E+02 -0.20687050928E+02  0.25030542608E+02  0.34839548113E+02  0.51100000000E-03 0.  1.
        -12    1    3    3    0    0 -0.37055158652E+01 -0.67969189653E+01 -0.11295804449E+01  0.78233565194E+01  0.00000000000E+00 0.  1.
</event>
<event>
 7    1  0.2812635E-010  0.4778727E+02  0.7816164E-02  0.1312668E+00
        -11   -1    0    0    0    0  0.00000000000E+00  0.00000000000E+00  0.45593999997E+02  0.45594000000E+02  0.51100000000E-03 0. -1.
         11   -1    0    0    0    0 -0.00000000000E+00 -0.00000000000E+00 -0.45593999997E+02  0.45594000000E+02  0.51100000000E-03 0.  1.
    9900012    2    1    2    0    0 -0.27859987522E+02 -0.14769511312E+02 -0.29821233771E+02  0.47787270135E+02  0.19999995855E+02 0.  0.
         12    1    1    2    0    0  0.27859987522E+02  0.14769511312E+02  0.29821233771E+02  0.43400729865E+02  0.00000000000E+00 0. -1.
         11    1    3    3    0    0 -0.87857497076E+01 -0.68919603805E+01 -0.70561452225E+01  0.13209000775E+02  0.51100000000E-03 0. -1.
        -11    1    3    3    0    0 -0.83941515595E+01 -0.99052558235E+01 -0.53371379239E+01  0.14037838680E+02  0.51100000000E-03 0.  1.
        -12    1    3    3    0    0 -0.10680086255E+02  0.20277048917E+01 -0.17427950625E+02  0.20540430680E+02  0.00000000000E+00 0.  1.
</event>
<event>
 7    1  0.2812635E-010  0.4778728E+02  0.7816164E-02  0.1312668E+00
        -11   -1    0    0    0    0  0.00000000000E+00  0.00000000000E+00  0.45593999997E+02  0.45594000000E+02  0.51100000000E-03 0.  1.
         11   -1    0    0    0    0 -0.00000000000E+00 -0.00000000000E+00 -0.45593999997E+02  0.45594000000E+02  0.51100000000E-03 0. -1.
    9900012    2    1    2    0    0  0.16742329903E+01 -0.84082874299E+01  0.42545509179E+02  0.47787277599E+02  0.20000029887E+02 0.  0.
         12    1    1    2    0    0 -0.16742329903E+01  0.84082874299E+01 -0.42545509179E+02  0.43400722401E+02  0.00000000000E+00 0. -1.
         11    1    3    3    0    0 -0.29268326094E+01 -0.10277709979E+01  0.26084701677E+00  0.31129895237E+01  0.51100000000E-03 0. -1.
        -11    1    3    3    0    0  0.35980187401E+01 -0.85868508208E+01  0.42073482164E+02  0.43091271130E+02  0.51100000000E-03 0.  1.
        -12    1    3    3    0    0  0.10030468595E+01  0.12063343888E+01  0.21117999760E+00  0.15830169460E+01  0.00000000000E+00 0.  1.
</event>
<event>
 7    1  0.2812635E-010  0.4778727E+02  0.7816164E-02  0.1312668E+00
        -11   -1    0    0    0    0  0.00000000000E+00  0.00000000000E+00  0.45593999997E+02  0.45594000000E+02  0.51100000000E-03 0. -1.
         11   -1    0    0    0    0 -0.00000000000E+00 -0.00000000000E+00 -0.45593999997E+02  0.45594000000E+02  0.51100000000E-03 0.  1.
    9900012    2    1    2    0    0  0.58246281955E+00  0.43189928157E+02 -0.42324672998E+01  0.47787274930E+02  0.20000017717E+02 0.  0.
         12    1    1    2    0    0 -0.58246281955E+00 -0.43189928157E+02  0.42324672998E+01  0.43400725070E+02  0.00000000000E+00 0. -1.
         11    1    3    3    0    0  0.95094548315E+01  0.28690973167E+02 -0.44337088845E+01  0.30549295363E+02  0.51100000000E-03 0. -1.
        -11    1    3    3    0    0 -0.58206066320E+01  0.97521311212E+01 -0.11232336355E+01  0.11412500910E+02  0.51100000000E-03 0.  1.
         12    1    3    3    0    0 -0.31063853799E+01  0.47468238686E+01  0.13244752202E+01  0.58254786565E+01  0.00000000000E+00 0. -1.
</event>
<event>
 7    1  0.2812635E-010  0.4778727E+02  0.7816164E-02  0.1312668E+00
        -11   -1    0    0    0    0  0.00000000000E+00  0.00000000000E+00  0.45593999997E+02  0.45594000000E+02  0.51100000000E-03 0.  1.
         11   -1    0    0    0    0 -0.00000000000E+00 -0.00000000000E+00 -0.45593999997E+02  0.45594000000E+02  0.51100000000E-03 0. -1.
    9900012    2    1    2    0    0 -0.36686839221E+02  0.23048124613E+02 -0.25461544493E+01  0.47787272787E+02  0.20000007943E+02 0.  0.
         12    1    1    2    0    0  0.36686839221E+02 -0.23048124613E+02  0.25461544493E+01  0.43400727213E+02  0.00000000000E+00 0. -1.
         11    1    3    3    0    0 -0.26717513173E+02  0.16214901633E+02 -0.10817774694E+02  0.33072236010E+02  0.51100000000E-03 0. -1.
        -11    1    3    3    0    0 -0.88351211211E+01  0.55247914592E+01  0.68019936280E+01  0.12443866098E+02  0.51100000000E-03 0.  1.
         12    1    3    3    0    0 -0.11342049264E+01  0.13084315203E+01  0.14696266163E+01  0.22711706782E+01  0.00000000000E+00 0. -1.
</event>
<event>
 7    1  0.2812635E-010  0.4778728E+02  0.7816164E-02  0.1312668E+00
        -11   -1    0    0    0    0  0.00000000000E+00  0.00000000000E+00  0.45593999997E+02  0.45594000000E+02  0.51100000000E-03 0.  1.
         11   -1    0    0    0    0 -0.00000000000E+00 -0.00000000000E+00 -0.45593999997E+02  0.45594000000E+02  0.51100000000E-03 0. -1.
    9900012    2    1    2    0    0 -0.24496029980E+02  0.12707557529E+02  0.33497542864E+02  0.47787275570E+02  0.20000020633E+02 0.  0.
         12    1    1    2    0    0  0.24496029980E+02 -0.12707557529E+02 -0.33497542864E+02  0.43400724430E+02  0.00000000000E+00 0. -1.
         11    1    3    3    0    0  0.28734714891E+00  0.19692959214E+01  0.41706181238E+01  0.46211200596E+01  0.51100000000E-03 0. -1.
        -11    1    3    3    0    0 -0.10785743328E+02  0.34481917824E+00  0.21498483183E+02  0.24054852709E+02  0.51100000000E-03 0.  1.
        -12    1    3    3    0    0 -0.13997633801E+02  0.10393442429E+02  0.78284415570E+01  0.19111302802E+02  0.00000000000E+00 0.  1.
</event>
<event>
 7    1  0.2812635E-010  0.4778727E+02  0.7816164E-02  0.1312668E+00
        -11   -1    0    0    0    0  0.00000000000E+00  0.00000000000E+00  0.45593999997E+02  0.45594000000E+02  0.51100000000E-03 0.  1.
         11   -1    0    0    0    0 -0.00000000000E+00 -0.00000000000E+00 -0.45593999997E+02  0.45594000000E+02  0.51100000000E-03 0. -1.
    9900012    2    1    2    0    0 -0.10377135564E+02 -0.41881793025E+02  0.46748378082E+01  0.47787266849E+02  0.19999980871E+02 0.  0.
         12    1    1    2    0    0  0.10377135564E+02  0.41881793025E+02 -0.46748378082E+01  0.43400733151E+02  0.00000000000E+00 0. -1.
         11    1    3    3    0    0 -0.50055846723E+01 -0.19016920305E+01  0.25655256467E+01  0.59375274816E+01  0.51100000000E-03 0. -1.
        -11    1    3    3    0    0 -0.87425881882E+01 -0.27661573462E+02  0.95068148428E+00  0.29025838320E+02  0.51100000000E-03 0.  1.
         12    1    3    3    0    0  0.33710372966E+01 -0.12318527532E+02  0.11586306773E+01  0.12823901047E+02  0.00000000000E+00 0. -1.
</event>
<event>
 7    1  0.2812635E-010  0.4778727E+02  0.7816164E-02  0.1312668E+00
        -11   -1    0    0    0    0  0.00000000000E+00  0.00000000000E+00  0.45593999997E+02  0.45594000000E+02  0.51100000000E-03 0.  1.
         11   -1    0    0    0    0 -0.00000000000E+00 -0.00000000000E+00 -0.45593999997E+02  0.45594000000E+02  0.51100000000E-03 0. -1.
    9900012    2    1    2    0    0  0.21031944742E+02 -0.52741418591E+01  0.37596063949E+02  0.47787270785E+02  0.19999998815E+02 0.  0.
         12    1    1    2    0    0 -0.21031944742E+02  0.52741418591E+01 -0.37596063949E+02  0.43400729215E+02  0.00000000000E+00 0. -1.
         11    1    3    3    0    0  0.12756619234E+02  0.55103225186E+01  0.16650502073E+02  0.21687189954E+02  0.51100000000E-03 0. -1.
        -11    1    3    3    0    0  0.61790406462E+01 -0.58441466184E+01  0.18161388119E+02  0.20054191873E+02  0.51100000000E-03 0.  1.
         12    1    3    3    0    0  0.20962848619E+01 -0.49403177594E+01  0.27841737572E+01  0.60458889583E+01  0.00000000000E+00 0. -1.
</event>
<event>
 7    1  0.2812635E-010  0.4778727E+02  0.7816164E-02  0.1312668E+00
        -11   -1    0    0    0    0  0.00000000000E+00  0.00000000000E+00  0.45593999997E+02  0.45594000000E+02  0.51100000000E-03 0.  1.
         11   -1    0    0    0    0 -0.00000000000E+00 -0.00000000000E+00 -0.45593999997E+02  0.45594000000E+02  0.51100000000E-03 0. -1.
    9900012    2    1    2    0    0 -0.35585803960E+02  0.16699483819E+02  0.18395686155E+02  0.47787268757E+02  0.19999989572E+02 0.  0.
         12    1    1    2    0    0  0.35585803960E+02 -0.16699483819E+02 -0.18395686155E+02  0.43400731243E+02  0.00000000000E+00 0. -1.
         11    1    3    3    0    0  0.81339773500E+00  0.17877511963E+01 -0.14543642462E+01  0.24439406370E+01  0.51100000000E-03 0. -1.
        -11    1    3    3    0    0 -0.27483788892E+01  0.45369320166E+01  0.43889385791E+01  0.68847745609E+01  0.51100000000E-03 0.  1.
         12    1    3    3    0    0 -0.33650822806E+02  0.10374800606E+02  0.15461111822E+02  0.38458553559E+02  0.00000000000E+00 0. -1.
</event>
<event>
 7    1  0.2812635E-010  0.4778728E+02  0.7816164E-02  0.1312668E+00
        -11   -1    0    0    0    0  0.00000000000E+00  0.00000000000E+00  0.45593999997E+02  0.45594000000E+02  0.51100000000E-03 0.  1.
         11   -1    0    0    0    0 -0.00000000000E+00 -0.00000000000E+00 -0.45593999997E+02  0.45594000000E+02  0.51100000000E-03 0. -1.
    9900012    2    1    2    0    0 -0.25814460939E+02  0.34859443838E+02  0.14336844140E+01  0.47787278010E+02  0.20000031760E+02 0.  0.
         12    1    1    2    0    0  0.25814460939E+02 -0.34859443838E+02 -0.14336844140E+01  0.43400721990E+02  0.00000000000E+00 0. -1.
         11    1    3    3    0    0 -0.94638175848E+01  0.17017368830E+01  0.96127838508E+00  0.96635297946E+01  0.51100000000E-03 0. -1.
        -11    1    3    3    0    0 -0.98367298390E+01  0.23143898904E+02  0.44390715766E+01  0.25536379288E+02  0.51100000000E-03 0.  1.
         12    1    3    3    0    0 -0.65139135153E+01  0.10013808051E+02 -0.39666655477E+01  0.12587368928E+02  0.00000000000E+00 0. -1.
</event>
<event>
 7    1  0.2812635E-010  0.4778727E+02  0.7816164E-02  0.1312668E+00
        -11   -1    0    0    0    0  0.00000000000E+00  0.00000000000E+00  0.45593999997E+02  0.45594000000E+02  0.51100000000E-03 0.  1.
         11   -1    0    0    0    0 -0.00000000000E+00 -0.00000000000E+00 -0.45593999997E+02  0.45594000000E+02  0.51100000000E-03 0. -1.
    9900012    2    1    2    0    0  0.16411187285E+02  0.26736108852E+01  0.40089251982E+02  0.47787269733E+02  0.19999994020E+02 0.  0.
         12    1    1    2    0    0 -0.16411187285E+02 -0.26736108852E+01 -0.40089251982E+02  0.43400730267E+02  0.00000000000E+00 0. -1.
         11    1    3    3    0    0 -0.19323009445E+01 -0.10622811653E+01 -0.28446955081E+00  0.22233199052E+01  0.51100000000E-03 0. -1.
        -11    1    3    3    0    0  0.16087417355E+02  0.56471487726E+01  0.27512035666E+02  0.32366763712E+02  0.51100000000E-03 0.  1.
         12    1    3    3    0    0  0.22560708742E+01 -0.19112567221E+01  0.12861685867E+02  0.13197186116E+02  0.00000000000E+00 0. -1.
</event>
<event>
 7    1  0.2812635E-010  0.4778727E+02  0.7816164E-02  0.1312668E+00
        -11   -1    0    0    0    0  0.00000000000E+00  0.00000000000E+00  0.45593999997E+02  0.45594000000E+02  0.51100000000E-03 0.  1.
         11   -1    0    0    0    0 -0.00000000000E+00 -0.00000000000E+00 -0.45593999997E+02  0.45594000000E+02  0.51100000000E-03 0. -1.
    9900012    2    1    2    0    0 -0.11195663233E+02 -0.11247766186E+02  0.40395152212E+02  0.47787269112E+02  0.19999991189E+02 0.  0.
         12    1    1    2    0    0  0.11195663233E+02  0.11247766186E+02 -0.40395152212E+02  0.43400730888E+02  0.00000000000E+00 0. -1.
         11    1    3    3    0    0  0.68300237505E+00  0.34065993495E+01  0.70575136789E+01  0.78663785163E+01  0.51100000000E-03 0. -1.
        -11    1    3    3    0    0 -0.97943362321E+01 -0.12268496578E+02  0.33229311888E+02  0.36750948278E+02  0.51100000000E-03 0.  1.
        -12    1    3    3    0    0 -0.20843293763E+01 -0.23858689581E+01  0.10832664447E+00  0.31699423175E+01  0.00000000000E+00 0.  1.
</event>
<event>
 7    1  0.2812635E-010  0.4778726E+02  0.7816164E-02  0.1312668E+00
        -11   -1    0    0    0    0  0.00000000000E+00  0.00000000000E+00  0.45593999997E+02  0.45594000000E+02  0.51100000000E-03 0. -1.
         11   -1    0    0    0    0 -0.00000000000E+00 -0.00000000000E+00 -0.45593999997E+02  0.45594000000E+02  0.51100000000E-03 0.  1.
    9900012    2    1    2    0    0  0.19822600326E+02  0.16993860074E+02 -0.34668389936E+02  0.47787262395E+02  0.19999960565E+02 0.  0.
         12    1    1    2    0    0 -0.19822600326E+02 -0.16993860074E+02  0.34668389936E+02  0.43400737605E+02  0.00000000000E+00 0. -1.
         11    1    3    3    0    0  0.36975447639E+01 -0.30270201082E+01 -0.12883357811E+02  0.13741018767E+02  0.51100000000E-03 0.  1.
        -11    1    3    3    0    0  0.77222913795E+01  0.80940486758E+01 -0.66025169289E+01  0.12990020715E+02  0.51100000000E-03 0. -1.
         12    1    3    3    0    0  0.84027641824E+01  0.11926831506E+02 -0.15182515196E+02  0.21056222913E+02  0.00000000000E+00 0. -1.
</event>
<event>
 7    1  0.2812635E-010  0.4778727E+02  0.7816164E-02  0.1312668E+00
        -11   -1    0    0    0    0  0.00000000000E+00  0.00000000000E+00  0.45593999997E+02  0.45594000000E+02  0.51100000000E-03 0. -1.
         11   -1    0    0    0    0 -0.00000000000E+00 -0.00000000000E+00 -0.45593999997E+02  0.45594000000E+02  0.51100000000E-03 0.  1.
    9900012    2    1    2    0    0 -0.59681171608E+01  0.42974962255E+02  0.10761012490E+01  0.47787265016E+02  0.19999972512E+02 0.  0.
         12    1    1    2    0    0  0.59681171608E+01 -0.42974962255E+02 -0.10761012490E+01  0.43400734984E+02  0.00000000000E+00 0. -1.
         11    1    3    3    0    0  0.35368999992E+01  0.24037674018E+02  0.32760172399E+01  0.24516356235E+02  0.51100000000E-03 0. -1.
        -11    1    3    3    0    0 -0.67434846731E+01  0.18355826657E+02 -0.39499289381E+01  0.19950260567E+02  0.51100000000E-03 0.  1.
        -12    1    3    3    0    0 -0.27615324869E+01  0.58146157952E+00  0.17500129471E+01  0.33206482138E+01  0.00000000000E+00 0.  1.
</event>
<event>
 7    1  0.2812635E-010  0.4778728E+02  0.7816164E-02  0.1312668E+00
        -11   -1    0    0    0    0  0.00000000000E+00  0.00000000000E+00  0.45593999997E+02  0.45594000000E+02  0.51100000000E-03 0.  1.
         11   -1    0    0    0    0 -0.00000000000E+00 -0.00000000000E+00 -0.45593999997E+02  0.45594000000E+02  0.51100000000E-03 0. -1.
    9900012    2    1    2    0    0  0.19222430200E+02  0.84133804835E+00  0.38902609421E+02  0.47787277745E+02  0.20000030551E+02 0.  0.
         12    1    1    2    0    0 -0.19222430200E+02 -0.84133804835E+00 -0.38902609421E+02  0.43400722255E+02  0.00000000000E+00 0. -1.
         11    1    3    3    0    0  0.43291233509E+01  0.82335740498E+01  0.17808974733E+02  0.20092103720E+02  0.51100000000E-03 0. -1.
        -11    1    3    3    0    0  0.48541413685E+01 -0.60698853568E+01  0.10176927495E+02  0.12805313357E+02  0.51100000000E-03 0.  1.
         12    1    3    3    0    0  0.10039165480E+02 -0.13223506447E+01  0.10916707193E+02  0.14889860668E+02  0.00000000000E+00 0. -1.
</event>
<event>
 7    1  0.2812635E-010  0.4778727E+02  0.7816164E-02  0.1312668E+00
        -11   -1    0    0    0    0  0.00000000000E+00  0.00000000000E+00  0.45593999997E+02  0.45594000000E+02  0.51100000000E-03 0. -1.
         11   -1    0    0    0    0 -0.00000000000E+00 -0.00000000000E+00 -0.45593999997E+02  0.45594000000E+02  0.51100000000E-03 0.  1.
    9900012    2    1    2    0    0  0.43483631869E+01 -0.15121140526E+02 -0.40448315820E+02  0.47787269524E+02  0.19999993066E+02 0.  0.
         12    1    1    2    0    0 -0.43483631869E+01  0.15121140526E+02  0.40448315820E+02  0.43400730476E+02  0.00000000000E+00 0. -1.
         11    1    3    3    0    0 -0.23166814782E+01 -0.68841561739E+01 -0.29541502181E+01  0.78412768776E+01  0.51100000000E-03 0. -1.
        -11    1    3    3    0    0  0.55155190680E-01 -0.51619463733E+01 -0.24579880145E+02  0.25116115159E+02  0.51100000000E-03 0.  1.
         12    1    3    3    0    0  0.66098894745E+01 -0.30750379791E+01 -0.12914285456E+02  0.14829877487E+02  0.00000000000E+00 0. -1.
</event>
<event>
 7    1  0.2812635E-010  0.4778728E+02  0.7816164E-02  0.1312668E+00
        -11   -1    0    0    0    0  0.00000000000E+00  0.00000000000E+00  0.45593999997E+02  0.45594000000E+02  0.51100000000E-03 0.  1.
         11   -1    0    0    0    0 -0.00000000000E+00 -0.00000000000E+00 -0.45593999997E+02  0.45594000000E+02  0.51100000000E-03 0. -1.
    9900012    2    1    2    0    0 -0.39945539526E+02  0.16089180977E+02  0.53958275194E+01  0.47787276191E+02  0.20000023464E+02 0.  0.
         12    1    1    2    0    0  0.39945539526E+02 -0.16089180977E+02 -0.53958275194E+01  0.43400723809E+02  0.00000000000E+00 0. -1.
         11    1    3    3    0    0 -0.23176188870E+01 -0.52673159824E+00 -0.27973670528E+01  0.36707037706E+01  0.51100000000E-03 0. -1.
        -11    1    3    3    0    0 -0.21285468666E+02  0.97173684514E+01 -0.22919274094E+01  0.23510664760E+02  0.51100000000E-03 0.  1.
         12    1    3    3    0    0 -0.16342451973E+02  0.68985441242E+01  0.10485121982E+02  0.20605907660E+02  0.00000000000E+00 0. -1.
</event>
<event>
 7    1  0.2812635E-010  0.4778728E+02  0.7816164E-02  0.1312668E+00
        -11   -1    0    0    0    0  0.00000000000E+00  0.00000000000E+00  0.45593999997E+02  0.45594000000E+02  0.51100000000E-03 0.  1.
         11   -1    0    0    0    0 -0.00000000000E+00 -0.00000000000E+00 -0.45593999997E+02  0.45594000000E+02  0.51100000000E-03 0. -1.
    9900012    2    1    2    0    0 -0.16558132587E+02  0.33011897304E+02 -0.22796165568E+02  0.47787282460E+02  0.20000052047E+02 0.  0.
         12    1    1    2    0    0  0.16558132587E+02 -0.33011897304E+02  0.22796165568E+02  0.43400717540E+02  0.00000000000E+00 0. -1.
         11    1    3    3    0    0 -0.56953766857E+01  0.14427723673E+02 -0.98268001055E+01  0.18361985910E+02  0.51100000000E-03 0. -1.
        -11    1    3    3    0    0 -0.14054375281E+02  0.14908673412E+02 -0.13487900279E+02  0.24529929915E+02  0.51100000000E-03 0.  1.
        -12    1    3    3    0    0  0.31916193803E+01  0.36755002195E+01  0.51853481627E+00  0.48953666347E+01  0.00000000000E+00 0.  1.
</event>
<event>
 7    1  0.2812635E-010  0.4778730E+02  0.7816164E-02  0.1312668E+00
        -11   -1    0    0    0    0  0.00000000000E+00  0.00000000000E+00  0.45593999997E+02  0.45594000000E+02  0.51100000000E-03 0.  1.
         11   -1    0    0    0    0 -0.00000000000E+00 -0.00000000000E+00 -0.45593999997E+02  0.45594000000E+02  0.51100000000E-03 0. -1.
    9900012    2    1    2    0    0  0.28908214259E+02 -0.20355588337E+02  0.25171124760E+02  0.47787304730E+02  0.20000153588E+02 0.  0.
         12    1    1    2    0    0 -0.28908214259E+02  0.20355588337E+02 -0.25171124760E+02  0.43400695270E+02  0.00000000000E+00 0. -1.
         11    1    3    3    0    0  0.11546877834E+01 -0.39436047019E+01 -0.21137160033E+01  0.46209433589E+01  0.51100000000E-03 0. -1.
        -11    1    3    3    0    0  0.13100225957E+02 -0.37137322233E+01  0.14768533437E+02  0.20087740224E+02  0.51100000000E-03 0.  1.
        -12    1    3    3    0    0  0.14653300519E+02 -0.12698251412E+02  0.12516307326E+02  0.23078621148E+02  0.00000000000E+00 0.  1.
</event>
<event>
 7    1  0.2812635E-010  0.4778727E+02  0.7816164E-02  0.1312668E+00
        -11   -1    0    0    0    0  0.00000000000E+00  0.00000000000E+00  0.45593999997E+02  0.45594000000E+02  0.51100000000E-03 0.  1.
         11   -1    0    0    0    0 -0.00000000000E+00 -0.00000000000E+00 -0.45593999997E+02  0.45594000000E+02  0.51100000000E-03 0. -1.
    9900012    2    1    2    0    0 -0.25124592810E+02  0.26492914035E+02  0.23462815928E+02  0.47787269716E+02  0.19999993941E+02 0.  0.
         12    1    1    2    0    0  0.25124592810E+02 -0.26492914035E+02 -0.23462815928E+02  0.43400730284E+02  0.00000000000E+00 0. -1.
         11    1    3    3    0    0 -0.94381462332E+00  0.61505996354E+01  0.10430354863E+02  0.12145491540E+02  0.51100000000E-03 0. -1.
        -11    1    3    3    0    0 -0.19935156692E+02  0.14436820654E+02  0.13980492626E+02  0.28307003326E+02  0.51100000000E-03 0.  1.
        -12    1    3    3    0    0 -0.42456214937E+01  0.59054937462E+01 -0.94803156111E+00  0.73347748496E+01  0.00000000000E+00 0.  1.
</event>
<event>
 7    1  0.2812635E-010  0.4778727E+02  0.7816164E-02  0.1312668E+00
        -11   -1    0    0    0    0  0.00000000000E+00  0.00000000000E+00  0.45593999997E+02  0.45594000000E+02  0.51100000000E-03 0. -1.
         11   -1    0    0    0    0 -0.00000000000E+00 -0.00000000000E+00 -0.45593999997E+02  0.45594000000E+02  0.51100000000E-03 0.  1.
    9900012    2    1    2    0    0 -0.87639789880E+01  0.19780964593E+02 -0.37623520151E+02  0.47787272397E+02  0.20000006166E+02 0.  0.
         12    1    1    2    0    0  0.87639789880E+01 -0.19780964593E+02  0.37623520151E+02  0.43400727603E+02  0.00000000000E+00 0. -1.
         11    1    3    3    0    0 -0.17497344317E+00 -0.12660332967E+01  0.12666586540E+01  0.17994111317E+01  0.51100000000E-03 0. -1.
        -11    1    3    3    0    0 -0.49078138064E+01  0.11920969498E+02 -0.30288346558E+02  0.32917777684E+02  0.51100000000E-03 0.  1.
        -12    1    3    3    0    0 -0.36811917384E+01  0.91260283922E+01 -0.86018322464E+01  0.13070083581E+02  0.00000000000E+00 0.  1.
</event>
<event>
 7    1  0.2812635E-010  0.4778727E+02  0.7816164E-02  0.1312668E+00
        -11   -1    0    0    0    0  0.00000000000E+00  0.00000000000E+00  0.45593999997E+02  0.45594000000E+02  0.51100000000E-03 0.  1.
         11   -1    0    0    0    0 -0.00000000000E+00 -0.00000000000E+00 -0.45593999997E+02  0.45594000000E+02  0.51100000000E-03 0. -1.
    9900012    2    1    2    0    0  0.28138564880E+02 -0.29907141791E+02  0.14050166099E+02  0.47787272690E+02  0.20000007504E+02 0.  0.
         12    1    1    2    0    0 -0.28138564880E+02  0.29907141791E+02 -0.14050166099E+02  0.43400727310E+02  0.00000000000E+00 0. -1.
         11    1    3    3    0    0  0.68879558261E+00  0.53023775896E+00  0.53043008667E+00  0.10183063260E+01  0.51100000000E-03 0. -1.
        -11    1    3    3    0    0  0.26953060751E+02 -0.18718878919E+02  0.12004803647E+02  0.34942513113E+02  0.51100000000E-03 0.  1.
        -12    1    3    3    0    0  0.49670854643E+00 -0.11718500631E+02  0.15149323652E+01  0.11826453251E+02  0.00000000000E+00 0.  1.
</event>
<event>
 7    1  0.2812635E-010  0.4778727E+02  0.7816164E-02  0.1312668E+00
        -11   -1    0    0    0    0  0.00000000000E+00  0.00000000000E+00  0.45593999997E+02  0.45594000000E+02  0.51100000000E-03 0.  1.
         11   -1    0    0    0    0 -0.00000000000E+00 -0.00000000000E+00 -0.45593999997E+02  0.45594000000E+02  0.51100000000E-03 0. -1.
    9900012    2    1    2    0    0 -0.33465909187E+02  0.13077437795E+02  0.24344133909E+02  0.47787270596E+02  0.19999997956E+02 0.  0.
         12    1    1    2    0    0  0.33465909187E+02 -0.13077437795E+02 -0.24344133909E+02  0.43400729404E+02  0.00000000000E+00 0. -1.
         11    1    3    3    0    0 -0.15179610261E+02 -0.22909840944E+01  0.10274335716E+02  0.18472443002E+02  0.51100000000E-03 0. -1.
        -11    1    3    3    0    0 -0.17555504607E+02  0.15208382383E+02  0.10190560863E+02  0.25364111805E+02  0.51100000000E-03 0.  1.
        -12    1    3    3    0    0 -0.73079431943E+00  0.16003950567E+00  0.38792373298E+01  0.39507157886E+01  0.00000000000E+00 0.  1.
</event>
<event>
 7    1  0.2812635E-010  0.4778728E+02  0.7816164E-02  0.1312668E+00
        -11   -1    0    0    0    0  0.00000000000E+00  0.00000000000E+00  0.45593999997E+02  0.45594000000E+02  0.51100000000E-03 0.  1.
         11   -1    0    0    0    0 -0.00000000000E+00 -0.00000000000E+00 -0.45593999997E+02  0.45594000000E+02  0.51100000000E-03 0. -1.
    9900012    2    1    2    0    0 -0.13710843414E+02  0.59787004569E+00  0.41173748129E+02  0.47787283293E+02  0.20000055846E+02 0.  0.
         12    1    1    2    0    0  0.13710843414E+02 -0.59787004569E+00 -0.41173748129E+02  0.43400716707E+02  0.00000000000E+00 0. -1.
         11    1    3    3    0    0  0.13377546690E+01  0.57309819498E+01  0.35721431750E+01  0.68843263132E+01  0.51100000000E-03 0. -1.
        -11    1    3    3    0    0 -0.43543511849E+01 -0.27181551082E+01  0.11680101750E+02  0.12758272555E+02  0.51100000000E-03 0.  1.
         12    1    3    3    0    0 -0.10694246898E+02 -0.24149567959E+01  0.25921503204E+02  0.28144684425E+02  0.00000000000E+00 0. -1.
</event>
<event>
 7    1  0.2812635E-010  0.4778727E+02  0.7816164E-02  0.1312668E+00
        -11   -1    0    0    0    0  0.00000000000E+00  0.00000000000E+00  0.45593999997E+02  0.45594000000E+02  0.51100000000E-03 0.  1.
         11   -1    0    0    0    0 -0.00000000000E+00 -0.00000000000E+00 -0.45593999997E+02  0.45594000000E+02  0.51100000000E-03 0. -1.
    9900012    2    1    2    0    0  0.12534863519E+02 -0.12262874572E+02  0.39700408593E+02  0.47787270298E+02  0.19999996596E+02 0.  0.
         12    1    1    2    0    0 -0.12534863519E+02  0.12262874572E+02 -0.39700408593E+02  0.43400729702E+02  0.00000000000E+00 0. -1.
         11    1    3    3    0    0  0.12862281290E+02 -0.13494503107E+02  0.20081840726E+02  0.27401098906E+02  0.51100000000E-03 0. -1.
        -11    1    3    3    0    0  0.22319043787E+01  0.15269261577E+01  0.13115196301E+02  0.13391089385E+02  0.51100000000E-03 0.  1.
         12    1    3    3    0    0 -0.25593221492E+01 -0.29529762314E+00  0.65033715666E+01  0.69950820069E+01  0.00000000000E+00 0. -1.
</event>
<event>
 7    1  0.2812635E-010  0.4778727E+02  0.7816164E-02  0.1312668E+00
        -11   -1    0    0    0    0  0.00000000000E+00  0.00000000000E+00  0.45593999997E+02  0.45594000000E+02  0.51100000000E-03 0.  1.
         11   -1    0    0    0    0 -0.00000000000E+00 -0.00000000000E+00 -0.45593999997E+02  0.45594000000E+02  0.51100000000E-03 0. -1.
    9900012    2    1    2    0    0  0.60571348797E+00 -0.41133066154E+02  0.13832113481E+02  0.47787269782E+02  0.19999994246E+02 0.  0.
         12    1    1    2    0    0 -0.60571348797E+00  0.41133066154E+02 -0.13832113481E+02  0.43400730218E+02  0.00000000000E+00 0. -1.
         11    1    3    3    0    0 -0.45344604978E+01 -0.49656844245E+01 -0.14495369308E+01  0.68789905789E+01  0.51100000000E-03 0. -1.
        -11    1    3    3    0    0  0.22171574901E+01 -0.17355838172E+02  0.12866575374E+02  0.21718417716E+02  0.51100000000E-03 0.  1.
         12    1    3    3    0    0  0.29230164957E+01 -0.18811543558E+02  0.24150750374E+01  0.19189861487E+02  0.00000000000E+00 0. -1.
</event>
<event>
 7    1  0.2812635E-010  0.4778728E+02  0.7816164E-02  0.1312668E+00
        -11   -1    0    0    0    0  0.00000000000E+00  0.00000000000E+00  0.45593999997E+02  0.45594000000E+02  0.51100000000E-03 0.  1.
         11   -1    0    0    0    0 -0.00000000000E+00 -0.00000000000E+00 -0.45593999997E+02  0.45594000000E+02  0.51100000000E-03 0. -1.
    9900012    2    1    2    0    0 -0.47822848574E+00 -0.31789870873E+02  0.29543159580E+02  0.47787275691E+02  0.20000021184E+02 0.  0.
         12    1    1    2    0    0  0.47822848574E+00  0.31789870873E+02 -0.29543159580E+02  0.43400724309E+02  0.00000000000E+00 0. -1.
         11    1    3    3    0    0  0.58829079999E+01 -0.97491524329E+01  0.19882301840E+01  0.11558877074E+02  0.51100000000E-03 0. -1.
        -11    1    3    3    0    0 -0.35534732657E+01 -0.15415864716E+02  0.15246542878E+02  0.21971188570E+02  0.51100000000E-03 0.  1.
         12    1    3    3    0    0 -0.28076632199E+01 -0.66248537235E+01  0.12308386518E+02  0.14257210046E+02  0.00000000000E+00 0. -1.
</event>
<event>
 7    1  0.2812635E-010  0.4778727E+02  0.7816164E-02  0.1312668E+00
        -11   -1    0    0    0    0  0.00000000000E+00  0.00000000000E+00  0.45593999997E+02  0.45594000000E+02  0.51100000000E-03 0. -1.
         11   -1    0    0    0    0 -0.00000000000E+00 -0.00000000000E+00 -0.45593999997E+02  0.45594000000E+02  0.51100000000E-03 0.  1.
    9900012    2    1    2    0    0  0.30758008825E+02 -0.33961329398E+01 -0.30430814283E+02  0.47787270931E+02  0.19999999481E+02 0.  0.
         12    1    1    2    0    0 -0.30758008825E+02  0.33961329398E+01  0.30430814283E+02  0.43400729069E+02  0.00000000000E+00 0. -1.
         11    1    3    3    0    0  0.10356836294E+02  0.13755268327E+00 -0.22996348804E+02  0.25221321087E+02  0.51100000000E-03 0. -1.
        -11    1    3    3    0    0  0.18487322999E+02 -0.27153218354E+01 -0.49606125288E+01  0.19332919109E+02  0.51100000000E-03 0.  1.
        -12    1    3    3    0    0  0.19138495322E+01 -0.81836378760E+00 -0.24738529497E+01  0.32330307356E+01  0.00000000000E+00 0.  1.
</event>
<event>
 7    1  0.2812635E-010  0.4778727E+02  0.7816164E-02  0.1312668E+00
        -11   -1    0    0    0    0  0.00000000000E+00  0.00000000000E+00  0.45593999997E+02  0.45594000000E+02  0.51100000000E-03 0.  1.
         11   -1    0    0    0    0 -0.00000000000E+00 -0.00000000000E+00 -0.45593999997E+02  0.45594000000E+02  0.51100000000E-03 0. -1.
    9900012    2    1    2    0    0  0.10427351619E+02  0.14539300619E+02  0.39541153987E+02  0.47787265181E+02  0.19999973264E+02 0.  0.
         12    1    1    2    0    0 -0.10427351619E+02 -0.14539300619E+02 -0.39541153987E+02  0.43400734819E+02  0.00000000000E+00 0. -1.
         11    1    3    3    0    0 -0.22411069737E+01 -0.13472677909E+01 -0.46240516600E-01  0.26153067534E+01  0.51100000000E-03 0. -1.
        -11    1    3    3    0    0  0.94937764612E+01  0.86897780349E+01  0.30785295132E+02  0.33367325791E+02  0.51100000000E-03 0.  1.
         12    1    3    3    0    0  0.31746821319E+01  0.71967903751E+01  0.88020993708E+01  0.11804632636E+02  0.00000000000E+00 0. -1.
</event>
<event>
 7    1  0.2812635E-010  0.4778727E+02  0.7816164E-02  0.1312668E+00
        -11   -1    0    0    0    0  0.00000000000E+00  0.00000000000E+00  0.45593999997E+02  0.45594000000E+02  0.51100000000E-03 0. -1.
         11   -1    0    0    0    0 -0.00000000000E+00 -0.00000000000E+00 -0.45593999997E+02  0.45594000000E+02  0.51100000000E-03 0.  1.
    9900012    2    1    2    0    0  0.76079116770E+01  0.40362969131E+02 -0.14020483006E+02  0.47787267968E+02  0.19999985973E+02 0.  0.
         12    1    1    2    0    0 -0.76079116770E+01 -0.40362969131E+02  0.14020483006E+02  0.43400732032E+02  0.00000000000E+00 0. -1.
         11    1    3    3    0    0 -0.37403643717E+00  0.90221042345E+01 -0.96638149900E+01  0.13226019375E+02  0.51100000000E-03 0. -1.
        -11    1    3    3    0    0  0.68898748493E+01  0.31534120127E+02 -0.57439827274E+01  0.32785125369E+02  0.51100000000E-03 0.  1.
         12    1    3    3    0    0  0.10920732648E+01 -0.19325523044E+00  0.13873147110E+01  0.17761232241E+01  0.00000000000E+00 0. -1.
</event>
<event>
 7    1  0.2812635E-010  0.4778726E+02  0.7816164E-02  0.1312668E+00
        -11   -1    0    0    0    0  0.00000000000E+00  0.00000000000E+00  0.45593999997E+02  0.45594000000E+02  0.51100000000E-03 0.  1.
         11   -1    0    0    0    0 -0.00000000000E+00 -0.00000000000E+00 -0.45593999997E+02  0.45594000000E+02  0.51100000000E-03 0. -1.
    9900012    2    1    2    0    0  0.26116953005E+02  0.13065115486E+02  0.32106565131E+02  0.47787262663E+02  0.19999961786E+02 0.  0.
         12    1    1    2    0    0 -0.26116953005E+02 -0.13065115486E+02 -0.32106565131E+02  0.43400737337E+02  0.00000000000E+00 0. -1.
         11    1    3    3    0    0  0.18818755136E+02  0.15929480335E+02  0.19940679259E+02  0.31710007540E+02  0.51100000000E-03 0. -1.
        -11    1    3    3    0    0  0.84950237023E+01 -0.29076944826E+01  0.90918919777E+01  0.12778208595E+02  0.51100000000E-03 0.  1.
         12    1    3    3    0    0 -0.11968258339E+01  0.43329633800E-01  0.30739938935E+01  0.32990465276E+01  0.00000000000E+00 0. -1.
</event>
<event>
 7    1  0.2812635E-010  0.4778728E+02  0.7816164E-02  0.1312668E+00
        -11   -1    0    0    0    0  0.00000000000E+00  0.00000000000E+00  0.45593999997E+02  0.45594000000E+02  0.51100000000E-03 0.  1.
         11   -1    0    0    0    0 -0.00000000000E+00 -0.00000000000E+00 -0.45593999997E+02  0.45594000000E+02  0.51100000000E-03 0. -1.
    9900012    2    1    2    0    0  0.22096342688E+02 -0.34182528751E+02  0.15064159263E+02  0.47787279657E+02  0.20000039270E+02 0.  0.
         12    1    1    2    0    0 -0.22096342688E+02  0.34182528751E+02 -0.15064159263E+02  0.43400720343E+02  0.00000000000E+00 0. -1.
         11    1    3    3    0    0  0.14009000226E+02 -0.55958903257E+01  0.51448374679E+01  0.15938488909E+02  0.51100000000E-03 0. -1.
        -11    1    3    3    0    0  0.20991288311E+01 -0.22667186247E+01 -0.56829181821E-02  0.30893992506E+01  0.51100000000E-03 0.  1.
         12    1    3    3    0    0  0.59882136311E+01 -0.26319919800E+02  0.99250047129E+01  0.28759391498E+02  0.00000000000E+00 0. -1.
</event>
<event>
 7    1  0.2812635E-010  0.4778727E+02  0.7816164E-02  0.1312668E+00
        -11   -1    0    0    0    0  0.00000000000E+00  0.00000000000E+00  0.45593999997E+02  0.45594000000E+02  0.51100000000E-03 0.  1.
         11   -1    0    0    0    0 -0.00000000000E+00 -0.00000000000E+00 -0.45593999997E+02  0.45594000000E+02  0.51100000000E-03 0. -1.
    9900012    2    1    2    0    0 -0.58831674596E+01 -0.17969052333E+02  0.39065645813E+02  0.47787272081E+02  0.20000004724E+02 0.  0.
         12    1    1    2    0    0  0.58831674596E+01  0.17969052333E+02 -0.39065645813E+02  0.43400727919E+02  0.00000000000E+00 0. -1.
         11    1    3    3    0    0 -0.41034446706E+01  0.30857968478E+01  0.10677231271E+02  0.11847517387E+02  0.51100000000E-03 0. -1.
        -11    1    3    3    0    0 -0.36450974634E+01 -0.17901264267E+02  0.22226573397E+02  0.28770863093E+02  0.51100000000E-03 0.  1.
        -12    1    3    3    0    0  0.18653746744E+01 -0.31535849142E+01  0.61618411450E+01  0.71688916007E+01  0.00000000000E+00 0.  1.
</event>
<event>
 7    1  0.2812635E-010  0.4778727E+02  0.7816164E-02  0.1312668E+00
        -11   -1    0    0    0    0  0.00000000000E+00  0.00000000000E+00  0.45593999997E+02  0.45594000000E+02  0.51100000000E-03 0.  1.
         11   -1    0    0    0    0 -0.00000000000E+00 -0.00000000000E+00 -0.45593999997E+02  0.45594000000E+02  0.51100000000E-03 0. -1.
    9900012    2    1    2    0    0  0.12557998938E+02 -0.36402220483E+02  0.20019941762E+02  0.47787273490E+02  0.20000011151E+02 0.  0.
         12    1    1    2    0    0 -0.12557998938E+02  0.36402220483E+02 -0.20019941762E+02  0.43400726510E+02  0.00000000000E+00 0. -1.
         11    1    3    3    0    0 -0.20316052873E+01 -0.41462383965E+01  0.46533361018E+01  0.65553222668E+01  0.51100000000E-03 0. -1.
        -11    1    3    3    0    0  0.74432513654E+01 -0.13458368233E+02  0.14446817040E+02  0.21100715373E+02  0.51100000000E-03 0.  1.
        -12    1    3    3    0    0  0.71463528599E+01 -0.18797613853E+02  0.91978862033E+00  0.20131235851E+02  0.00000000000E+00 0.  1.
</event>
<event>
 7    1  0.2812635E-010  0.4778727E+02  0.7816164E-02  0.1312668E+00
        -11   -1    0    0    0    0  0.00000000000E+00  0.00000000000E+00  0.45593999997E+02  0.45594000000E+02  0.51100000000E-03 0. -1.
         11   -1    0    0    0    0 -0.00000000000E+00 -0.00000000000E+00 -0.45593999997E+02  0.45594000000E+02  0.51100000000E-03 0.  1.
    9900012    2    1    2    0    0 -0.36230301271E+02  0.18698460045E+02  0.14878041072E+02  0.47787271384E+02  0.20000001548E+02 0.  0.
         12    1    1    2    0    0  0.36230301271E+02 -0.18698460045E+02 -0.14878041072E+02  0.43400728616E+02  0.00000000000E+00 0. -1.
         11    1    3    3    0    0 -0.21422213421E+02  0.13924151231E+02  0.14684710266E+02  0.29469203098E+02  0.51100000000E-03 0. -1.
        -11    1    3    3    0    0 -0.12890443193E+02  0.75458934793E+01  0.39305108832E+00  0.14941838024E+02  0.51100000000E-03 0.  1.
         12    1    3    3    0    0 -0.19176446571E+01 -0.27715846657E+01 -0.19972028212E+00  0.33762302618E+01  0.00000000000E+00 0. -1.
</event>
<event>
 7    1  0.2812635E-010  0.4778727E+02  0.7816164E-02  0.1312668E+00
        -11   -1    0    0    0    0  0.00000000000E+00  0.00000000000E+00  0.45593999997E+02  0.45594000000E+02  0.51100000000E-03 0.  1.
         11   -1    0    0    0    0 -0.00000000000E+00 -0.00000000000E+00 -0.45593999997E+02  0.45594000000E+02  0.51100000000E-03 0. -1.
    9900012    2    1    2    0    0 -0.10543042141E+02  0.36944496183E+02  0.20188399856E+02  0.47787273917E+02  0.20000013097E+02 0.  0.
         12    1    1    2    0    0  0.10543042141E+02 -0.36944496183E+02 -0.20188399856E+02  0.43400726083E+02  0.00000000000E+00 0. -1.
         11    1    3    3    0    0 -0.12715479829E+02  0.24989455483E+02  0.71642079919E+01  0.28939284529E+02  0.51100000000E-03 0. -1.
        -11    1    3    3    0    0 -0.10879473293E+01  0.41219837717E+01  0.14622385812E+01  0.45069414834E+01  0.51100000000E-03 0.  1.
         12    1    3    3    0    0  0.32603850172E+01  0.78330569283E+01  0.11561953283E+02  0.14341047905E+02  0.00000000000E+00 0. -1.
</event>
<event>
 7    1  0.2812635E-010  0.4778723E+02  0.7816164E-02  0.1312668E+00
        -11   -1    0    0    0    0  0.00000000000E+00  0.00000000000E+00  0.45593999997E+02  0.45594000000E+02  0.51100000000E-03 0.  1.
         11   -1    0    0    0    0 -0.00000000000E+00 -0.00000000000E+00 -0.45593999997E+02  0.45594000000E+02  0.51100000000E-03 0. -1.
    9900012    2    1    2    0    0  0.34743205206E+02  0.30643625671E+01  0.25829166335E+02  0.47787234345E+02  0.19999832671E+02 0.  0.
         12    1    1    2    0    0 -0.34743205206E+02 -0.30643625671E+01 -0.25829166335E+02  0.43400765655E+02  0.00000000000E+00 0. -1.
         11    1    3    3    0    0  0.13301425307E+02  0.39750729617E+01  0.10643576838E+02  0.17493280093E+02  0.51100000000E-03 0. -1.
        -11    1    3    3    0    0 -0.92370899418E+00  0.32977488431E+01  0.24912067463E+01  0.42349140549E+01  0.51100000000E-03 0.  1.
        -12    1    3    3    0    0  0.22365488893E+02 -0.42084592377E+01  0.12694382750E+02  0.26059040197E+02  0.00000000000E+00 0.  1.
</event>
<event>
 7    1  0.2812635E-010  0.4778727E+02  0.7816164E-02  0.1312668E+00
        -11   -1    0    0    0    0  0.00000000000E+00  0.00000000000E+00  0.45593999997E+02  0.45594000000E+02  0.51100000000E-03 0.  1.
         11   -1    0    0    0    0 -0.00000000000E+00 -0.00000000000E+00 -0.45593999997E+02  0.45594000000E+02  0.51100000000E-03 0. -1.
    9900012    2    1    2    0    0 -0.38926683635E+02 -0.77529591885E+01  0.17556430425E+02  0.47787270464E+02  0.19999997352E+02 0.  0.
         12    1    1    2    0    0  0.38926683635E+02  0.77529591885E+01 -0.17556430425E+02  0.43400729536E+02  0.00000000000E+00 0. -1.
         11    1    3    3    0    0 -0.18720494570E+02 -0.95189582335E+01  0.33708109785E+01  0.21270398438E+02  0.51100000000E-03 0. -1.
        -11    1    3    3    0    0 -0.14600465314E+02 -0.10553189549E+01  0.51548537386E+01  0.15519658592E+02  0.51100000000E-03 0.  1.
         12    1    3    3    0    0 -0.56057237513E+01  0.28213179999E+01  0.90307657080E+01  0.10997213434E+02  0.00000000000E+00 0. -1.
</event>
<event>
 7    1  0.2812635E-010  0.4778727E+02  0.7816164E-02  0.1312668E+00
        -11   -1    0    0    0    0  0.00000000000E+00  0.00000000000E+00  0.45593999997E+02  0.45594000000E+02  0.51100000000E-03 0. -1.
         11   -1    0    0    0    0 -0.00000000000E+00 -0.00000000000E+00 -0.45593999997E+02  0.45594000000E+02  0.51100000000E-03 0.  1.
    9900012    2    1    2    0    0 -0.18884849344E+02  0.13389469261E+02 -0.36711142687E+02  0.47787269370E+02  0.19999992365E+02 0.  0.
         12    1    1    2    0    0  0.18884849344E+02 -0.13389469261E+02  0.36711142687E+02  0.43400730630E+02  0.00000000000E+00 0. -1.
         11    1    3    3    0    0 -0.16844359701E+01  0.43549446466E+01 -0.75993495527E+01  0.89192477989E+01  0.51100000000E-03 0. -1.
        -11    1    3    3    0    0 -0.30115761717E+01  0.73542961481E+01 -0.20964919364E+02  0.22420595600E+02  0.51100000000E-03 0.  1.
        -12    1    3    3    0    0 -0.14188837202E+02  0.16802284661E+01 -0.81468737709E+01  0.16447425971E+02  0.00000000000E+00 0.  1.
</event>
<event>
 7    1  0.2812635E-010  0.4778727E+02  0.7816164E-02  0.1312668E+00
        -11   -1    0    0    0    0  0.00000000000E+00  0.00000000000E+00  0.45593999997E+02  0.45594000000E+02  0.51100000000E-03 0. -1.
         11   -1    0    0    0    0 -0.00000000000E+00 -0.00000000000E+00 -0.45593999997E+02  0.45594000000E+02  0.51100000000E-03 0.  1.
    9900012    2    1    2    0    0 -0.16065391282E+02 -0.26594108155E+02 -0.30303133237E+02  0.47787271094E+02  0.20000000225E+02 0.  0.
         12    1    1    2    0    0  0.16065391282E+02  0.26594108155E+02  0.30303133237E+02  0.43400728906E+02  0.00000000000E+00 0. -1.
         11    1    3    3    0    0  0.79294204408E+00 -0.12589148654E+02 -0.14069107864E+02  0.18895904775E+02  0.51100000000E-03 0.  1.
        -11    1    3    3    0    0 -0.13202676130E+02 -0.48913873793E+01 -0.95921268100E+01  0.17036584884E+02  0.51100000000E-03 0. -1.
         12    1    3    3    0    0 -0.36556571961E+01 -0.91135721216E+01 -0.66418985625E+01  0.11854781435E+02  0.00000000000E+00 0. -1.
</event>
<event>
 7    1  0.2812635E-010  0.4778727E+02  0.7816164E-02  0.1312668E+00
        -11   -1    0    0    0    0  0.00000000000E+00  0.00000000000E+00  0.45593999997E+02  0.45594000000E+02  0.51100000000E-03 0.  1.
         11   -1    0    0    0    0 -0.00000000000E+00 -0.00000000000E+00 -0.45593999997E+02  0.45594000000E+02  0.51100000000E-03 0. -1.
    9900012    2    1    2    0    0  0.13241418042E+02 -0.36443586992E+02  0.19497509267E+02  0.47787273598E+02  0.20000011644E+02 0.  0.
         12    1    1    2    0    0 -0.13241418042E+02  0.36443586992E+02 -0.19497509267E+02  0.43400726402E+02  0.00000000000E+00 0. -1.
         11    1    3    3    0    0  0.75708894963E+01 -0.11048412686E+02  0.82891485148E+00  0.13419124068E+02  0.51100000000E-03 0. -1.
        -11    1    3    3    0    0  0.64810455794E+01 -0.24052748498E+02  0.20278336416E+02  0.32120859113E+02  0.51100000000E-03 0.  1.
         12    1    3    3    0    0 -0.81051703412E+00 -0.13424258082E+01 -0.16097420006E+01  0.22472904177E+01  0.00000000000E+00 0. -1.
</event>
<event>
 7    1  0.2812635E-010  0.4778727E+02  0.7816164E-02  0.1312668E+00
        -11   -1    0    0    0    0  0.00000000000E+00  0.00000000000E+00  0.45593999997E+02  0.45594000000E+02  0.51100000000E-03 0.  1.
         11   -1    0    0    0    0 -0.00000000000E+00 -0.00000000000E+00 -0.45593999997E+02  0.45594000000E+02  0.51100000000E-03 0. -1.
    9900012    2    1    2    0    0 -0.22656698475E+02  0.27525090390E+02  0.24752104579E+02  0.47787271114E+02  0.20000000317E+02 0.  0.
         12    1    1    2    0    0  0.22656698475E+02 -0.27525090390E+02 -0.24752104579E+02  0.43400728886E+02  0.00000000000E+00 0. -1.
         11    1    3    3    0    0 -0.42165194873E+01  0.18663552730E+02  0.16374171724E+02  0.25183739536E+02  0.51100000000E-03 0. -1.
        -11    1    3    3    0    0 -0.16012015327E+02  0.92147130562E+01  0.79528721491E+01  0.20113272912E+02  0.51100000000E-03 0.  1.
         12    1    3    3    0    0 -0.24281636607E+01 -0.35317539604E+00  0.42506070516E+00  0.24902586666E+01  0.00000000000E+00 0. -1.
</event>
<event>
 7    1  0.2812635E-010  0.4778727E+02  0.7816164E-02  0.1312668E+00
        -11   -1    0    0    0    0  0.00000000000E+00  0.00000000000E+00  0.45593999997E+02  0.45594000000E+02  0.51100000000E-03 0. -1.
         11   -1    0    0    0    0 -0.00000000000E+00 -0.00000000000E+00 -0.45593999997E+02  0.45594000000E+02  0.51100000000E-03 0.  1.
    9900012    2    1    2    0    0 -0.10510181098E+02  0.38531003992E+02 -0.16985910913E+02  0.47787270226E+02  0.19999996270E+02 0.  0.
         12    1    1    2    0    0  0.10510181098E+02 -0.38531003992E+02  0.16985910913E+02  0.43400729774E+02  0.00000000000E+00 0. -1.
         11    1    3    3    0    0  0.42202857459E+01  0.14083120405E+02 -0.10335046344E+02  0.17971039906E+02  0.51100000000E-03 0. -1.
        -11    1    3    3    0    0 -0.10309338279E+02  0.19049477081E+02 -0.71779492373E+01  0.22818588658E+02  0.51100000000E-03 0.  1.
         12    1    3    3    0    0 -0.44211285642E+01  0.53984065054E+01  0.52708466808E+00  0.69976416617E+01  0.00000000000E+00 0. -1.
</event>
<event>
 7    1  0.2812635E-010  0.4778726E+02  0.7816164E-02  0.1312668E+00
        -11   -1    0    0    0    0  0.00000000000E+00  0.00000000000E+00  0.45593999997E+02  0.45594000000E+02  0.51100000000E-03 0.  1.
         11   -1    0    0    0    0 -0.00000000000E+00 -0.00000000000E+00 -0.45593999997E+02  0.45594000000E+02  0.51100000000E-03 0. -1.
    9900012    2    1    2    0    0  0.18149533085E+02 -0.27626664759E+02  0.28124473645E+02  0.47787260667E+02  0.19999952683E+02 0.  0.
         12    1    1    2    0    0 -0.18149533085E+02  0.27626664759E+02 -0.28124473645E+02  0.43400739333E+02  0.00000000000E+00 0. -1.
         11    1    3    3    0    0 -0.20566103967E+01 -0.74398393879E+01  0.64804521054E+01  0.10078547326E+02  0.51100000000E-03 0. -1.
        -11    1    3    3    0    0  0.19511304643E+02 -0.18159816487E+02  0.14695455096E+02  0.30437252577E+02  0.51100000000E-03 0.  1.
        -12    1    3    3    0    0  0.69483883877E+00 -0.20270088843E+01  0.69485664429E+01  0.72714607638E+01  0.00000000000E+00 0.  1.
</event>
<event>
 7    1  0.2812635E-010  0.4778727E+02  0.7816164E-02  0.1312668E+00
        -11   -1    0    0    0    0  0.00000000000E+00  0.00000000000E+00  0.45593999997E+02  0.45594000000E+02  0.51100000000E-03 0.  1.
         11   -1    0    0    0    0 -0.00000000000E+00 -0.00000000000E+00 -0.45593999997E+02  0.45594000000E+02  0.51100000000E-03 0. -1.
    9900012    2    1    2    0    0  0.41020373683E+02 -0.58791144338E+01 -0.12899150808E+02  0.47787272642E+02  0.20000007285E+02 0.  0.
         12    1    1    2    0    0 -0.41020373683E+02  0.58791144338E+01  0.12899150808E+02  0.43400727358E+02  0.00000000000E+00 0. -1.
         11    1    3    3    0    0  0.36772687940E+01  0.39962921336E+01 -0.36499170010E+01  0.65432828898E+01  0.51100000000E-03 0. -1.
        -11    1    3    3    0    0  0.25069317024E+02 -0.89618858590E+01 -0.11012126778E+02  0.28810640233E+02  0.51100000000E-03 0.  1.
         12    1    3    3    0    0  0.12273787865E+02 -0.91352070835E+00  0.17628929710E+01  0.12433349520E+02  0.00000000000E+00 0. -1.
</event>
<event>
 7    1  0.2812635E-010  0.4778726E+02  0.7816164E-02  0.1312668E+00
        -11   -1    0    0    0    0  0.00000000000E+00  0.00000000000E+00  0.45593999997E+02  0.45594000000E+02  0.51100000000E-03 0. -1.
         11   -1    0    0    0    0 -0.00000000000E+00 -0.00000000000E+00 -0.45593999997E+02  0.45594000000E+02  0.51100000000E-03 0.  1.
    9900012    2    1    2    0    0  0.94778496552E+01 -0.41661286311E+02 -0.76244032852E+01  0.47787263409E+02  0.19999965187E+02 0.  0.
         12    1    1    2    0    0 -0.94778496552E+01  0.41661286311E+02  0.76244032852E+01  0.43400736591E+02  0.00000000000E+00 0. -1.
         11    1    3    3    0    0  0.23223800025E+01  0.15881493665E+01 -0.22427785225E+01  0.35980165436E+01  0.51100000000E-03 0. -1.
        -11    1    3    3    0    0  0.59869451849E+01 -0.36589490566E+02 -0.50619189633E+01  0.37420012779E+02  0.51100000000E-03 0.  1.
         12    1    3    3    0    0  0.11685244678E+01 -0.66599451113E+01 -0.31970579947E+00  0.67692340864E+01  0.00000000000E+00 0. -1.
</event>
<event>
 7    1  0.2812635E-010  0.4778728E+02  0.7816164E-02  0.1312668E+00
        -11   -1    0    0    0    0  0.00000000000E+00  0.00000000000E+00  0.45593999997E+02  0.45594000000E+02  0.51100000000E-03 0. -1.
         11   -1    0    0    0    0 -0.00000000000E+00 -0.00000000000E+00 -0.45593999997E+02  0.45594000000E+02  0.51100000000E-03 0.  1.
    9900012    2    1    2    0    0 -0.83760593532E+01  0.44922094010E+01 -0.42347188311E+02  0.47787277961E+02  0.20000031538E+02 0.  0.
         12    1    1    2    0    0  0.83760593532E+01 -0.44922094010E+01  0.42347188311E+02  0.43400722039E+02  0.00000000000E+00 0. -1.
         11    1    3    3    0    0  0.29476858424E+01 -0.34766925336E+00 -0.87107597677E+00  0.30932991051E+01  0.51100000000E-03 0. -1.
        -11    1    3    3    0    0 -0.12899778308E+02  0.63607777619E+01 -0.37330266585E+02  0.40005156889E+02  0.51100000000E-03 0.  1.
        -12    1    3    3    0    0  0.15760331120E+01 -0.15208991075E+01 -0.41458457492E+01  0.46888219673E+01  0.00000000000E+00 0.  1.
</event>
<event>
 7    1  0.2812635E-010  0.4778727E+02  0.7816164E-02  0.1312668E+00
        -11   -1    0    0    0    0  0.00000000000E+00  0.00000000000E+00  0.45593999997E+02  0.45594000000E+02  0.51100000000E-03 0. -1.
         11   -1    0    0    0    0 -0.00000000000E+00 -0.00000000000E+00 -0.45593999997E+02  0.45594000000E+02  0.51100000000E-03 0.  1.
    9900012    2    1    2    0    0  0.48258941905E-01 -0.14971465162E+02 -0.40736668550E+02  0.47787271174E+02  0.20000000593E+02 0.  0.
         12    1    1    2    0    0 -0.48258941905E-01  0.14971465162E+02  0.40736668550E+02  0.43400728826E+02  0.00000000000E+00 0. -1.
         11    1    3    3    0    0 -0.89144882385E+01 -0.95883168831E+01 -0.28965782042E+02  0.31787111394E+02  0.51100000000E-03 0. -1.
        -11    1    3    3    0    0  0.75986748969E+01 -0.43421197413E+01 -0.11151907128E+02  0.14175997210E+02  0.51100000000E-03 0.  1.
         12    1    3    3    0    0  0.13640722835E+01 -0.10410285376E+01 -0.61897937968E+00  0.18241625704E+01  0.00000000000E+00 0. -1.
</event>
<event>
 7    1  0.2812635E-010  0.4778727E+02  0.7816164E-02  0.1312668E+00
        -11   -1    0    0    0    0  0.00000000000E+00  0.00000000000E+00  0.45593999997E+02  0.45594000000E+02  0.51100000000E-03 0.  1.
         11   -1    0    0    0    0 -0.00000000000E+00 -0.00000000000E+00 -0.45593999997E+02  0.45594000000E+02  0.51100000000E-03 0. -1.
    9900012    2    1    2    0    0  0.18005477908E+02  0.18600612989E+02  0.34834514011E+02  0.47787269538E+02  0.19999993130E+02 0.  0.
         12    1    1    2    0    0 -0.18005477908E+02 -0.18600612989E+02 -0.34834514011E+02  0.43400730462E+02  0.00000000000E+00 0. -1.
         11    1    3    3    0    0  0.51130554762E+01 -0.12227079742E+01  0.10644382131E+01  0.53638959780E+01  0.51100000000E-03 0. -1.
        -11    1    3    3    0    0  0.73205784898E+01  0.17269800122E+02  0.29481981399E+02  0.34943155169E+02  0.51100000000E-03 0.  1.
        -12    1    3    3    0    0  0.55718439419E+01  0.25535208414E+01  0.42880943991E+01  0.74802183909E+01  0.00000000000E+00 0.  1.
</event>
<event>
 7    1  0.2812635E-010  0.4778727E+02  0.7816164E-02  0.1312668E+00
        -11   -1    0    0    0    0  0.00000000000E+00  0.00000000000E+00  0.45593999997E+02  0.45594000000E+02  0.51100000000E-03 0.  1.
         11   -1    0    0    0    0 -0.00000000000E+00 -0.00000000000E+00 -0.45593999997E+02  0.45594000000E+02  0.51100000000E-03 0. -1.
    9900012    2    1    2    0    0 -0.15039426979E+02  0.90009085786E+01  0.39704190256E+02  0.47787269096E+02  0.19999991116E+02 0.  0.
         12    1    1    2    0    0  0.15039426979E+02 -0.90009085786E+01 -0.39704190256E+02  0.43400730904E+02  0.00000000000E+00 0. -1.
         11    1    3    3    0    0 -0.26654373474E+01  0.45761866073E+01  0.39032336497E+00  0.53102158815E+01  0.51100000000E-03 0. -1.
        -11    1    3    3    0    0 -0.34332525680E+00 -0.10537223571E+00  0.14734906118E+02  0.14739282008E+02  0.51100000000E-03 0.  1.
         12    1    3    3    0    0 -0.12030664375E+02  0.45300942070E+01  0.24578960773E+02  0.27737771207E+02  0.00000000000E+00 0. -1.
</event>
<event>
 7    1  0.2812635E-010  0.4778727E+02  0.7816164E-02  0.1312668E+00
        -11   -1    0    0    0    0  0.00000000000E+00  0.00000000000E+00  0.45593999997E+02  0.45594000000E+02  0.51100000000E-03 0.  1.
         11   -1    0    0    0    0 -0.00000000000E+00 -0.00000000000E+00 -0.45593999997E+02  0.45594000000E+02  0.51100000000E-03 0. -1.
    9900012    2    1    2    0    0 -0.33807978956E+02 -0.17463640795E+02  0.20872591884E+02  0.47787270941E+02  0.19999999528E+02 0.  0.
         12    1    1    2    0    0  0.33807978956E+02  0.17463640795E+02 -0.20872591884E+02  0.43400729059E+02  0.00000000000E+00 0. -1.
         11    1    3    3    0    0 -0.18569226934E+02 -0.35071861987E+01  0.92921829053E+00  0.18920359163E+02  0.51100000000E-03 0. -1.
        -11    1    3    3    0    0 -0.94200531364E+01 -0.67392336288E+01  0.11652334791E+02  0.16429594558E+02  0.51100000000E-03 0.  1.
         12    1    3    3    0    0 -0.58186988859E+01 -0.72172209672E+01  0.82910388026E+01  0.12437317220E+02  0.00000000000E+00 0. -1.
</event>
<event>
 7    1  0.2812635E-010  0.4778727E+02  0.7816164E-02  0.1312668E+00
        -11   -1    0    0    0    0  0.00000000000E+00  0.00000000000E+00  0.45593999997E+02  0.45594000000E+02  0.51100000000E-03 0. -1.
         11   -1    0    0    0    0 -0.00000000000E+00 -0.00000000000E+00 -0.45593999997E+02  0.45594000000E+02  0.51100000000E-03 0.  1.
    9900012    2    1    2    0    0  0.32932794048E+02 -0.24687115397E+02 -0.13769544697E+02  0.47787274758E+02  0.20000016930E+02 0.  0.
         12    1    1    2    0    0 -0.32932794048E+02  0.24687115397E+02  0.13769544697E+02  0.43400725242E+02  0.00000000000E+00 0. -1.
         11    1    3    3    0    0  0.22789463876E+02 -0.16354791274E+02 -0.24529154392E+01  0.28157692657E+02  0.51100000000E-03 0. -1.
        -11    1    3    3    0    0  0.67516458761E+01  0.29452826248E+00 -0.44066707582E+01  0.80678507898E+01  0.51100000000E-03 0.  1.
         12    1    3    3    0    0  0.33916842958E+01 -0.86268523848E+01 -0.69099584994E+01  0.11561731310E+02  0.00000000000E+00 0. -1.
</event>
<event>
 7    1  0.2812635E-010  0.4778727E+02  0.7816164E-02  0.1312668E+00
        -11   -1    0    0    0    0  0.00000000000E+00  0.00000000000E+00  0.45593999997E+02  0.45594000000E+02  0.51100000000E-03 0.  1.
         11   -1    0    0    0    0 -0.00000000000E+00 -0.00000000000E+00 -0.45593999997E+02  0.45594000000E+02  0.51100000000E-03 0. -1.
    9900012    2    1    2    0    0  0.16049158343E+02  0.55878457811E+01  0.39935243909E+02  0.47787271780E+02  0.20000003352E+02 0.  0.
         12    1    1    2    0    0 -0.16049158343E+02 -0.55878457811E+01 -0.39935243909E+02  0.43400728220E+02  0.00000000000E+00 0. -1.
         11    1    3    3    0    0  0.44579333053E+01  0.10357109732E+02  0.14010336168E+02  0.17984226733E+02  0.51100000000E-03 0. -1.
        -11    1    3    3    0    0  0.57988760372E+01 -0.64457950684E+01  0.15160101198E+02  0.17464361023E+02  0.51100000000E-03 0.  1.
         12    1    3    3    0    0  0.57923490006E+01  0.16765311170E+01  0.10764806543E+02  0.12338684024E+02  0.00000000000E+00 0. -1.
</event>
<event>
 7    1  0.2812635E-010  0.4778726E+02  0.7816164E-02  0.1312668E+00
        -11   -1    0    0    0    0  0.00000000000E+00  0.00000000000E+00  0.45593999997E+02  0.45594000000E+02  0.51100000000E-03 0.  1.
         11   -1    0    0    0    0 -0.00000000000E+00 -0.00000000000E+00 -0.45593999997E+02  0.45594000000E+02  0.51100000000E-03 0. -1.
    9900012    2    1    2    0    0  0.42693652754E+02  0.75051320556E+01 -0.21328476287E+01  0.47787262315E+02  0.19999960197E+02 0.  0.
         12    1    1    2    0    0 -0.42693652754E+02 -0.75051320556E+01  0.21328476287E+01  0.43400737685E+02  0.00000000000E+00 0. -1.
         11    1    3    3    0    0  0.34189433489E+02  0.44173715054E+01  0.42869425685E+01  0.34739148093E+02  0.51100000000E-03 0.  1.
        -11    1    3    3    0    0  0.68752659227E+01  0.41241369040E+00 -0.70467540401E+01  0.98537358054E+01  0.51100000000E-03 0. -1.
        -12    1    3    3    0    0  0.16289533415E+01  0.26753468598E+01  0.62696384283E+00  0.31943784167E+01  0.00000000000E+00 0.  1.
</event>
<event>
 7    1  0.2812635E-010  0.4778727E+02  0.7816164E-02  0.1312668E+00
        -11   -1    0    0    0    0  0.00000000000E+00  0.00000000000E+00  0.45593999997E+02  0.45594000000E+02  0.51100000000E-03 0.  1.
         11   -1    0    0    0    0 -0.00000000000E+00 -0.00000000000E+00 -0.45593999997E+02  0.45594000000E+02  0.51100000000E-03 0. -1.
    9900012    2    1    2    0    0  0.24979710855E+02  0.28846925582E+02  0.20675884154E+02  0.47787271256E+02  0.20000000963E+02 0.  0.
         12    1    1    2    0    0 -0.24979710855E+02 -0.28846925582E+02 -0.20675884154E+02  0.43400728744E+02  0.00000000000E+00 0. -1.
         11    1    3    3    0    0  0.10742488796E+02  0.25311652433E+02  0.89244521097E+01  0.28908937374E+02  0.51100000000E-03 0. -1.
        -11    1    3    3    0    0  0.10523970616E+02  0.29870387565E+01  0.95836011482E+01  0.14543787997E+02  0.51100000000E-03 0.  1.
         12    1    3    3    0    0  0.37132514430E+01  0.54823439316E+00  0.21678308965E+01  0.43345458845E+01  0.00000000000E+00 0. -1.
</event>
<event>
 7    1  0.2812635E-010  0.4778727E+02  0.7816164E-02  0.1312668E+00
        -11   -1    0    0    0    0  0.00000000000E+00  0.00000000000E+00  0.45593999997E+02  0.45594000000E+02  0.51100000000E-03 0. -1.
         11   -1    0    0    0    0 -0.00000000000E+00 -0.00000000000E+00 -0.45593999997E+02  0.45594000000E+02  0.51100000000E-03 0.  1.
    9900012    2    1    2    0    0 -0.39771255862E+02  0.14113341942E+02  0.10133302967E+02  0.47787273708E+02  0.20000012146E+02 0.  0.
         12    1    1    2    0    0  0.39771255862E+02 -0.14113341942E+02 -0.10133302967E+02  0.43400726292E+02  0.00000000000E+00 0. -1.
         11    1    3    3    0    0 -0.79957203122E+01  0.90852057764E+01 -0.24160016628E+01  0.12341376406E+02  0.51100000000E-03 0. -1.
        -11    1    3    3    0    0 -0.25537394783E+02  0.62717190701E+01  0.75591066678E+01  0.27361160178E+02  0.51100000000E-03 0.  1.
         12    1    3    3    0    0 -0.62381407666E+01 -0.12435829047E+01  0.49901979619E+01  0.80847371239E+01  0.00000000000E+00 0. -1.
</event>
<event>
 7    1  0.2812635E-010  0.4778728E+02  0.7816164E-02  0.1312668E+00
        -11   -1    0    0    0    0  0.00000000000E+00  0.00000000000E+00  0.45593999997E+02  0.45594000000E+02  0.51100000000E-03 0.  1.
         11   -1    0    0    0    0 -0.00000000000E+00 -0.00000000000E+00 -0.45593999997E+02  0.45594000000E+02  0.51100000000E-03 0. -1.
    9900012    2    1    2    0    0  0.42955829198E+02 -0.55309879483E+01 -0.27978160570E+01  0.47787275762E+02  0.20000021507E+02 0.  0.
         12    1    1    2    0    0 -0.42955829198E+02  0.55309879483E+01  0.27978160570E+01  0.43400724238E+02  0.00000000000E+00 0. -1.
         11    1    3    3    0    0  0.20272244775E+00  0.66308408156E+00 -0.31616134678E+00  0.76205980629E+00  0.51100000000E-03 0. -1.
        -11    1    3    3    0    0  0.94351936846E+01 -0.85796061004E+01 -0.45947765087E+01  0.13555238549E+02  0.51100000000E-03 0.  1.
        -12    1    3    3    0    0  0.33317913065E+02  0.23855340706E+01  0.21131217985E+01  0.33469977406E+02  0.00000000000E+00 0.  1.
</event>
<event>
 7    1  0.2812635E-010  0.4778726E+02  0.7816164E-02  0.1312668E+00
        -11   -1    0    0    0    0  0.00000000000E+00  0.00000000000E+00  0.45593999997E+02  0.45594000000E+02  0.51100000000E-03 0.  1.
         11   -1    0    0    0    0 -0.00000000000E+00 -0.00000000000E+00 -0.45593999997E+02  0.45594000000E+02  0.51100000000E-03 0. -1.
    9900012    2    1    2    0    0  0.21033181171E+02 -0.23236098277E+02  0.30021874761E+02  0.47787263399E+02  0.19999965143E+02 0.  0.
         12    1    1    2    0    0 -0.21033181171E+02  0.23236098277E+02 -0.30021874761E+02  0.43400736601E+02  0.00000000000E+00 0. -1.
         11    1    3    3    0    0 -0.33640595854E+01 -0.30129248070E+01  0.78228559213E+01  0.90328117336E+01  0.51100000000E-03 0. -1.
        -11    1    3    3    0    0  0.10620528820E+02 -0.81782571858E+01  0.81931502505E+01  0.15710099755E+02  0.51100000000E-03 0.  1.
         12    1    3    3    0    0  0.13776711937E+02 -0.12044916285E+02  0.14005868589E+02  0.23044351911E+02  0.00000000000E+00 0. -1.
</event>
<event>
 7    1  0.2812635E-010  0.4778727E+02  0.7816164E-02  0.1312668E+00
        -11   -1    0    0    0    0  0.00000000000E+00  0.00000000000E+00  0.45593999997E+02  0.45594000000E+02  0.51100000000E-03 0.  1.
         11   -1    0    0    0    0 -0.00000000000E+00 -0.00000000000E+00 -0.45593999997E+02  0.45594000000E+02  0.51100000000E-03 0. -1.
    9900012    2    1    2    0    0  0.35131610289E+02  0.87189895964E+01  0.23945192597E+02  0.47787273398E+02  0.20000010730E+02 0.  0.
         12    1    1    2    0    0 -0.35131610289E+02 -0.87189895964E+01 -0.23945192597E+02  0.43400726602E+02  0.00000000000E+00 0. -1.
         11    1    3    3    0    0  0.47235841351E+01  0.60082082180E+01  0.10950627916E+02  0.13353915721E+02  0.51100000000E-03 0. -1.
        -11    1    3    3    0    0  0.19402711341E+02  0.21862700848E+01  0.33913528925E+01  0.19817826797E+02  0.51100000000E-03 0.  1.
         12    1    3    3    0    0  0.11005314813E+02  0.52451129359E+00  0.96032117887E+01  0.14615530879E+02  0.00000000000E+00 0. -1.
</event>
<event>
 7    1  0.2812635E-010  0.4778727E+02  0.7816164E-02  0.1312668E+00
        -11   -1    0    0    0    0  0.00000000000E+00  0.00000000000E+00  0.45593999997E+02  0.45594000000E+02  0.51100000000E-03 0.  1.
         11   -1    0    0    0    0 -0.00000000000E+00 -0.00000000000E+00 -0.45593999997E+02  0.45594000000E+02  0.51100000000E-03 0. -1.
    9900012    2    1    2    0    0 -0.20137257580E+02 -0.80720684914E+01  0.37589302959E+02  0.47787272708E+02  0.20000007583E+02 0.  0.
         12    1    1    2    0    0  0.20137257580E+02  0.80720684914E+01 -0.37589302959E+02  0.43400727292E+02  0.00000000000E+00 0. -1.
         11    1    3    3    0    0 -0.15275003010E+02  0.72608676317E+00  0.18457640312E+02  0.23969509905E+02  0.51100000000E-03 0. -1.
        -11    1    3    3    0    0 -0.48776279824E+01  0.25723889422E+00  0.46876750202E+01  0.67699131412E+01  0.51100000000E-03 0.  1.
         12    1    3    3    0    0  0.15373411783E-01 -0.90553941488E+01  0.14443987626E+02  0.17047849661E+02  0.00000000000E+00 0. -1.
</event>
<event>
 7    1  0.2812635E-010  0.4778727E+02  0.7816164E-02  0.1312668E+00
        -11   -1    0    0    0    0  0.00000000000E+00  0.00000000000E+00  0.45593999997E+02  0.45594000000E+02  0.51100000000E-03 0.  1.
         11   -1    0    0    0    0 -0.00000000000E+00 -0.00000000000E+00 -0.45593999997E+02  0.45594000000E+02  0.51100000000E-03 0. -1.
    9900012    2    1    2    0    0  0.11771903919E+02  0.41769241467E+02  0.61305437523E+00  0.47787273160E+02  0.20000009645E+02 0.  0.
         12    1    1    2    0    0 -0.11771903919E+02 -0.41769241467E+02 -0.61305437523E+00  0.43400726840E+02  0.00000000000E+00 0. -1.
         11    1    3    3    0    0  0.93408688423E+00 -0.16698207699E+01 -0.12735985000E+01  0.22984501542E+01  0.51100000000E-03 0. -1.
        -11    1    3    3    0    0  0.98307769929E+01  0.23473662875E+02  0.15253408247E+01  0.25494777700E+02  0.51100000000E-03 0.  1.
         12    1    3    3    0    0  0.10070400416E+01  0.19965399361E+02  0.36131205055E+00  0.19994045306E+02  0.00000000000E+00 0. -1.
</event>
<event>
 7    1  0.2812635E-010  0.4778727E+02  0.7816164E-02  0.1312668E+00
        -11   -1    0    0    0    0  0.00000000000E+00  0.00000000000E+00  0.45593999997E+02  0.45594000000E+02  0.51100000000E-03 0. -1.
         11   -1    0    0    0    0 -0.00000000000E+00 -0.00000000000E+00 -0.45593999997E+02  0.45594000000E+02  0.51100000000E-03 0.  1.
    9900012    2    1    2    0    0 -0.41990858361E+02 -0.10518028853E+02 -0.31244312103E+01  0.47787272042E+02  0.20000004550E+02 0.  0.
         12    1    1    2    0    0  0.41990858361E+02  0.10518028853E+02  0.31244312103E+01  0.43400727958E+02  0.00000000000E+00 0. -1.
         11    1    3    3    0    0 -0.83299715126E+01 -0.38387225124E+01  0.25078683129E+01  0.95086076617E+01  0.51100000000E-03 0. -1.
        -11    1    3    3    0    0  0.12262765310E+01 -0.21703794807E+01  0.57390668736E+00  0.25580598836E+01  0.51100000000E-03 0.  1.
        -12    1    3    3    0    0 -0.34887163380E+02 -0.45089268602E+01 -0.62062062105E+01  0.35720604497E+02  0.00000000000E+00 0.  1.
</event>
<event>
 7    1  0.2812635E-010  0.4778727E+02  0.7816164E-02  0.1312668E+00
        -11   -1    0    0    0    0  0.00000000000E+00  0.00000000000E+00  0.45593999997E+02  0.45594000000E+02  0.51100000000E-03 0.  1.
         11   -1    0    0    0    0 -0.00000000000E+00 -0.00000000000E+00 -0.45593999997E+02  0.45594000000E+02  0.51100000000E-03 0. -1.
    9900012    2    1    2    0    0 -0.10910950356E+02  0.18868308934E+02  0.37530804829E+02  0.47787271540E+02  0.20000002261E+02 0.  0.
         12    1    1    2    0    0  0.10910950356E+02 -0.18868308934E+02 -0.37530804829E+02  0.43400728460E+02  0.00000000000E+00 0. -1.
         11    1    3    3    0    0  0.37092794766E+00  0.10169676112E+02  0.27955720934E+02  0.29750331645E+02  0.51100000000E-03 0. -1.
        -11    1    3    3    0    0 -0.25939183960E+01  0.98104975011E+00  0.46530265620E+01  0.54167820434E+01  0.51100000000E-03 0.  1.
         12    1    3    3    0    0 -0.86879599073E+01  0.77175830715E+01  0.49220573329E+01  0.12620157852E+02  0.00000000000E+00 0. -1.
</event>
<event>
 7    1  0.2812635E-010  0.4778727E+02  0.7816164E-02  0.1312668E+00
        -11   -1    0    0    0    0  0.00000000000E+00  0.00000000000E+00  0.45593999997E+02  0.45594000000E+02  0.51100000000E-03 0.  1.
         11   -1    0    0    0    0 -0.00000000000E+00 -0.00000000000E+00 -0.45593999997E+02  0.45594000000E+02  0.51100000000E-03 0. -1.
    9900012    2    1    2    0    0  0.23286007124E+02 -0.25701410155E+02  0.26092575748E+02  0.47787272807E+02  0.20000008036E+02 0.  0.
         12    1    1    2    0    0 -0.23286007124E+02  0.25701410155E+02 -0.26092575748E+02  0.43400727193E+02  0.00000000000E+00 0. -1.
         11    1    3    3    0    0 -0.36012221271E+01 -0.32666671923E+01  0.27039479195E+01  0.55633847581E+01  0.51100000000E-03 0. -1.
        -11    1    3    3    0    0  0.13476137963E+02 -0.13251825556E+02  0.12681105583E+02  0.22760219990E+02  0.51100000000E-03 0.  1.
         12    1    3    3    0    0  0.13411091288E+02 -0.91829174071E+01  0.10707522246E+02  0.19463668058E+02  0.00000000000E+00 0. -1.
</event>
<event>
 7    1  0.2812635E-010  0.4778728E+02  0.7816164E-02  0.1312668E+00
        -11   -1    0    0    0    0  0.00000000000E+00  0.00000000000E+00  0.45593999997E+02  0.45594000000E+02  0.51100000000E-03 0.  1.
         11   -1    0    0    0    0 -0.00000000000E+00 -0.00000000000E+00 -0.45593999997E+02  0.45594000000E+02  0.51100000000E-03 0. -1.
    9900012    2    1    2    0    0 -0.21799896454E+02  0.35968918724E+01  0.37355718145E+02  0.47787276565E+02  0.20000025172E+02 0.  0.
         12    1    1    2    0    0  0.21799896454E+02 -0.35968918724E+01 -0.37355718145E+02  0.43400723435E+02  0.00000000000E+00 0. -1.
         11    1    3    3    0    0 -0.38720008239E+01  0.37892337484E+01 -0.50265343364E+00  0.54408954700E+01  0.51100000000E-03 0. -1.
        -11    1    3    3    0    0 -0.16412371152E+02 -0.20854170301E+01  0.32750466862E+02  0.36692069592E+02  0.51100000000E-03 0.  1.
         12    1    3    3    0    0 -0.15155244781E+01  0.18930751542E+01  0.51079047164E+01  0.56543115032E+01  0.00000000000E+00 0. -1.
</event>
<event>
 7    1  0.2812635E-010  0.4778727E+02  0.7816164E-02  0.1312668E+00
        -11   -1    0    0    0    0  0.00000000000E+00  0.00000000000E+00  0.45593999997E+02  0.45594000000E+02  0.51100000000E-03 0. -1.
         11   -1    0    0    0    0 -0.00000000000E+00 -0.00000000000E+00 -0.45593999997E+02  0.45594000000E+02  0.51100000000E-03 0.  1.
    9900012    2    1    2    0    0  0.14611585983E+02  0.34368782987E+02 -0.22111351863E+02  0.47787267631E+02  0.19999984437E+02 0.  0.
         12    1    1    2    0    0 -0.14611585983E+02 -0.34368782987E+02  0.22111351863E+02  0.43400732369E+02  0.00000000000E+00 0. -1.
         11    1    3    3    0    0  0.58710377321E+01  0.26433595784E+01 -0.39045239563E+00  0.64504951164E+01  0.51100000000E-03 0. -1.
        -11    1    3    3    0    0 -0.20036636501E+01  0.14167175385E+02 -0.63894294259E+01  0.15669981974E+02  0.51100000000E-03 0.  1.
        -12    1    3    3    0    0  0.10744211901E+02  0.17558248023E+02 -0.15331470042E+02  0.25666790541E+02  0.00000000000E+00 0.  1.
</event>
<event>
 7    1  0.2812635E-010  0.4778727E+02  0.7816164E-02  0.1312668E+00
        -11   -1    0    0    0    0  0.00000000000E+00  0.00000000000E+00  0.45593999997E+02  0.45594000000E+02  0.51100000000E-03 0.  1.
         11   -1    0    0    0    0 -0.00000000000E+00 -0.00000000000E+00 -0.45593999997E+02  0.45594000000E+02  0.51100000000E-03 0. -1.
    9900012    2    1    2    0    0  0.79164794058E+01  0.25747554949E+02  0.34029636660E+02  0.47787269554E+02  0.19999993204E+02 0.  0.
         12    1    1    2    0    0 -0.79164794058E+01 -0.25747554949E+02 -0.34029636660E+02  0.43400730446E+02  0.00000000000E+00 0. -1.
         11    1    3    3    0    0 -0.79801032446E+00 -0.25790042338E+01  0.37606840021E+01  0.46293442020E+01  0.51100000000E-03 0. -1.
        -11    1    3    3    0    0  0.85123878294E+01  0.27440088973E+02  0.25854045832E+02  0.38650367599E+02  0.51100000000E-03 0.  1.
        -12    1    3    3    0    0  0.20210190091E+00  0.88647021046E+00  0.44149068263E+01  0.45075577530E+01  0.00000000000E+00 0.  1.
</event>
<event>
 7    1  0.2812635E-010  0.4778727E+02  0.7816164E-02  0.1312668E+00
        -11   -1    0    0    0    0  0.00000000000E+00  0.00000000000E+00  0.45593999997E+02  0.45594000000E+02  0.51100000000E-03 0. -1.
         11   -1    0    0    0    0 -0.00000000000E+00 -0.00000000000E+00 -0.45593999997E+02  0.45594000000E+02  0.51100000000E-03 0.  1.
    9900012    2    1    2    0    0 -0.13663806968E+02 -0.38429070308E+02 -0.14836784718E+02  0.47787271361E+02  0.20000001445E+02 0.  0.
         12    1    1    2    0    0  0.13663806968E+02  0.38429070308E+02  0.14836784718E+02  0.43400728639E+02  0.00000000000E+00 0. -1.
         11    1    3    3    0    0 -0.66592259096E+01 -0.96299318795E+01 -0.52223048915E+01  0.12820036909E+02  0.51100000000E-03 0. -1.
        -11    1    3    3    0    0 -0.10207706632E+02 -0.13584126345E+02 -0.93968832116E+01  0.19417187685E+02  0.51100000000E-03 0.  1.
        -12    1    3    3    0    0  0.32031255744E+01 -0.15215012084E+02 -0.21759661452E+00  0.15550046766E+02  0.00000000000E+00 0.  1.
</event>
<event>
 7    1  0.2812635E-010  0.4778727E+02  0.7816164E-02  0.1312668E+00
        -11   -1    0    0    0    0  0.00000000000E+00  0.00000000000E+00  0.45593999997E+02  0.45594000000E+02  0.51100000000E-03 0.  1.
         11   -1    0    0    0    0 -0.00000000000E+00 -0.00000000000E+00 -0.45593999997E+02  0.45594000000E+02  0.51100000000E-03 0. -1.
    9900012    2    1    2    0    0  0.51955854001E+01  0.42200354208E+02  0.87039825471E+01  0.47787270569E+02  0.19999997832E+02 0.  0.
         12    1    1    2    0    0 -0.51955854001E+01 -0.42200354208E+02 -0.87039825471E+01  0.43400729431E+02  0.00000000000E+00 0. -1.
         11    1    3    3    0    0  0.20031077691E+01  0.11000803225E+01  0.29991930999E+00  0.23049011485E+01  0.51100000000E-03 0. -1.
        -11    1    3    3    0    0  0.31146678657E+01  0.53963240583E+01 -0.43166833997E+01  0.75799224989E+01  0.51100000000E-03 0.  1.
        -12    1    3    3    0    0  0.77809765271E-01  0.35703949828E+02  0.12720746637E+02  0.37902446922E+02  0.00000000000E+00 0.  1.
</event>
<event>
 7    1  0.2812635E-010  0.4778725E+02  0.7816164E-02  0.1312668E+00
        -11   -1    0    0    0    0  0.00000000000E+00  0.00000000000E+00  0.45593999997E+02  0.45594000000E+02  0.51100000000E-03 0.  1.
         11   -1    0    0    0    0 -0.00000000000E+00 -0.00000000000E+00 -0.45593999997E+02  0.45594000000E+02  0.51100000000E-03 0. -1.
    9900012    2    1    2    0    0 -0.39024930164E+02  0.12685090954E+02  0.14133935298E+02  0.47787253073E+02  0.19999918060E+02 0.  0.
         12    1    1    2    0    0  0.39024930164E+02 -0.12685090954E+02 -0.14133935298E+02  0.43400746927E+02  0.00000000000E+00 0. -1.
         11    1    3    3    0    0 -0.21552657375E+02  0.11141608421E+02  0.54754564002E+01  0.24872336062E+02  0.51100000000E-03 0. -1.
        -11    1    3    3    0    0 -0.16948493207E+02  0.49227430083E+01  0.62119287840E+01  0.18710234637E+02  0.51100000000E-03 0.  1.
         12    1    3    3    0    0 -0.52377958237E+00 -0.33792604744E+01  0.24465501143E+01  0.42046823741E+01  0.00000000000E+00 0. -1.
</event>
<event>
 7    1  0.2812635E-010  0.4778727E+02  0.7816164E-02  0.1312668E+00
        -11   -1    0    0    0    0  0.00000000000E+00  0.00000000000E+00  0.45593999997E+02  0.45594000000E+02  0.51100000000E-03 0.  1.
         11   -1    0    0    0    0 -0.00000000000E+00 -0.00000000000E+00 -0.45593999997E+02  0.45594000000E+02  0.51100000000E-03 0. -1.
    9900012    2    1    2    0    0 -0.15685899965E+02 -0.35911294005E+02  0.18653547495E+02  0.47787270410E+02  0.19999997107E+02 0.  0.
         12    1    1    2    0    0  0.15685899965E+02  0.35911294005E+02 -0.18653547495E+02  0.43400729590E+02  0.00000000000E+00 0. -1.
         11    1    3    3    0    0 -0.49668614793E+00 -0.47895737874E+01 -0.36434885123E+01  0.60383543283E+01  0.51100000000E-03 0. -1.
        -11    1    3    3    0    0 -0.14880648209E+02 -0.31403296257E+02  0.21541692619E+02  0.40885758255E+02  0.51100000000E-03 0.  1.
        -12    1    3    3    0    0 -0.30856560775E+00  0.28157603927E+00  0.75534338779E+00  0.86315782662E+00  0.00000000000E+00 0.  1.
</event>
<event>
 7    1  0.2812635E-010  0.4778726E+02  0.7816164E-02  0.1312668E+00
        -11   -1    0    0    0    0  0.00000000000E+00  0.00000000000E+00  0.45593999997E+02  0.45594000000E+02  0.51100000000E-03 0.  1.
         11   -1    0    0    0    0 -0.00000000000E+00 -0.00000000000E+00 -0.45593999997E+02  0.45594000000E+02  0.51100000000E-03 0. -1.
    9900012    2    1    2    0    0 -0.10430934387E+02  0.41276909347E+02  0.84283059822E+01  0.47787262920E+02  0.19999962955E+02 0.  0.
         12    1    1    2    0    0  0.10430934387E+02 -0.41276909347E+02 -0.84283059822E+01  0.43400737080E+02  0.00000000000E+00 0. -1.
         11    1    3    3    0    0 -0.91769571490E+01  0.95758176958E+01  0.23124713541E+01  0.13463296442E+02  0.51100000000E-03 0. -1.
        -11    1    3    3    0    0  0.49160237039E+01  0.18641951419E+02  0.44383155948E+01  0.19783535764E+02  0.51100000000E-03 0.  1.
        -12    1    3    3    0    0 -0.61700009416E+01  0.13059140232E+02  0.16775190333E+01  0.14540430713E+02  0.00000000000E+00 0.  1.
</event>
<event>
 7    1  0.2812635E-010  0.4778727E+02  0.7816164E-02  0.1312668E+00
        -11   -1    0    0    0    0  0.00000000000E+00  0.00000000000E+00  0.45593999997E+02  0.45594000000E+02  0.51100000000E-03 0.  1.
         11   -1    0    0    0    0 -0.00000000000E+00 -0.00000000000E+00 -0.45593999997E+02  0.45594000000E+02  0.51100000000E-03 0. -1.
    9900012    2    1    2    0    0  0.37752332758E+02  0.71074146041E+01  0.20195768143E+02  0.47787273947E+02  0.20000013235E+02 0.  0.
         12    1    1    2    0    0 -0.37752332758E+02 -0.71074146041E+01 -0.20195768143E+02  0.43400726053E+02  0.00000000000E+00 0. -1.
         11    1    3    3    0    0  0.56181712626E+01  0.49004156406E+01 -0.25603008460E+01  0.78824528207E+01  0.51100000000E-03 0. -1.
        -11    1    3    3    0    0  0.20194419879E+02  0.41936713444E+01  0.13254095466E+02  0.24516780385E+02  0.51100000000E-03 0.  1.
        -12    1    3    3    0    0  0.11939741616E+02 -0.19866723809E+01  0.95019735232E+01  0.15388040741E+02  0.00000000000E+00 0.  1.
</event>
<event>
 7    1  0.2812635E-010  0.4778727E+02  0.7816164E-02  0.1312668E+00
        -11   -1    0    0    0    0  0.00000000000E+00  0.00000000000E+00  0.45593999997E+02  0.45594000000E+02  0.51100000000E-03 0. -1.
         11   -1    0    0    0    0 -0.00000000000E+00 -0.00000000000E+00 -0.45593999997E+02  0.45594000000E+02  0.51100000000E-03 0.  1.
    9900012    2    1    2    0    0  0.17790212904E+02  0.39085229629E+02 -0.62830160874E+01  0.47787272570E+02  0.20000006955E+02 0.  0.
         12    1    1    2    0    0 -0.17790212904E+02 -0.39085229629E+02  0.62830160874E+01  0.43400727430E+02  0.00000000000E+00 0. -1.
         11    1    3    3    0    0  0.12258384972E+02  0.13101968377E+02 -0.47126540420E+01  0.18550975335E+02  0.51100000000E-03 0.  1.
        -11    1    3    3    0    0 -0.19236012203E+01  0.14712875694E+01  0.22820756468E+01  0.33275814468E+01  0.51100000000E-03 0. -1.
        -12    1    3    3    0    0  0.74554291528E+01  0.24511973682E+02 -0.38524376923E+01  0.25908715788E+02  0.00000000000E+00 0.  1.
</event>
<event>
 7    1  0.2812635E-010  0.4778727E+02  0.7816164E-02  0.1312668E+00
        -11   -1    0    0    0    0  0.00000000000E+00  0.00000000000E+00  0.45593999997E+02  0.45594000000E+02  0.51100000000E-03 0.  1.
         11   -1    0    0    0    0 -0.00000000000E+00 -0.00000000000E+00 -0.45593999997E+02  0.45594000000E+02  0.51100000000E-03 0. -1.
    9900012    2    1    2    0    0  0.37541614994E+00  0.18547530920E+02  0.39236104699E+02  0.47787265531E+02  0.19999974860E+02 0.  0.
         12    1    1    2    0    0 -0.37541614994E+00 -0.18547530920E+02 -0.39236104699E+02  0.43400734469E+02  0.00000000000E+00 0. -1.
         11    1    3    3    0    0  0.78954165945E+01  0.59073902069E+01  0.96579836596E+01  0.13802590731E+02  0.51100000000E-03 0. -1.
        -11    1    3    3    0    0  0.45529264833E-01  0.76626859615E+01  0.12794091508E+02  0.14913336543E+02  0.51100000000E-03 0.  1.
         12    1    3    3    0    0 -0.75655297094E+01  0.49774547513E+01  0.16784029532E+02  0.19071338257E+02  0.00000000000E+00 0. -1.
</event>
<event>
 7    1  0.2812635E-010  0.4778727E+02  0.7816164E-02  0.1312668E+00
        -11   -1    0    0    0    0  0.00000000000E+00  0.00000000000E+00  0.45593999997E+02  0.45594000000E+02  0.51100000000E-03 0.  1.
         11   -1    0    0    0    0 -0.00000000000E+00 -0.00000000000E+00 -0.45593999997E+02  0.45594000000E+02  0.51100000000E-03 0. -1.
    9900012    2    1    2    0    0  0.33844115575E+02  0.27050148467E+02  0.25472775124E+01  0.47787270583E+02  0.19999997898E+02 0.  0.
         12    1    1    2    0    0 -0.33844115575E+02 -0.27050148467E+02 -0.25472775124E+01  0.43400729417E+02  0.00000000000E+00 0. -1.
         11    1    3    3    0    0 -0.20147808413E+01 -0.56194875288E+00 -0.69854484594E+00  0.22052422547E+01  0.51100000000E-03 0. -1.
        -11    1    3    3    0    0  0.28032440501E+02  0.23216674901E+02  0.37545442247E+01  0.36591369427E+02  0.51100000000E-03 0.  1.
         12    1    3    3    0    0  0.78264559151E+01  0.43954223189E+01 -0.50872186633E+00  0.89906589018E+01  0.00000000000E+00 0. -1.
</event>
<event>
 7    1  0.2812635E-010  0.4778727E+02  0.7816164E-02  0.1312668E+00
        -11   -1    0    0    0    0  0.00000000000E+00  0.00000000000E+00  0.45593999997E+02  0.45594000000E+02  0.51100000000E-03 0.  1.
         11   -1    0    0    0    0 -0.00000000000E+00 -0.00000000000E+00 -0.45593999997E+02  0.45594000000E+02  0.51100000000E-03 0. -1.
    9900012    2    1    2    0    0  0.20574806340E+01  0.11285606175E+02  0.41857202629E+02  0.47787267919E+02  0.19999985748E+02 0.  0.
         12    1    1    2    0    0 -0.20574806340E+01 -0.11285606175E+02 -0.41857202629E+02  0.43400732081E+02  0.00000000000E+00 0. -1.
         11    1    3    3    0    0 -0.48249809704E+01 -0.11525263510E+01  0.51834385944E+01  0.71747330457E+01  0.51100000000E-03 0. -1.
        -11    1    3    3    0    0  0.32963490268E+01  0.13346902266E+02  0.28865502283E+02  0.31972221370E+02  0.51100000000E-03 0.  1.
        -12    1    3    3    0    0  0.35861125776E+01 -0.90876973949E+00  0.78082617514E+01  0.86403135034E+01  0.00000000000E+00 0.  1.
</event>
<event>
 7    1  0.2812635E-010  0.4778727E+02  0.7816164E-02  0.1312668E+00
        -11   -1    0    0    0    0  0.00000000000E+00  0.00000000000E+00  0.45593999997E+02  0.45594000000E+02  0.51100000000E-03 0.  1.
         11   -1    0    0    0    0 -0.00000000000E+00 -0.00000000000E+00 -0.45593999997E+02  0.45594000000E+02  0.51100000000E-03 0. -1.
    9900012    2    1    2    0    0  0.19735163324E+02 -0.83129025312E+01  0.37749731903E+02  0.47787270989E+02  0.19999999748E+02 0.  0.
         12    1    1    2    0    0 -0.19735163324E+02  0.83129025312E+01 -0.37749731903E+02  0.43400729011E+02  0.00000000000E+00 0. -1.
         11    1    3    3    0    0  0.15363408542E+02 -0.11398742466E+02  0.33024284567E+02  0.38165023559E+02  0.51100000000E-03 0.  1.
        -11    1    3    3    0    0 -0.12574202347E+01  0.21811861493E+01  0.23559372130E+01  0.34480601905E+01  0.51100000000E-03 0. -1.
         12    1    3    3    0    0  0.56291750174E+01  0.90465378540E+00  0.23695101229E+01  0.61741872396E+01  0.00000000000E+00 0. -1.
</event>
<event>
 7    1  0.2812635E-010  0.4778727E+02  0.7816164E-02  0.1312668E+00
        -11   -1    0    0    0    0  0.00000000000E+00  0.00000000000E+00  0.45593999997E+02  0.45594000000E+02  0.51100000000E-03 0. -1.
         11   -1    0    0    0    0 -0.00000000000E+00 -0.00000000000E+00 -0.45593999997E+02  0.45594000000E+02  0.51100000000E-03 0.  1.
    9900012    2    1    2    0    0  0.23256164291E+02  0.36130371104E+02 -0.61131208449E+01  0.47787272585E+02  0.20000007025E+02 0.  0.
         12    1    1    2    0    0 -0.23256164291E+02 -0.36130371104E+02  0.61131208449E+01  0.43400727415E+02  0.00000000000E+00 0. -1.
         11    1    3    3    0    0  0.13722750063E+02  0.11073201027E+02  0.50050440087E+01  0.18329760393E+02  0.51100000000E-03 0. -1.
        -11    1    3    3    0    0  0.93817651340E+01  0.19754972450E+02 -0.78967443291E+01  0.23251559621E+02  0.51100000000E-03 0.  1.
         12    1    3    3    0    0  0.15164909418E+00  0.53021976268E+01 -0.32214205244E+01  0.62059525712E+01  0.00000000000E+00 0. -1.
</event>
<event>
 7    1  0.2812635E-010  0.4778727E+02  0.7816164E-02  0.1312668E+00
        -11   -1    0    0    0    0  0.00000000000E+00  0.00000000000E+00  0.45593999997E+02  0.45594000000E+02  0.51100000000E-03 0.  1.
         11   -1    0    0    0    0 -0.00000000000E+00 -0.00000000000E+00 -0.45593999997E+02  0.45594000000E+02  0.51100000000E-03 0. -1.
    9900012    2    1    2    0    0 -0.12299077399E+02 -0.98460908999E+01  0.40440210639E+02  0.47787269045E+02  0.19999990883E+02 0.  0.
         12    1    1    2    0    0  0.12299077399E+02  0.98460908999E+01 -0.40440210639E+02  0.43400730955E+02  0.00000000000E+00 0. -1.
         11    1    3    3    0    0 -0.22439480985E+01 -0.27998511173E+01  0.28878952891E+01  0.46059102043E+01  0.51100000000E-03 0. -1.
        -11    1    3    3    0    0 -0.84952558857E+01 -0.16135166560E+01  0.46912120745E+01  0.98376968621E+01  0.51100000000E-03 0.  1.
        -12    1    3    3    0    0 -0.15598734152E+01 -0.54327231266E+01  0.32861103276E+02  0.33343661979E+02  0.00000000000E+00 0.  1.
</event>
<event>
 7    1  0.2812635E-010  0.4778727E+02  0.7816164E-02  0.1312668E+00
        -11   -1    0    0    0    0  0.00000000000E+00  0.00000000000E+00  0.45593999997E+02  0.45594000000E+02  0.51100000000E-03 0. -1.
         11   -1    0    0    0    0 -0.00000000000E+00 -0.00000000000E+00 -0.45593999997E+02  0.45594000000E+02  0.51100000000E-03 0.  1.
    9900012    2    1    2    0    0  0.34096828717E+02  0.23463770158E+02 -0.13056831260E+02  0.47787273265E+02  0.20000010125E+02 0.  0.
         12    1    1    2    0    0 -0.34096828717E+02 -0.23463770158E+02  0.13056831260E+02  0.43400726735E+02  0.00000000000E+00 0. -1.
         11    1    3    3    0    0 -0.26090287807E+00  0.11381865933E+01 -0.42689770630E+01  0.44257998665E+01  0.51100000000E-03 0. -1.
        -11    1    3    3    0    0  0.32865003659E+02  0.19292541226E+02 -0.10559234495E+02  0.39545012907E+02  0.51100000000E-03 0.  1.
         12    1    3    3    0    0  0.14927279362E+01  0.30330423391E+01  0.17713802988E+01  0.38164604918E+01  0.00000000000E+00 0. -1.
</event>
<event>
 7    1  0.2812635E-010  0.4778727E+02  0.7816164E-02  0.1312668E+00
        -11   -1    0    0    0    0  0.00000000000E+00  0.00000000000E+00  0.45593999997E+02  0.45594000000E+02  0.51100000000E-03 0. -1.
         11   -1    0    0    0    0 -0.00000000000E+00 -0.00000000000E+00 -0.45593999997E+02  0.45594000000E+02  0.51100000000E-03 0.  1.
    9900012    2    1    2    0    0  0.19093110652E+02  0.38974636135E+02  0.23287214822E+00  0.47787269987E+02  0.19999995179E+02 0.  0.
         12    1    1    2    0    0 -0.19093110652E+02 -0.38974636135E+02 -0.23287214822E+00  0.43400730013E+02  0.00000000000E+00 0. -1.
         11    1    3    3    0    0  0.95338899308E+01  0.96485178795E+01 -0.63889858037E+01  0.14993601780E+02  0.51100000000E-03 0. -1.
        -11    1    3    3    0    0  0.69845666580E+01  0.79932491912E+01  0.26710379903E+01  0.10945805052E+02  0.51100000000E-03 0.  1.
         12    1    3    3    0    0  0.25746540634E+01  0.21332869064E+02  0.39508199617E+01  0.21847863155E+02  0.00000000000E+00 0. -1.
</event>
<event>
 7    1  0.2812635E-010  0.4778728E+02  0.7816164E-02  0.1312668E+00
        -11   -1    0    0    0    0  0.00000000000E+00  0.00000000000E+00  0.45593999997E+02  0.45594000000E+02  0.51100000000E-03 0. -1.
         11   -1    0    0    0    0 -0.00000000000E+00 -0.00000000000E+00 -0.45593999997E+02  0.45594000000E+02  0.51100000000E-03 0.  1.
    9900012    2    1    2    0    0  0.33378483547E+02 -0.20861425623E+02  0.18283890741E+02  0.47787275311E+02  0.20000019451E+02 0.  0.
         12    1    1    2    0    0 -0.33378483547E+02  0.20861425623E+02 -0.18283890741E+02  0.43400724689E+02  0.00000000000E+00 0. -1.
         11    1    3    3    0    0  0.61336047719E+01 -0.65249718148E+01  0.11873737503E+02  0.14872189053E+02  0.51100000000E-03 0. -1.
        -11    1    3    3    0    0  0.26575206248E+02 -0.14203935466E+02  0.39845256798E+01  0.30395226845E+02  0.51100000000E-03 0.  1.
        -12    1    3    3    0    0  0.66967252742E+00 -0.13251834232E+00  0.24256275585E+01  0.25198594123E+01  0.00000000000E+00 0.  1.
</event>
<event>
 7    1  0.2812635E-010  0.4778728E+02  0.7816164E-02  0.1312668E+00
        -11   -1    0    0    0    0  0.00000000000E+00  0.00000000000E+00  0.45593999997E+02  0.45594000000E+02  0.51100000000E-03 0.  1.
         11   -1    0    0    0    0 -0.00000000000E+00 -0.00000000000E+00 -0.45593999997E+02  0.45594000000E+02  0.51100000000E-03 0. -1.
    9900012    2    1    2    0    0  0.32498419666E+02 -0.61759926849E+01  0.28095060929E+02  0.47787278634E+02  0.20000034605E+02 0.  0.
         12    1    1    2    0    0 -0.32498419666E+02  0.61759926849E+01 -0.28095060929E+02  0.43400721366E+02  0.00000000000E+00 0. -1.
         11    1    3    3    0    0  0.22322099039E+01 -0.67738467973E+01  0.90971581744E+01  0.11559673378E+02  0.51100000000E-03 0. -1.
        -11    1    3    3    0    0  0.18894570355E+02  0.18293025610E-01  0.84192698535E+01  0.20685483525E+02  0.51100000000E-03 0.  1.
        -12    1    3    3    0    0  0.11371639408E+02  0.57956108673E+00  0.10578632901E+02  0.15542121732E+02  0.00000000000E+00 0.  1.
</event>
<event>
 7    1  0.2812635E-010  0.4778727E+02  0.7816164E-02  0.1312668E+00
        -11   -1    0    0    0    0  0.00000000000E+00  0.00000000000E+00  0.45593999997E+02  0.45594000000E+02  0.51100000000E-03 0. -1.
         11   -1    0    0    0    0 -0.00000000000E+00 -0.00000000000E+00 -0.45593999997E+02  0.45594000000E+02  0.51100000000E-03 0.  1.
    9900012    2    1    2    0    0 -0.45978818451E+01  0.18484724384E+02 -0.38997404969E+02  0.47787272503E+02  0.20000006648E+02 0.  0.
         12    1    1    2    0    0  0.45978818451E+01 -0.18484724384E+02  0.38997404969E+02  0.43400727497E+02  0.00000000000E+00 0. -1.
         11    1    3    3    0    0 -0.25506857430E+01  0.39717237924E+01  0.10501568815E+01  0.48356403278E+01  0.51100000000E-03 0. -1.
        -11    1    3    3    0    0 -0.12986056028E+01  0.90140078625E+01 -0.31249141616E+02  0.32549156153E+02  0.51100000000E-03 0.  1.
         12    1    3    3    0    0 -0.74859049933E+00  0.54989927292E+01 -0.87984202337E+01  0.10402476022E+02  0.00000000000E+00 0. -1.
</event>
<event>
 7    1  0.2812635E-010  0.4778727E+02  0.7816164E-02  0.1312668E+00
        -11   -1    0    0    0    0  0.00000000000E+00  0.00000000000E+00  0.45593999997E+02  0.45594000000E+02  0.51100000000E-03 0. -1.
         11   -1    0    0    0    0 -0.00000000000E+00 -0.00000000000E+00 -0.45593999997E+02  0.45594000000E+02  0.51100000000E-03 0.  1.
    9900012    2    1    2    0    0  0.28663470514E+02  0.15563408851E+02 -0.28632310865E+02  0.47787268872E+02  0.19999990094E+02 0.  0.
         12    1    1    2    0    0 -0.28663470514E+02 -0.15563408851E+02  0.28632310865E+02  0.43400731128E+02  0.00000000000E+00 0. -1.
         11    1    3    3    0    0  0.45020681611E+01 -0.74416028312E+00 -0.12445064035E+02  0.13255263534E+02  0.51100000000E-03 0. -1.
        -11    1    3    3    0    0  0.21719005689E+02  0.12076199666E+02 -0.10349420986E+02  0.26919515625E+02  0.51100000000E-03 0.  1.
        -12    1    3    3    0    0  0.24423966645E+01  0.42313694684E+01 -0.58378258445E+01  0.76124897133E+01  0.00000000000E+00 0.  1.
</event>
<event>
 7    1  0.3671622E-010  0.4778727E+02  0.7816164E-02  0.1312668E+00
        -11   -1    0    0    0    0  0.00000000000E+00  0.00000000000E+00  0.45593999997E+02  0.45594000000E+02  0.51100000000E-03 0.  1.
         11   -1    0    0    0    0 -0.00000000000E+00 -0.00000000000E+00 -0.45593999997E+02  0.45594000000E+02  0.51100000000E-03 0. -1.
    9900012    2    1    2    0    0 -0.28277013906E+01  0.15813938344E+02  0.40318073652E+02  0.47787267240E+02  0.19999982654E+02 0.  0.
         12    1    1    2    0    0  0.28277013906E+01 -0.15813938344E+02 -0.40318073652E+02  0.43400732760E+02  0.00000000000E+00 0. -1.
         11    1    3    3    0    0 -0.44120312882E+01  0.27747350436E+01  0.27664583627E+01  0.59007174805E+01  0.51100000000E-03 0.  1.
        -11    1    3    3    0    0  0.63971619753E+01  0.89657842439E+01  0.15948159053E+02  0.19381763230E+02  0.51100000000E-03 0. -1.
        -12    1    3    3    0    0 -0.48128320777E+01  0.40734190569E+01  0.21603456236E+02  0.22504786530E+02  0.00000000000E+00 0.  1.
</event>
<event>
 7    1  0.2812635E-010  0.4778727E+02  0.7816164E-02  0.1312668E+00
        -11   -1    0    0    0    0  0.00000000000E+00  0.00000000000E+00  0.45593999997E+02  0.45594000000E+02  0.51100000000E-03 0.  1.
         11   -1    0    0    0    0 -0.00000000000E+00 -0.00000000000E+00 -0.45593999997E+02  0.45594000000E+02  0.51100000000E-03 0. -1.
    9900012    2    1    2    0    0 -0.15530719648E+02 -0.19617520212E+02  0.35462273306E+02  0.47787272125E+02  0.20000004928E+02 0.  0.
         12    1    1    2    0    0  0.15530719648E+02  0.19617520212E+02 -0.35462273306E+02  0.43400727875E+02  0.00000000000E+00 0. -1.
         11    1    3    3    0    0 -0.23534132549E+00 -0.99712671547E+01  0.14342805680E+02  0.17469906389E+02  0.51100000000E-03 0.  1.
        -11    1    3    3    0    0 -0.65184365427E+01 -0.34171509652E+01  0.90368854677E+00  0.74150919705E+01  0.51100000000E-03 0. -1.
        -12    1    3    3    0    0 -0.87769417796E+01 -0.62291020920E+01  0.20215779079E+02  0.22902273766E+02  0.00000000000E+00 0.  1.
</event>
<event>
 7    1  0.2812635E-010  0.4778727E+02  0.7816164E-02  0.1312668E+00
        -11   -1    0    0    0    0  0.00000000000E+00  0.00000000000E+00  0.45593999997E+02  0.45594000000E+02  0.51100000000E-03 0. -1.
         11   -1    0    0    0    0 -0.00000000000E+00 -0.00000000000E+00 -0.45593999997E+02  0.45594000000E+02  0.51100000000E-03 0.  1.
    9900012    2    1    2    0    0  0.31471944562E+02 -0.29803898795E+02 -0.22063140877E+01  0.47787268442E+02  0.19999988136E+02 0.  0.
         12    1    1    2    0    0 -0.31471944562E+02  0.29803898795E+02  0.22063140877E+01  0.43400731558E+02  0.00000000000E+00 0. -1.
         11    1    3    3    0    0  0.73105703152E+01 -0.14160837561E+01  0.22901475631E+01  0.77906679855E+01  0.51100000000E-03 0. -1.
        -11    1    3    3    0    0  0.11862921913E+02 -0.23278588924E+02 -0.52833170997E+01  0.26655863491E+02  0.51100000000E-03 0.  1.
        -12    1    3    3    0    0  0.12298452334E+02 -0.51092261145E+01  0.78685544885E+00  0.13340736966E+02  0.00000000000E+00 0.  1.
</event>
<event>
 7    1  0.2812635E-010  0.4778727E+02  0.7816164E-02  0.1312668E+00
        -11   -1    0    0    0    0  0.00000000000E+00  0.00000000000E+00  0.45593999997E+02  0.45594000000E+02  0.51100000000E-03 0.  1.
         11   -1    0    0    0    0 -0.00000000000E+00 -0.00000000000E+00 -0.45593999997E+02  0.45594000000E+02  0.51100000000E-03 0. -1.
    9900012    2    1    2    0    0 -0.19090534137E+02 -0.13055524847E+02  0.36725032703E+02  0.47787271322E+02  0.20000001267E+02 0.  0.
         12    1    1    2    0    0  0.19090534137E+02  0.13055524847E+02 -0.36725032703E+02  0.43400728678E+02  0.00000000000E+00 0. -1.
         11    1    3    3    0    0 -0.62217291740E+01  0.21552770072E+00  0.41985131646E+01  0.75089199728E+01  0.51100000000E-03 0. -1.
        -11    1    3    3    0    0 -0.89805885931E+01 -0.60641870771E+01  0.29700504396E+02  0.31615586315E+02  0.51100000000E-03 0.  1.
        -12    1    3    3    0    0 -0.38882163701E+01 -0.72068654709E+01  0.28260151425E+01  0.86627650344E+01  0.00000000000E+00 0.  1.
</event>
<event>
 7    1  0.2812635E-010  0.4778726E+02  0.7816164E-02  0.1312668E+00
        -11   -1    0    0    0    0  0.00000000000E+00  0.00000000000E+00  0.45593999997E+02  0.45594000000E+02  0.51100000000E-03 0. -1.
         11   -1    0    0    0    0 -0.00000000000E+00 -0.00000000000E+00 -0.45593999997E+02  0.45594000000E+02  0.51100000000E-03 0.  1.
    9900012    2    1    2    0    0  0.35400575849E+02 -0.18407961418E+02  0.17075439898E+02  0.47787257360E+02  0.19999937608E+02 0.  0.
         12    1    1    2    0    0 -0.35400575849E+02  0.18407961418E+02 -0.17075439898E+02  0.43400742640E+02  0.00000000000E+00 0. -1.
         11    1    3    3    0    0  0.23643150697E+02 -0.18019438888E+02  0.87168083435E+01  0.30978726583E+02  0.51100000000E-03 0.  1.
        -11    1    3    3    0    0  0.11163633917E+02  0.10437649017E+01  0.96480624406E+01  0.14791932819E+02  0.51100000000E-03 0. -1.
         12    1    3    3    0    0  0.59379123397E+00 -0.14322874310E+01 -0.12894308857E+01  0.20165979578E+01  0.00000000000E+00 0. -1.
</event>
<event>
 7    1  0.2812635E-010  0.4778727E+02  0.7816164E-02  0.1312668E+00
        -11   -1    0    0    0    0  0.00000000000E+00  0.00000000000E+00  0.45593999997E+02  0.45594000000E+02  0.51100000000E-03 0.  1.
         11   -1    0    0    0    0 -0.00000000000E+00 -0.00000000000E+00 -0.45593999997E+02  0.45594000000E+02  0.51100000000E-03 0. -1.
    9900012    2    1    2    0    0  0.27750280893E+02  0.30882000862E+02  0.12643085452E+02  0.47787266404E+02  0.19999978844E+02 0.  0.
         12    1    1    2    0    0 -0.27750280893E+02 -0.30882000862E+02 -0.12643085452E+02  0.43400733596E+02  0.00000000000E+00 0. -1.
         11    1    3    3    0    0  0.47966209962E+01  0.10296929480E+01  0.77108399059E+01  0.91391954167E+01  0.51100000000E-03 0. -1.
        -11    1    3    3    0    0  0.19856038765E+01  0.45782638458E+01  0.28402076576E+01  0.57419423887E+01  0.51100000000E-03 0.  1.
         12    1    3    3    0    0  0.20968056020E+02  0.25274044068E+02  0.20920378883E+01  0.32906128599E+02  0.00000000000E+00 0. -1.
</event>
<event>
 7    1  0.2812635E-010  0.4778727E+02  0.7816164E-02  0.1312668E+00
        -11   -1    0    0    0    0  0.00000000000E+00  0.00000000000E+00  0.45593999997E+02  0.45594000000E+02  0.51100000000E-03 0.  1.
         11   -1    0    0    0    0 -0.00000000000E+00 -0.00000000000E+00 -0.45593999997E+02  0.45594000000E+02  0.51100000000E-03 0. -1.
    9900012    2    1    2    0    0  0.42231242776E+02  0.99531373945E+01  0.10394660928E+01  0.47787270742E+02  0.19999998621E+02 0.  0.
         12    1    1    2    0    0 -0.42231242776E+02 -0.99531373945E+01 -0.10394660928E+01  0.43400729258E+02  0.00000000000E+00 0. -1.
         11    1    3    3    0    0 -0.14069483875E+01 -0.34942774728E+00  0.36193883216E+00  0.14941899126E+01  0.51100000000E-03 0. -1.
        -11    1    3    3    0    0  0.28745578142E+02  0.12148149544E+02  0.16863600542E+01  0.31252673654E+02  0.51100000000E-03 0.  1.
        -12    1    3    3    0    0  0.14892613021E+02 -0.18455844018E+01 -0.10088327936E+01  0.15040407175E+02  0.00000000000E+00 0.  1.
</event>
<event>
 7    1  0.2812635E-010  0.4778727E+02  0.7816164E-02  0.1312668E+00
        -11   -1    0    0    0    0  0.00000000000E+00  0.00000000000E+00  0.45593999997E+02  0.45594000000E+02  0.51100000000E-03 0. -1.
         11   -1    0    0    0    0 -0.00000000000E+00 -0.00000000000E+00 -0.45593999997E+02  0.45594000000E+02  0.51100000000E-03 0.  1.
    9900012    2    1    2    0    0 -0.18056415119E+02 -0.33038139912E+02 -0.21588661365E+02  0.47787272871E+02  0.20000008326E+02 0.  0.
         12    1    1    2    0    0  0.18056415119E+02  0.33038139912E+02  0.21588661365E+02  0.43400727129E+02  0.00000000000E+00 0. -1.
         11    1    3    3    0    0 -0.32487902744E+01 -0.16579651979E+02 -0.17690281254E+01  0.16987317585E+02  0.51100000000E-03 0. -1.
        -11    1    3    3    0    0 -0.61175555916E+01 -0.21623981939E+01 -0.80757504958E+01  0.10359449729E+02  0.51100000000E-03 0.  1.
         12    1    3    3    0    0 -0.86900692534E+01 -0.14296089740E+02 -0.11743882744E+02  0.20440505556E+02  0.00000000000E+00 0. -1.
</event>
<event>
 7    1  0.2812635E-010  0.4778728E+02  0.7816164E-02  0.1312668E+00
        -11   -1    0    0    0    0  0.00000000000E+00  0.00000000000E+00  0.45593999997E+02  0.45594000000E+02  0.51100000000E-03 0.  1.
         11   -1    0    0    0    0 -0.00000000000E+00 -0.00000000000E+00 -0.45593999997E+02  0.45594000000E+02  0.51100000000E-03 0. -1.
    9900012    2    1    2    0    0 -0.13677179967E+02 -0.78725976818E+00  0.41181760466E+02  0.47787280825E+02  0.20000044596E+02 0.  0.
         12    1    1    2    0    0  0.13677179967E+02  0.78725976818E+00 -0.41181760466E+02  0.43400719175E+02  0.00000000000E+00 0. -1.
         11    1    3    3    0    0 -0.37793966501E+01 -0.29961494315E+01  0.16146065866E+02  0.16850999783E+02  0.51100000000E-03 0. -1.
        -11    1    3    3    0    0  0.20990054658E+01 -0.38858360453E+01  0.39637947091E+01  0.59344093618E+01  0.51100000000E-03 0.  1.
        -12    1    3    3    0    0 -0.11996788783E+02  0.60947257085E+01  0.21071899891E+02  0.25001871681E+02  0.00000000000E+00 0.  1.
</event>
<event>
 7    1  0.2812635E-010  0.4778728E+02  0.7816164E-02  0.1312668E+00
        -11   -1    0    0    0    0  0.00000000000E+00  0.00000000000E+00  0.45593999997E+02  0.45594000000E+02  0.51100000000E-03 0.  1.
         11   -1    0    0    0    0 -0.00000000000E+00 -0.00000000000E+00 -0.45593999997E+02  0.45594000000E+02  0.51100000000E-03 0. -1.
    9900012    2    1    2    0    0  0.42401464111E+02  0.73831130856E+01 -0.55882022198E+01  0.47787279711E+02  0.20000039513E+02 0.  0.
         12    1    1    2    0    0 -0.42401464111E+02 -0.73831130856E+01  0.55882022198E+01  0.43400720289E+02  0.00000000000E+00 0. -1.
         11    1    3    3    0    0  0.29178181679E+02  0.37712900562E+01  0.33659731515E+01  0.29612812942E+02  0.51100000000E-03 0. -1.
        -11    1    3    3    0    0 -0.81640359947E+00  0.12948851350E+00 -0.19186323386E+01  0.20891224052E+01  0.51100000000E-03 0.  1.
         12    1    3    3    0    0  0.14039686031E+02  0.34823345160E+01 -0.70355430328E+01  0.16085344364E+02  0.00000000000E+00 0. -1.
</event>
<event>
 7    1  0.2812635E-010  0.4778727E+02  0.7816164E-02  0.1312668E+00
        -11   -1    0    0    0    0  0.00000000000E+00  0.00000000000E+00  0.45593999997E+02  0.45594000000E+02  0.51100000000E-03 0.  1.
         11   -1    0    0    0    0 -0.00000000000E+00 -0.00000000000E+00 -0.45593999997E+02  0.45594000000E+02  0.51100000000E-03 0. -1.
    9900012    2    1    2    0    0  0.23415763115E+02  0.11137700394E+02  0.34803403147E+02  0.47787271861E+02  0.20000003724E+02 0.  0.
         12    1    1    2    0    0 -0.23415763115E+02 -0.11137700394E+02 -0.34803403147E+02  0.43400728139E+02  0.00000000000E+00 0. -1.
         11    1    3    3    0    0  0.15451001616E+02  0.11372338060E+02  0.23289709191E+02  0.30174063007E+02  0.51100000000E-03 0. -1.
        -11    1    3    3    0    0  0.74395828965E+01  0.23487328198E+01  0.12552793194E+02  0.14779599344E+02  0.51100000000E-03 0.  1.
         12    1    3    3    0    0  0.52517860216E+00 -0.25833704862E+01 -0.10390992372E+01  0.28336095104E+01  0.00000000000E+00 0. -1.
</event>
<event>
 7    1  0.2812635E-010  0.4778727E+02  0.7816164E-02  0.1312668E+00
        -11   -1    0    0    0    0  0.00000000000E+00  0.00000000000E+00  0.45593999997E+02  0.45594000000E+02  0.51100000000E-03 0.  1.
         11   -1    0    0    0    0 -0.00000000000E+00 -0.00000000000E+00 -0.45593999997E+02  0.45594000000E+02  0.51100000000E-03 0. -1.
    9900012    2    1    2    0    0  0.30644771169E+02 -0.29674508448E+02  0.79965499244E+01  0.47787271178E+02  0.20000000607E+02 0.  0.
         12    1    1    2    0    0 -0.30644771169E+02  0.29674508448E+02 -0.79965499244E+01  0.43400728822E+02  0.00000000000E+00 0. -1.
         11    1    3    3    0    0  0.49042865771E+01 -0.75011091581E+01 -0.26473463565E+01  0.93448974540E+01  0.51100000000E-03 0. -1.
        -11    1    3    3    0    0  0.26579389764E+02 -0.17887246149E+02  0.70929845095E+01  0.32813533253E+02  0.51100000000E-03 0.  1.
        -12    1    3    3    0    0 -0.83890517264E+00 -0.42861531413E+01  0.35509117713E+01  0.56288404709E+01  0.00000000000E+00 0.  1.
</event>
<event>
 7    1  0.3353058E-010  0.4778727E+02  0.7816164E-02  0.1312668E+00
        -11   -1    0    0    0    0  0.00000000000E+00  0.00000000000E+00  0.45593999997E+02  0.45594000000E+02  0.51100000000E-03 0.  1.
         11   -1    0    0    0    0 -0.00000000000E+00 -0.00000000000E+00 -0.45593999997E+02  0.45594000000E+02  0.51100000000E-03 0. -1.
    9900012    2    1    2    0    0 -0.28146566671E+02 -0.22995338888E+02  0.23719367999E+02  0.47787271387E+02  0.20000001560E+02 0.  0.
         12    1    1    2    0    0  0.28146566671E+02  0.22995338888E+02 -0.23719367999E+02  0.43400728613E+02  0.00000000000E+00 0. -1.
         11    1    3    3    0    0 -0.50241390154E+01 -0.46576400227E+01 -0.19389838788E+01  0.71200591409E+01  0.51100000000E-03 0. -1.
        -11    1    3    3    0    0 -0.23176338792E+02 -0.17849960688E+02  0.21067017544E+02  0.36049729608E+02  0.51100000000E-03 0.  1.
         12    1    3    3    0    0  0.53911137234E-01 -0.48773817735E+00  0.45913343337E+01  0.46174826372E+01  0.00000000000E+00 0. -1.
</event>
<event>
 7    1  0.2812635E-010  0.4778727E+02  0.7816164E-02  0.1312668E+00
        -11   -1    0    0    0    0  0.00000000000E+00  0.00000000000E+00  0.45593999997E+02  0.45594000000E+02  0.51100000000E-03 0.  1.
         11   -1    0    0    0    0 -0.00000000000E+00 -0.00000000000E+00 -0.45593999997E+02  0.45594000000E+02  0.51100000000E-03 0. -1.
    9900012    2    1    2    0    0 -0.52628095293E+00 -0.34797373850E+02  0.25932396510E+02  0.47787269738E+02  0.19999994043E+02 0.  0.
         12    1    1    2    0    0  0.52628095293E+00  0.34797373850E+02 -0.25932396510E+02  0.43400730262E+02  0.00000000000E+00 0. -1.
         11    1    3    3    0    0  0.33564287972E+00  0.19793886425E+01  0.24355327343E+00  0.20223634685E+01  0.51100000000E-03 0. -1.
        -11    1    3    3    0    0  0.58994823112E+00 -0.24644822079E+02  0.21894077137E+02  0.32970682556E+02  0.51100000000E-03 0.  1.
        -12    1    3    3    0    0 -0.14518720638E+01 -0.12131940413E+02  0.37947660997E+01  0.12794223714E+02  0.00000000000E+00 0.  1.
</event>
<event>
 7    1  0.2812635E-010  0.4778727E+02  0.7816164E-02  0.1312668E+00
        -11   -1    0    0    0    0  0.00000000000E+00  0.00000000000E+00  0.45593999997E+02  0.45594000000E+02  0.51100000000E-03 0.  1.
         11   -1    0    0    0    0 -0.00000000000E+00 -0.00000000000E+00 -0.45593999997E+02  0.45594000000E+02  0.51100000000E-03 0. -1.
    9900012    2    1    2    0    0 -0.22333988747E+02 -0.24820331434E+02  0.27726652943E+02  0.47787272020E+02  0.20000004446E+02 0.  0.
         12    1    1    2    0    0  0.22333988747E+02  0.24820331434E+02 -0.27726652943E+02  0.43400727980E+02  0.00000000000E+00 0. -1.
         11    1    3    3    0    0 -0.15489840538E+02 -0.12313544329E+02  0.22600622742E+02  0.30039085912E+02  0.51100000000E-03 0. -1.
        -11    1    3    3    0    0  0.76066239008E+00 -0.75379245263E+01  0.40772146365E+01  0.86036383518E+01  0.51100000000E-03 0.  1.
         12    1    3    3    0    0 -0.76048105991E+01 -0.49688625786E+01  0.10488155643E+01  0.91445477560E+01  0.00000000000E+00 0. -1.
</event>
<event>
 7    1  0.2812635E-010  0.4778725E+02  0.7816164E-02  0.1312668E+00
        -11   -1    0    0    0    0  0.00000000000E+00  0.00000000000E+00  0.45593999997E+02  0.45594000000E+02  0.51100000000E-03 0.  1.
         11   -1    0    0    0    0 -0.00000000000E+00 -0.00000000000E+00 -0.45593999997E+02  0.45594000000E+02  0.51100000000E-03 0. -1.
    9900012    2    1    2    0    0 -0.14012105978E+02 -0.32762801986E+02  0.24776700805E+02  0.47787248731E+02  0.19999898264E+02 0.  0.
         12    1    1    2    0    0  0.14012105978E+02  0.32762801986E+02 -0.24776700805E+02  0.43400751269E+02  0.00000000000E+00 0. -1.
         11    1    3    3    0    0  0.13448602286E+01 -0.91015726194E+00  0.19108221070E+01  0.25076436472E+01  0.51100000000E-03 0. -1.
        -11    1    3    3    0    0 -0.77637930372E+01 -0.16412540033E+02  0.21321053013E+02  0.28004200659E+02  0.51100000000E-03 0.  1.
        -12    1    3    3    0    0 -0.75931731699E+01 -0.15440104691E+02  0.15448256842E+01  0.17275404425E+02  0.00000000000E+00 0.  1.
</event>
<event>
 7    1  0.2812635E-010  0.4778727E+02  0.7816164E-02  0.1312668E+00
        -11   -1    0    0    0    0  0.00000000000E+00  0.00000000000E+00  0.45593999997E+02  0.45594000000E+02  0.51100000000E-03 0. -1.
         11   -1    0    0    0    0 -0.00000000000E+00 -0.00000000000E+00 -0.45593999997E+02  0.45594000000E+02  0.51100000000E-03 0.  1.
    9900012    2    1    2    0    0  0.27162858619E+02 -0.30433624838E+02 -0.14818795178E+02  0.47787273052E+02  0.20000009153E+02 0.  0.
         12    1    1    2    0    0 -0.27162858619E+02  0.30433624838E+02  0.14818795178E+02  0.43400726948E+02  0.00000000000E+00 0. -1.
         11    1    3    3    0    0  0.26863695847E+01 -0.57952499933E+01  0.57142624905E+00  0.64131140836E+01  0.51100000000E-03 0. -1.
        -11    1    3    3    0    0  0.20894840332E+02 -0.25025252332E+02 -0.86466400883E+01  0.33728652387E+02  0.51100000000E-03 0.  1.
        -12    1    3    3    0    0  0.35816487021E+01  0.38687748711E+00 -0.67435813387E+01  0.76455065814E+01  0.00000000000E+00 0.  1.
</event>
<event>
 7    1  0.2812635E-010  0.4778727E+02  0.7816164E-02  0.1312668E+00
        -11   -1    0    0    0    0  0.00000000000E+00  0.00000000000E+00  0.45593999997E+02  0.45594000000E+02  0.51100000000E-03 0. -1.
         11   -1    0    0    0    0 -0.00000000000E+00 -0.00000000000E+00 -0.45593999997E+02  0.45594000000E+02  0.51100000000E-03 0.  1.
    9900012    2    1    2    0    0  0.52445056650E+01 -0.42943263587E+02  0.34633252825E+01  0.47787270177E+02  0.19999996045E+02 0.  0.
         12    1    1    2    0    0 -0.52445056650E+01  0.42943263587E+02 -0.34633252825E+01  0.43400729823E+02  0.00000000000E+00 0. -1.
         11    1    3    3    0    0  0.46800929903E+01 -0.11054700398E+01  0.86401558951E+00  0.48858835032E+01  0.51100000000E-03 0. -1.
        -11    1    3    3    0    0  0.39512500735E+01 -0.30522897397E+02  0.38802591747E+01  0.31021219418E+02  0.51100000000E-03 0.  1.
         12    1    3    3    0    0 -0.33868373988E+01 -0.11314896150E+02 -0.12809494816E+01  0.11880167256E+02  0.00000000000E+00 0. -1.
</event>
<event>
 7    1  0.2812635E-010  0.4778727E+02  0.7816164E-02  0.1312668E+00
        -11   -1    0    0    0    0  0.00000000000E+00  0.00000000000E+00  0.45593999997E+02  0.45594000000E+02  0.51100000000E-03 0. -1.
         11   -1    0    0    0    0 -0.00000000000E+00 -0.00000000000E+00 -0.45593999997E+02  0.45594000000E+02  0.51100000000E-03 0.  1.
    9900012    2    1    2    0    0 -0.59512177441E+01  0.42151157216E+02  0.84549489744E+01  0.47787271787E+02  0.20000003385E+02 0.  0.
         12    1    1    2    0    0  0.59512177441E+01 -0.42151157216E+02 -0.84549489744E+01  0.43400728213E+02  0.00000000000E+00 0. -1.
         11    1    3    3    0    0  0.48380710253E+01  0.18306838417E+02  0.22727939322E+01  0.19071257341E+02  0.51100000000E-03 0. -1.
        -11    1    3    3    0    0  0.20721615284E+00  0.11317011321E+02  0.33825184868E+01  0.11813514098E+02  0.51100000000E-03 0.  1.
         12    1    3    3    0    0 -0.10996504922E+02  0.12527307479E+02  0.27996365554E+01  0.16902500348E+02  0.00000000000E+00 0. -1.
</event>
<event>
 7    1  0.2812635E-010  0.4778727E+02  0.7816164E-02  0.1312668E+00
        -11   -1    0    0    0    0  0.00000000000E+00  0.00000000000E+00  0.45593999997E+02  0.45594000000E+02  0.51100000000E-03 0. -1.
         11   -1    0    0    0    0 -0.00000000000E+00 -0.00000000000E+00 -0.45593999997E+02  0.45594000000E+02  0.51100000000E-03 0.  1.
    9900012    2    1    2    0    0 -0.40047433230E+02 -0.30782492018E+01 -0.16442345132E+02  0.47787271436E+02  0.20000001784E+02 0.  0.
         12    1    1    2    0    0  0.40047433230E+02  0.30782492018E+01  0.16442345132E+02  0.43400728564E+02  0.00000000000E+00 0. -1.
         11    1    3    3    0    0 -0.20634384345E+02 -0.71479212679E+01 -0.32345024779E+01  0.22075611028E+02  0.51100000000E-03 0. -1.
        -11    1    3    3    0    0 -0.18303876756E+02  0.15459480400E+01 -0.13694879733E+02  0.22912258527E+02  0.51100000000E-03 0.  1.
         12    1    3    3    0    0 -0.11091721298E+01  0.25237240260E+01  0.48703707905E+00  0.27994018807E+01  0.00000000000E+00 0. -1.
</event>
<event>
 7    1  0.2812635E-010  0.4778726E+02  0.7816164E-02  0.1312668E+00
        -11   -1    0    0    0    0  0.00000000000E+00  0.00000000000E+00  0.45593999997E+02  0.45594000000E+02  0.51100000000E-03 0.  1.
         11   -1    0    0    0    0 -0.00000000000E+00 -0.00000000000E+00 -0.45593999997E+02  0.45594000000E+02  0.51100000000E-03 0. -1.
    9900012    2    1    2    0    0  0.15133192620E+02 -0.52926220723E+00  0.40673459382E+02  0.47787263423E+02  0.19999965252E+02 0.  0.
         12    1    1    2    0    0 -0.15133192620E+02  0.52926220723E+00 -0.40673459382E+02  0.43400736577E+02  0.00000000000E+00 0. -1.
         11    1    3    3    0    0  0.18696305615E+00  0.45717864731E+01  0.22464278514E+01  0.50973154791E+01  0.51100000000E-03 0. -1.
        -11    1    3    3    0    0  0.49254141040E+01 -0.67996987964E+01  0.16075980451E+02  0.18136503399E+02  0.51100000000E-03 0.  1.
         12    1    3    3    0    0  0.10020815460E+02  0.16986501160E+01  0.22351051079E+02  0.24553444545E+02  0.00000000000E+00 0. -1.
</event>
<event>
 7    1  0.2812635E-010  0.4778727E+02  0.7816164E-02  0.1312668E+00
        -11   -1    0    0    0    0  0.00000000000E+00  0.00000000000E+00  0.45593999997E+02  0.45594000000E+02  0.51100000000E-03 0.  1.
         11   -1    0    0    0    0 -0.00000000000E+00 -0.00000000000E+00 -0.45593999997E+02  0.45594000000E+02  0.51100000000E-03 0. -1.
    9900012    2    1    2    0    0 -0.71062991475E+01  0.73435445538E+01  0.42180517520E+02  0.47787271983E+02  0.20000004279E+02 0.  0.
         12    1    1    2    0    0  0.71062991475E+01 -0.73435445538E+01 -0.42180517520E+02  0.43400728017E+02  0.00000000000E+00 0. -1.
         11    1    3    3    0    0 -0.62601167763E+01 -0.39666975056E+01  0.74208876475E+01  0.10487770254E+02  0.51100000000E-03 0. -1.
        -11    1    3    3    0    0 -0.24813731962E+01  0.11602981339E+02  0.30276832642E+02  0.32518809695E+02  0.51100000000E-03 0.  1.
        -12    1    3    3    0    0  0.16351908251E+01 -0.29273927923E+00  0.44827972300E+01  0.47806920342E+01  0.00000000000E+00 0.  1.
</event>
<event>
 7    1  0.2812635E-010  0.4778727E+02  0.7816164E-02  0.1312668E+00
        -11   -1    0    0    0    0  0.00000000000E+00  0.00000000000E+00  0.45593999997E+02  0.45594000000E+02  0.51100000000E-03 0.  1.
         11   -1    0    0    0    0 -0.00000000000E+00 -0.00000000000E+00 -0.45593999997E+02  0.45594000000E+02  0.51100000000E-03 0. -1.
    9900012    2    1    2    0    0  0.33909744007E+02  0.22174322295E+02  0.15558017996E+02  0.47787271529E+02  0.20000002209E+02 0.  0.
         12    1    1    2    0    0 -0.33909744007E+02 -0.22174322295E+02 -0.15558017996E+02  0.43400728471E+02  0.00000000000E+00 0. -1.
         11    1    3    3    0    0  0.19836870313E+02  0.13713648328E+02  0.28023190725E+01  0.24277944038E+02  0.51100000000E-03 0.  1.
        -11    1    3    3    0    0  0.15439152967E+01  0.25929277076E+00  0.74653354291E+01  0.76277218430E+01  0.51100000000E-03 0. -1.
         12    1    3    3    0    0  0.12528958397E+02  0.82013811961E+01  0.52903634947E+01  0.15881605648E+02  0.00000000000E+00 0. -1.
</event>
<event>
 7    1  0.2812635E-010  0.4778725E+02  0.7816164E-02  0.1312668E+00
        -11   -1    0    0    0    0  0.00000000000E+00  0.00000000000E+00  0.45593999997E+02  0.45594000000E+02  0.51100000000E-03 0.  1.
         11   -1    0    0    0    0 -0.00000000000E+00 -0.00000000000E+00 -0.45593999997E+02  0.45594000000E+02  0.51100000000E-03 0. -1.
    9900012    2    1    2    0    0 -0.22269883869E+02 -0.61466501713E+01  0.36740933817E+02  0.47787248237E+02  0.19999896011E+02 0.  0.
         12    1    1    2    0    0  0.22269883869E+02  0.61466501713E+01 -0.36740933817E+02  0.43400751763E+02  0.00000000000E+00 0. -1.
         11    1    3    3    0    0 -0.26747079356E+01 -0.33350014617E-01  0.65417058652E+01  0.70674670606E+01  0.51100000000E-03 0. -1.
        -11    1    3    3    0    0 -0.19209723518E+02 -0.72391503793E+01  0.14879396173E+02  0.25353800634E+02  0.51100000000E-03 0.  1.
        -12    1    3    3    0    0 -0.38545241499E+00  0.11258502226E+01  0.15319831779E+02  0.15365980542E+02  0.00000000000E+00 0.  1.
</event>
<event>
 7    1  0.2812635E-010  0.4778727E+02  0.7816164E-02  0.1312668E+00
        -11   -1    0    0    0    0  0.00000000000E+00  0.00000000000E+00  0.45593999997E+02  0.45594000000E+02  0.51100000000E-03 0.  1.
         11   -1    0    0    0    0 -0.00000000000E+00 -0.00000000000E+00 -0.45593999997E+02  0.45594000000E+02  0.51100000000E-03 0. -1.
    9900012    2    1    2    0    0  0.41917487953E+02  0.58640510913E+01 -0.96000086545E+01  0.47787273535E+02  0.20000011358E+02 0.  0.
         12    1    1    2    0    0 -0.41917487953E+02 -0.58640510913E+01  0.96000086545E+01  0.43400726465E+02  0.00000000000E+00 0. -1.
         11    1    3    3    0    0  0.15466592082E+00  0.31262986414E+01 -0.13245081550E+01  0.33988213922E+01  0.51100000000E-03 0. -1.
        -11    1    3    3    0    0  0.20032048434E+02 -0.28196771666E+01 -0.85362188075E+01  0.21956788827E+02  0.51100000000E-03 0.  1.
        -12    1    3    3    0    0  0.21730773598E+02  0.55574296165E+01  0.26071830804E+00  0.22431663317E+02  0.00000000000E+00 0.  1.
</event>
<event>
 7    1  0.2812635E-010  0.4778727E+02  0.7816164E-02  0.1312668E+00
        -11   -1    0    0    0    0  0.00000000000E+00  0.00000000000E+00  0.45593999997E+02  0.45594000000E+02  0.51100000000E-03 0.  1.
         11   -1    0    0    0    0 -0.00000000000E+00 -0.00000000000E+00 -0.45593999997E+02  0.45594000000E+02  0.51100000000E-03 0. -1.
    9900012    2    1    2    0    0 -0.50783607349E+01  0.31365513871E+02  0.29564131888E+02  0.47787273020E+02  0.20000009008E+02 0.  0.
         12    1    1    2    0    0  0.50783607349E+01 -0.31365513871E+02 -0.29564131888E+02  0.43400726980E+02  0.00000000000E+00 0. -1.
         11    1    3    3    0    0  0.15963090965E+01  0.27439785191E+02  0.16662917598E+02  0.32142539371E+02  0.51100000000E-03 0. -1.
        -11    1    3    3    0    0 -0.53076846762E+01  0.38318186414E+01  0.12661523663E+02  0.14253719952E+02  0.51100000000E-03 0.  1.
         12    1    3    3    0    0 -0.13669851552E+01  0.93910037731E-01  0.23969062624E+00  0.13910136972E+01  0.00000000000E+00 0. -1.
</event>
<event>
 7    1  0.2812635E-010  0.4778727E+02  0.7816164E-02  0.1312668E+00
        -11   -1    0    0    0    0  0.00000000000E+00  0.00000000000E+00  0.45593999997E+02  0.45594000000E+02  0.51100000000E-03 0.  1.
         11   -1    0    0    0    0 -0.00000000000E+00 -0.00000000000E+00 -0.45593999997E+02  0.45594000000E+02  0.51100000000E-03 0. -1.
    9900012    2    1    2    0    0  0.16512710223E+02 -0.39698777335E+01  0.39939874019E+02  0.47787273453E+02  0.20000010984E+02 0.  0.
         12    1    1    2    0    0 -0.16512710223E+02  0.39698777335E+01 -0.39939874019E+02  0.43400726547E+02  0.00000000000E+00 0. -1.
         11    1    3    3    0    0  0.45454280784E+01  0.14591092300E+01  0.17955824304E+00  0.47772541888E+01  0.51100000000E-03 0. -1.
        -11    1    3    3    0    0  0.12131757793E+02 -0.18734117344E+01  0.34824133054E+02  0.36924374902E+02  0.51100000000E-03 0.  1.
        -12    1    3    3    0    0 -0.16447564810E+00 -0.35555752291E+01  0.49361827221E+01  0.60856443632E+01  0.00000000000E+00 0.  1.
</event>
<event>
 7    1  0.2812635E-010  0.4778727E+02  0.7816164E-02  0.1312668E+00
        -11   -1    0    0    0    0  0.00000000000E+00  0.00000000000E+00  0.45593999997E+02  0.45594000000E+02  0.51100000000E-03 0.  1.
         11   -1    0    0    0    0 -0.00000000000E+00 -0.00000000000E+00 -0.45593999997E+02  0.45594000000E+02  0.51100000000E-03 0. -1.
    9900012    2    1    2    0    0 -0.17740542168E+02  0.38340062260E+02 -0.99466777230E+01  0.47787267192E+02  0.19999982436E+02 0.  0.
         12    1    1    2    0    0  0.17740542168E+02 -0.38340062260E+02  0.99466777230E+01  0.43400732808E+02  0.00000000000E+00 0. -1.
         11    1    3    3    0    0 -0.62365297077E+01  0.24036039497E+02 -0.13360473963E+02  0.28198009899E+02  0.51100000000E-03 0. -1.
        -11    1    3    3    0    0 -0.11093339351E+02  0.11772837265E+02  0.12327394570E+01  0.16222870340E+02  0.51100000000E-03 0.  1.
         12    1    3    3    0    0 -0.41067310928E+00  0.25311854987E+01  0.21810567831E+01  0.33663869537E+01  0.00000000000E+00 0. -1.
</event>
<event>
 7    1  0.2812635E-010  0.4778726E+02  0.7816164E-02  0.1312668E+00
        -11   -1    0    0    0    0  0.00000000000E+00  0.00000000000E+00  0.45593999997E+02  0.45594000000E+02  0.51100000000E-03 0.  1.
         11   -1    0    0    0    0 -0.00000000000E+00 -0.00000000000E+00 -0.45593999997E+02  0.45594000000E+02  0.51100000000E-03 0. -1.
    9900012    2    1    2    0    0  0.19042932039E+02  0.11815114414E+02  0.37167106434E+02  0.47787262795E+02  0.19999962387E+02 0.  0.
         12    1    1    2    0    0 -0.19042932039E+02 -0.11815114414E+02 -0.37167106434E+02  0.43400737205E+02  0.00000000000E+00 0. -1.
         11    1    3    3    0    0  0.14568650754E+01  0.11022140231E+02  0.81323206938E+01  0.13774783891E+02  0.51100000000E-03 0. -1.
        -11    1    3    3    0    0  0.11642960730E+02  0.10830255428E+01  0.17757254406E+02  0.21261504255E+02  0.51100000000E-03 0.  1.
         12    1    3    3    0    0  0.59431062333E+01 -0.29005135972E+00  0.11277531334E+02  0.12750974649E+02  0.00000000000E+00 0. -1.
</event>
<event>
 7    1  0.2812635E-010  0.4778727E+02  0.7816164E-02  0.1312668E+00
        -11   -1    0    0    0    0  0.00000000000E+00  0.00000000000E+00  0.45593999997E+02  0.45594000000E+02  0.51100000000E-03 0.  1.
         11   -1    0    0    0    0 -0.00000000000E+00 -0.00000000000E+00 -0.45593999997E+02  0.45594000000E+02  0.51100000000E-03 0. -1.
    9900012    2    1    2    0    0  0.95426179031E+01 -0.27850601803E+02  0.31888966438E+02  0.47787265470E+02  0.19999974583E+02 0.  0.
         12    1    1    2    0    0 -0.95426179031E+01  0.27850601803E+02 -0.31888966438E+02  0.43400734530E+02  0.00000000000E+00 0. -1.
         11    1    3    3    0    0  0.22126849921E+01 -0.20137342578E+01  0.34443382732E+00  0.30116001491E+01  0.51100000000E-03 0. -1.
        -11    1    3    3    0    0  0.10209191513E+02 -0.65238088022E+01  0.10102856392E+02  0.15775150718E+02  0.51100000000E-03 0.  1.
        -12    1    3    3    0    0 -0.28792586023E+01 -0.19313058744E+02  0.21441676219E+02  0.29000514603E+02  0.00000000000E+00 0.  1.
</event>
<event>
 7    1  0.2812635E-010  0.4778726E+02  0.7816164E-02  0.1312668E+00
        -11   -1    0    0    0    0  0.00000000000E+00  0.00000000000E+00  0.45593999997E+02  0.45594000000E+02  0.51100000000E-03 0. -1.
         11   -1    0    0    0    0 -0.00000000000E+00 -0.00000000000E+00 -0.45593999997E+02  0.45594000000E+02  0.51100000000E-03 0.  1.
    9900012    2    1    2    0    0 -0.17111067840E+02  0.35044247596E+02 -0.19045628440E+02  0.47787263890E+02  0.19999967380E+02 0.  0.
         12    1    1    2    0    0  0.17111067840E+02 -0.35044247596E+02  0.19045628440E+02  0.43400736110E+02  0.00000000000E+00 0. -1.
         11    1    3    3    0    0  0.16865946430E+01  0.10640133953E+01  0.29546394175E+00  0.20159427564E+01  0.51100000000E-03 0. -1.
        -11    1    3    3    0    0 -0.41636959386E+01  0.62352245318E+01 -0.11002241881E+02  0.13314042042E+02  0.51100000000E-03 0.  1.
        -12    1    3    3    0    0 -0.14633966544E+02  0.27745009669E+02 -0.83388505012E+01  0.32457279092E+02  0.00000000000E+00 0.  1.
</event>
<event>
 7    1  0.2812635E-010  0.4778727E+02  0.7816164E-02  0.1312668E+00
        -11   -1    0    0    0    0  0.00000000000E+00  0.00000000000E+00  0.45593999997E+02  0.45594000000E+02  0.51100000000E-03 0.  1.
         11   -1    0    0    0    0 -0.00000000000E+00 -0.00000000000E+00 -0.45593999997E+02  0.45594000000E+02  0.51100000000E-03 0. -1.
    9900012    2    1    2    0    0 -0.23801521822E+02 -0.34643691088E+02 -0.10813216513E+02  0.47787269308E+02  0.19999992083E+02 0.  0.
         12    1    1    2    0    0  0.23801521822E+02  0.34643691088E+02  0.10813216513E+02  0.43400730692E+02  0.00000000000E+00 0. -1.
         11    1    3    3    0    0 -0.10673458797E+01  0.14466948026E+01 -0.74335563209E+00  0.19454384944E+01  0.51100000000E-03 0. -1.
        -11    1    3    3    0    0 -0.18727817249E+02 -0.31714635652E+02 -0.35118076418E+01  0.36998406001E+02  0.51100000000E-03 0.  1.
        -12    1    3    3    0    0 -0.40063586936E+01 -0.43757502385E+01 -0.65580532390E+01  0.88434248127E+01  0.00000000000E+00 0.  1.
</event>
<event>
 7    1  0.2812635E-010  0.4778727E+02  0.7816164E-02  0.1312668E+00
        -11   -1    0    0    0    0  0.00000000000E+00  0.00000000000E+00  0.45593999997E+02  0.45594000000E+02  0.51100000000E-03 0.  1.
         11   -1    0    0    0    0 -0.00000000000E+00 -0.00000000000E+00 -0.45593999997E+02  0.45594000000E+02  0.51100000000E-03 0. -1.
    9900012    2    1    2    0    0  0.28932291993E+02  0.29687330783E+02  0.12853333797E+02  0.47787270528E+02  0.19999997647E+02 0.  0.
         12    1    1    2    0    0 -0.28932291993E+02 -0.29687330783E+02 -0.12853333797E+02  0.43400729472E+02  0.00000000000E+00 0. -1.
         11    1    3    3    0    0  0.40862234583E+01  0.14062532845E+02  0.38126831634E+01  0.15132369455E+02  0.51100000000E-03 0. -1.
        -11    1    3    3    0    0  0.77323108856E+01  0.46900131508E+01 -0.23849037451E+01  0.93526798897E+01  0.51100000000E-03 0.  1.
        -12    1    3    3    0    0  0.17113757649E+02  0.10934784787E+02  0.11425554379E+02  0.23302221183E+02  0.00000000000E+00 0.  1.
</event>
<event>
 7    1  0.2812635E-010  0.4778727E+02  0.7816164E-02  0.1312668E+00
        -11   -1    0    0    0    0  0.00000000000E+00  0.00000000000E+00  0.45593999997E+02  0.45594000000E+02  0.51100000000E-03 0. -1.
         11   -1    0    0    0    0 -0.00000000000E+00 -0.00000000000E+00 -0.45593999997E+02  0.45594000000E+02  0.51100000000E-03 0.  1.
    9900012    2    1    2    0    0 -0.71642518733E+01 -0.25095788862E+02 -0.34677056881E+02  0.47787269621E+02  0.19999993510E+02 0.  0.
         12    1    1    2    0    0  0.71642518733E+01  0.25095788862E+02  0.34677056881E+02  0.43400730379E+02  0.00000000000E+00 0. -1.
         11    1    3    3    0    0  0.12927883961E+01 -0.31247178127E+01 -0.98829249577E+01  0.10445447297E+02  0.51100000000E-03 0. -1.
        -11    1    3    3    0    0 -0.21140835262E+01 -0.14020686191E+02 -0.22992232133E+02  0.27012806761E+02  0.51100000000E-03 0.  1.
        -12    1    3    3    0    0 -0.63429567433E+01 -0.79503848586E+01 -0.18018997901E+01  0.10329015563E+02  0.00000000000E+00 0.  1.
</event>
<event>
 7    1  0.2812635E-010  0.4778727E+02  0.7816164E-02  0.1312668E+00
        -11   -1    0    0    0    0  0.00000000000E+00  0.00000000000E+00  0.45593999997E+02  0.45594000000E+02  0.51100000000E-03 0.  1.
         11   -1    0    0    0    0 -0.00000000000E+00 -0.00000000000E+00 -0.45593999997E+02  0.45594000000E+02  0.51100000000E-03 0. -1.
    9900012    2    1    2    0    0  0.20844438048E+01 -0.18487128451E+02  0.39211026348E+02  0.47787269457E+02  0.19999992763E+02 0.  0.
         12    1    1    2    0    0 -0.20844438048E+01  0.18487128451E+02 -0.39211026348E+02  0.43400730543E+02  0.00000000000E+00 0. -1.
         11    1    3    3    0    0  0.52107469501E+01 -0.35210638582E+01  0.71267871334E+01  0.95047814060E+01  0.51100000000E-03 0. -1.
        -11    1    3    3    0    0 -0.75794974716E+01 -0.14363395305E+02  0.23108036318E+02  0.28244242765E+02  0.51100000000E-03 0.  1.
        -12    1    3    3    0    0  0.44531943264E+01 -0.60266928761E+00  0.89762028973E+01  0.10038245287E+02  0.00000000000E+00 0.  1.
</event>
<event>
 7    1  0.2812635E-010  0.4778727E+02  0.7816164E-02  0.1312668E+00
        -11   -1    0    0    0    0  0.00000000000E+00  0.00000000000E+00  0.45593999997E+02  0.45594000000E+02  0.51100000000E-03 0.  1.
         11   -1    0    0    0    0 -0.00000000000E+00 -0.00000000000E+00 -0.45593999997E+02  0.45594000000E+02  0.51100000000E-03 0. -1.
    9900012    2    1    2    0    0  0.11418999411E+02 -0.15303073694E+02  0.38974940630E+02  0.47787267182E+02  0.19999982392E+02 0.  0.
         12    1    1    2    0    0 -0.11418999411E+02  0.15303073694E+02 -0.38974940630E+02  0.43400732818E+02  0.00000000000E+00 0. -1.
         11    1    3    3    0    0 -0.13514306411E+01  0.13964637473E+01 -0.12777116682E+00  0.19475116193E+01  0.51100000000E-03 0. -1.
        -11    1    3    3    0    0  0.49965268003E+01 -0.13301235643E+02  0.31030908302E+02  0.34129245816E+02  0.51100000000E-03 0.  1.
         12    1    3    3    0    0  0.77739032514E+01 -0.33983017981E+01  0.80718034947E+01  0.11710509747E+02  0.00000000000E+00 0. -1.
</event>
<event>
 7    1  0.2812635E-010  0.4778727E+02  0.7816164E-02  0.1312668E+00
        -11   -1    0    0    0    0  0.00000000000E+00  0.00000000000E+00  0.45593999997E+02  0.45594000000E+02  0.51100000000E-03 0. -1.
         11   -1    0    0    0    0 -0.00000000000E+00 -0.00000000000E+00 -0.45593999997E+02  0.45594000000E+02  0.51100000000E-03 0.  1.
    9900012    2    1    2    0    0  0.41540911847E+01  0.43200544448E+02 -0.28219499412E+00  0.47787272493E+02  0.20000006603E+02 0.  0.
         12    1    1    2    0    0 -0.41540911847E+01 -0.43200544448E+02  0.28219499412E+00  0.43400727507E+02  0.00000000000E+00 0. -1.
         11    1    3    3    0    0 -0.13731664336E+01  0.33227957707E+02  0.89803243185E+00  0.33268441832E+02  0.51100000000E-03 0. -1.
        -11    1    3    3    0    0  0.37858831506E+01  0.11467010506E+02 -0.16149065437E+01  0.12183315008E+02  0.51100000000E-03 0.  1.
         12    1    3    3    0    0  0.17413744676E+01 -0.14944237654E+01  0.43467911776E+00  0.23355156524E+01  0.00000000000E+00 0. -1.
</event>
<event>
 7    1  0.2812635E-010  0.4778727E+02  0.7816164E-02  0.1312668E+00
        -11   -1    0    0    0    0  0.00000000000E+00  0.00000000000E+00  0.45593999997E+02  0.45594000000E+02  0.51100000000E-03 0. -1.
         11   -1    0    0    0    0 -0.00000000000E+00 -0.00000000000E+00 -0.45593999997E+02  0.45594000000E+02  0.51100000000E-03 0.  1.
    9900012    2    1    2    0    0 -0.24770028450E+02  0.34679534419E+02 -0.82096883900E+01  0.47787269587E+02  0.19999993354E+02 0.  0.
         12    1    1    2    0    0  0.24770028450E+02 -0.34679534419E+02  0.82096883900E+01  0.43400730413E+02  0.00000000000E+00 0. -1.
         11    1    3    3    0    0 -0.44195664151E+01  0.42456606398E+01 -0.87447838917E+01  0.10678457152E+02  0.51100000000E-03 0. -1.
        -11    1    3    3    0    0 -0.13007749227E+02  0.24163887689E+02  0.70990551256E+00  0.27451757217E+02  0.51100000000E-03 0.  1.
         12    1    3    3    0    0 -0.73427128071E+01  0.62699860904E+01 -0.17481001085E+00  0.96570552179E+01  0.00000000000E+00 0. -1.
</event>
<event>
 7    1  0.2812635E-010  0.4778727E+02  0.7816164E-02  0.1312668E+00
        -11   -1    0    0    0    0  0.00000000000E+00  0.00000000000E+00  0.45593999997E+02  0.45594000000E+02  0.51100000000E-03 0. -1.
         11   -1    0    0    0    0 -0.00000000000E+00 -0.00000000000E+00 -0.45593999997E+02  0.45594000000E+02  0.51100000000E-03 0.  1.
    9900012    2    1    2    0    0  0.41668118694E+02 -0.71181734907E+01 -0.98347770866E+01  0.47787270171E+02  0.19999996019E+02 0.  0.
         12    1    1    2    0    0 -0.41668118694E+02  0.71181734907E+01  0.98347770866E+01  0.43400729829E+02  0.00000000000E+00 0. -1.
         11    1    3    3    0    0 -0.86061616863E+00  0.50774999208E+00  0.75235137675E+00  0.12508009831E+01  0.51100000000E-03 0. -1.
        -11    1    3    3    0    0  0.33863301956E+02 -0.56511708034E+01 -0.13917583869E+02  0.37045351825E+02  0.51100000000E-03 0.  1.
        -12    1    3    3    0    0  0.86654329065E+01 -0.19747526794E+01  0.33304554054E+01  0.94911173636E+01  0.00000000000E+00 0.  1.
</event>
<event>
 7    1  0.2812635E-010  0.4778728E+02  0.7816164E-02  0.1312668E+00
        -11   -1    0    0    0    0  0.00000000000E+00  0.00000000000E+00  0.45593999997E+02  0.45594000000E+02  0.51100000000E-03 0.  1.
         11   -1    0    0    0    0 -0.00000000000E+00 -0.00000000000E+00 -0.45593999997E+02  0.45594000000E+02  0.51100000000E-03 0. -1.
    9900012    2    1    2    0    0 -0.36282562490E+01  0.26234496870E+02  0.34383272621E+02  0.47787279895E+02  0.20000040355E+02 0.  0.
         12    1    1    2    0    0  0.36282562490E+01 -0.26234496870E+02 -0.34383272621E+02  0.43400720105E+02  0.00000000000E+00 0. -1.
         11    1    3    3    0    0 -0.77149097134E+01  0.18346113172E+02  0.19827163557E+02  0.28092990503E+02  0.51100000000E-03 0. -1.
        -11    1    3    3    0    0  0.36968602391E+01  0.76825637000E+01  0.16029806850E+02  0.18156080760E+02  0.51100000000E-03 0.  1.
        -12    1    3    3    0    0  0.38979322531E+00  0.20581999790E+00 -0.14736977867E+01  0.15382086323E+01  0.00000000000E+00 0.  1.
</event>
<event>
 7    1  0.2812635E-010  0.4778727E+02  0.7816164E-02  0.1312668E+00
        -11   -1    0    0    0    0  0.00000000000E+00  0.00000000000E+00  0.45593999997E+02  0.45594000000E+02  0.51100000000E-03 0.  1.
         11   -1    0    0    0    0 -0.00000000000E+00 -0.00000000000E+00 -0.45593999997E+02  0.45594000000E+02  0.51100000000E-03 0. -1.
    9900012    2    1    2    0    0  0.31312406775E+01  0.14440524852E+02  0.40807964374E+02  0.47787269792E+02  0.19999994290E+02 0.  0.
         12    1    1    2    0    0 -0.31312406775E+01 -0.14440524852E+02 -0.40807964374E+02  0.43400730208E+02  0.00000000000E+00 0. -1.
         11    1    3    3    0    0 -0.33101141337E+01  0.38991828990E+00  0.81925449017E+01  0.88445850145E+01  0.51100000000E-03 0. -1.
        -11    1    3    3    0    0  0.84564721931E+01  0.16217733239E+02  0.27336453732E+02  0.32890857335E+02  0.51100000000E-03 0.  1.
        -12    1    3    3    0    0 -0.20151173818E+01 -0.21671266769E+01  0.52789657411E+01  0.60518274423E+01  0.00000000000E+00 0.  1.
</event>
<event>
 7    1  0.2812635E-010  0.4778727E+02  0.7816164E-02  0.1312668E+00
        -11   -1    0    0    0    0  0.00000000000E+00  0.00000000000E+00  0.45593999997E+02  0.45594000000E+02  0.51100000000E-03 0. -1.
         11   -1    0    0    0    0 -0.00000000000E+00 -0.00000000000E+00 -0.45593999997E+02  0.45594000000E+02  0.51100000000E-03 0.  1.
    9900012    2    1    2    0    0 -0.39353116130E+02  0.17233763623E+02 -0.61606021650E+01  0.47787269859E+02  0.19999994594E+02 0.  0.
         12    1    1    2    0    0  0.39353116130E+02 -0.17233763623E+02  0.61606021650E+01  0.43400730141E+02  0.00000000000E+00 0. -1.
         11    1    3    3    0    0 -0.12871530815E+00  0.17998288252E+00  0.10043802343E+01  0.10284655486E+01  0.51100000000E-03 0. -1.
        -11    1    3    3    0    0 -0.11877506108E+01 -0.27115170176E+01  0.99601355843E+00  0.31233186388E+01  0.51100000000E-03 0.  1.
        -12    1    3    3    0    0 -0.38036650211E+02  0.19765297758E+02 -0.81609959577E+01  0.43635485671E+02  0.00000000000E+00 0.  1.
</event>
<event>
 7    1  0.2812635E-010  0.4778727E+02  0.7816164E-02  0.1312668E+00
        -11   -1    0    0    0    0  0.00000000000E+00  0.00000000000E+00  0.45593999997E+02  0.45594000000E+02  0.51100000000E-03 0.  1.
         11   -1    0    0    0    0 -0.00000000000E+00 -0.00000000000E+00 -0.45593999997E+02  0.45594000000E+02  0.51100000000E-03 0. -1.
    9900012    2    1    2    0    0 -0.57630923222E+01  0.11103075303E+02  0.41558775844E+02  0.47787270007E+02  0.19999995269E+02 0.  0.
         12    1    1    2    0    0  0.57630923222E+01 -0.11103075303E+02 -0.41558775844E+02  0.43400729993E+02  0.00000000000E+00 0. -1.
         11    1    3    3    0    0  0.40258164786E+00  0.10783298948E+02  0.10839779975E+02  0.15295176964E+02  0.51100000000E-03 0. -1.
        -11    1    3    3    0    0 -0.73868765012E+01  0.27374196804E+01  0.22983513883E+02  0.24296117418E+02  0.51100000000E-03 0.  1.
        -12    1    3    3    0    0  0.12212025311E+01 -0.24176433258E+01  0.77354819865E+01  0.81959756244E+01  0.00000000000E+00 0.  1.
</event>
<event>
 7    1  0.2812635E-010  0.4778727E+02  0.7816164E-02  0.1312668E+00
        -11   -1    0    0    0    0  0.00000000000E+00  0.00000000000E+00  0.45593999997E+02  0.45594000000E+02  0.51100000000E-03 0.  1.
         11   -1    0    0    0    0 -0.00000000000E+00 -0.00000000000E+00 -0.45593999997E+02  0.45594000000E+02  0.51100000000E-03 0. -1.
    9900012    2    1    2    0    0 -0.35237659995E+02 -0.26009576832E+01  0.25202491669E+02  0.47787271330E+02  0.20000001301E+02 0.  0.
         12    1    1    2    0    0  0.35237659995E+02  0.26009576832E+01 -0.25202491669E+02  0.43400728670E+02  0.00000000000E+00 0. -1.
         11    1    3    3    0    0  0.76864185918E+00  0.21143408065E+00  0.11948942864E+00  0.80609717951E+00  0.51100000000E-03 0. -1.
        -11    1    3    3    0    0 -0.42891160984E+01  0.53059028574E+01  0.27836544505E+01  0.73687077835E+01  0.51100000000E-03 0.  1.
        -12    1    3    3    0    0 -0.31717185755E+02 -0.81182946212E+01  0.22299347790E+02  0.39612466367E+02  0.00000000000E+00 0.  1.
</event>
<event>
 7    1  0.2812635E-010  0.4778727E+02  0.7816164E-02  0.1312668E+00
        -11   -1    0    0    0    0  0.00000000000E+00  0.00000000000E+00  0.45593999997E+02  0.45594000000E+02  0.51100000000E-03 0.  1.
         11   -1    0    0    0    0 -0.00000000000E+00 -0.00000000000E+00 -0.45593999997E+02  0.45594000000E+02  0.51100000000E-03 0. -1.
    9900012    2    1    2    0    0  0.24725147873E+02 -0.26897292239E+02  0.23427032258E+02  0.47787272961E+02  0.20000008737E+02 0.  0.
         12    1    1    2    0    0 -0.24725147873E+02  0.26897292239E+02 -0.23427032258E+02  0.43400727039E+02  0.00000000000E+00 0. -1.
         11    1    3    3    0    0  0.19731533372E+02 -0.25504968965E+02  0.13411014584E+02  0.34924091450E+02  0.51100000000E-03 0. -1.
        -11    1    3    3    0    0  0.24541038315E+01  0.24036451453E+01  0.34822345576E+01  0.48914306062E+01  0.51100000000E-03 0.  1.
         12    1    3    3    0    0  0.25395106697E+01 -0.37959684185E+01  0.65337831164E+01  0.79717509048E+01  0.00000000000E+00 0. -1.
</event>
<event>
 7    1  0.2812635E-010  0.4778727E+02  0.7816164E-02  0.1312668E+00
        -11   -1    0    0    0    0  0.00000000000E+00  0.00000000000E+00  0.45593999997E+02  0.45594000000E+02  0.51100000000E-03 0. -1.
         11   -1    0    0    0    0 -0.00000000000E+00 -0.00000000000E+00 -0.45593999997E+02  0.45594000000E+02  0.51100000000E-03 0.  1.
    9900012    2    1    2    0    0 -0.40391932484E+02 -0.38493115771E+01 -0.15404473095E+02  0.47787271887E+02  0.20000003842E+02 0.  0.
         12    1    1    2    0    0  0.40391932484E+02  0.38493115771E+01  0.15404473095E+02  0.43400728113E+02  0.00000000000E+00 0. -1.
         11    1    3    3    0    0  0.48194156119E+00  0.17437636170E+01 -0.14438791097E+01  0.23146849386E+01  0.51100000000E-03 0.  1.
        -11    1    3    3    0    0 -0.27255459924E+02  0.56970906520E+00 -0.41068281133E+01  0.27569017057E+02  0.51100000000E-03 0. -1.
        -12    1    3    3    0    0 -0.13618414121E+02 -0.61627842593E+01 -0.98537658721E+01  0.17903569892E+02  0.00000000000E+00 0.  1.
</event>
<event>
 7    1  0.2812635E-010  0.4778726E+02  0.7816164E-02  0.1312668E+00
        -11   -1    0    0    0    0  0.00000000000E+00  0.00000000000E+00  0.45593999997E+02  0.45594000000E+02  0.51100000000E-03 0.  1.
         11   -1    0    0    0    0 -0.00000000000E+00 -0.00000000000E+00 -0.45593999997E+02  0.45594000000E+02  0.51100000000E-03 0. -1.
    9900012    2    1    2    0    0 -0.85279832597E+01  0.42534496643E+02 -0.13094126994E+01  0.47787257325E+02  0.19999937447E+02 0.  0.
         12    1    1    2    0    0  0.85279832597E+01 -0.42534496643E+02  0.13094126994E+01  0.43400742675E+02  0.00000000000E+00 0. -1.
         11    1    3    3    0    0  0.14488127260E+01  0.13776998049E+02 -0.71644658905E+01  0.15595970804E+02  0.51100000000E-03 0. -1.
        -11    1    3    3    0    0 -0.74820861032E+01  0.28088887328E+02  0.52501315029E+01  0.29538637153E+02  0.51100000000E-03 0.  1.
         12    1    3    3    0    0 -0.24947098824E+01  0.66861126552E+00  0.60492168817E+00  0.26526493682E+01  0.00000000000E+00 0. -1.
</event>
<event>
 7    1  0.2812635E-010  0.4778727E+02  0.7816164E-02  0.1312668E+00
        -11   -1    0    0    0    0  0.00000000000E+00  0.00000000000E+00  0.45593999997E+02  0.45594000000E+02  0.51100000000E-03 0. -1.
         11   -1    0    0    0    0 -0.00000000000E+00 -0.00000000000E+00 -0.45593999997E+02  0.45594000000E+02  0.51100000000E-03 0.  1.
    9900012    2    1    2    0    0 -0.18439476240E+02 -0.14622626934E+02 -0.36466251297E+02  0.47787274360E+02  0.20000015116E+02 0.  0.
         12    1    1    2    0    0  0.18439476240E+02  0.14622626934E+02  0.36466251297E+02  0.43400725640E+02  0.00000000000E+00 0. -1.
         11    1    3    3    0    0 -0.34148880878E+01 -0.24562307883E+01  0.13379742014E+01  0.44141483394E+01  0.51100000000E-03 0.  1.
        -11    1    3    3    0    0 -0.10529169772E+02 -0.31552264175E+01 -0.16749715476E+02  0.20034266611E+02  0.51100000000E-03 0. -1.
         12    1    3    3    0    0 -0.44954183801E+01 -0.90111697277E+01 -0.21054510022E+02  0.23338859410E+02  0.00000000000E+00 0. -1.
</event>
<event>
 7    1  0.2812635E-010  0.4778727E+02  0.7816164E-02  0.1312668E+00
        -11   -1    0    0    0    0  0.00000000000E+00  0.00000000000E+00  0.45593999997E+02  0.45594000000E+02  0.51100000000E-03 0.  1.
         11   -1    0    0    0    0 -0.00000000000E+00 -0.00000000000E+00 -0.45593999997E+02  0.45594000000E+02  0.51100000000E-03 0. -1.
    9900012    2    1    2    0    0  0.33393676643E+02  0.92568578811E+01  0.26130370283E+02  0.47787270643E+02  0.19999998171E+02 0.  0.
         12    1    1    2    0    0 -0.33393676643E+02 -0.92568578811E+01 -0.26130370283E+02  0.43400729357E+02  0.00000000000E+00 0. -1.
         11    1    3    3    0    0  0.10843595636E+02 -0.14890272139E+00 -0.14434331901E+01  0.10940257674E+02  0.51100000000E-03 0. -1.
        -11    1    3    3    0    0  0.17158283342E+02  0.73265785811E+01  0.20712198550E+02  0.27876165625E+02  0.51100000000E-03 0.  1.
         12    1    3    3    0    0  0.53917976645E+01  0.20791820214E+01  0.68616049235E+01  0.89708473434E+01  0.00000000000E+00 0. -1.
</event>
<event>
 7    1  0.2812635E-010  0.4778728E+02  0.7816164E-02  0.1312668E+00
        -11   -1    0    0    0    0  0.00000000000E+00  0.00000000000E+00  0.45593999997E+02  0.45594000000E+02  0.51100000000E-03 0. -1.
         11   -1    0    0    0    0 -0.00000000000E+00 -0.00000000000E+00 -0.45593999997E+02  0.45594000000E+02  0.51100000000E-03 0.  1.
    9900012    2    1    2    0    0  0.15677644465E+02 -0.24604502799E+02 -0.32131797221E+02  0.47787280114E+02  0.20000041351E+02 0.  0.
         12    1    1    2    0    0 -0.15677644465E+02  0.24604502799E+02  0.32131797221E+02  0.43400719886E+02  0.00000000000E+00 0. -1.
         11    1    3    3    0    0  0.12768519377E+02 -0.82874304575E+01 -0.10875201014E+02  0.18707928480E+02  0.51100000000E-03 0. -1.
        -11    1    3    3    0    0  0.30931032479E+01 -0.16502640844E+02 -0.22350644052E+02  0.27954529728E+02  0.51100000000E-03 0.  1.
        -12    1    3    3    0    0 -0.18397816019E+00  0.18556850213E+00  0.10940478446E+01  0.11248219053E+01  0.00000000000E+00 0.  1.
</event>
<event>
 7    1  0.2812635E-010  0.4778727E+02  0.7816164E-02  0.1312668E+00
        -11   -1    0    0    0    0  0.00000000000E+00  0.00000000000E+00  0.45593999997E+02  0.45594000000E+02  0.51100000000E-03 0.  1.
         11   -1    0    0    0    0 -0.00000000000E+00 -0.00000000000E+00 -0.45593999997E+02  0.45594000000E+02  0.51100000000E-03 0. -1.
    9900012    2    1    2    0    0 -0.10535597723E+01  0.21362560097E+02  0.37764458402E+02  0.47787270968E+02  0.19999999652E+02 0.  0.
         12    1    1    2    0    0  0.10535597723E+01 -0.21362560097E+02 -0.37764458402E+02  0.43400729032E+02  0.00000000000E+00 0. -1.
         11    1    3    3    0    0 -0.15754721359E+01  0.49519205277E-01  0.47706912068E+00  0.16468636281E+01  0.51100000000E-03 0. -1.
        -11    1    3    3    0    0  0.79297304420E+01  0.54451645216E+01  0.11956820592E+02  0.15345878941E+02  0.51100000000E-03 0.  1.
        -12    1    3    3    0    0 -0.74078180784E+01  0.15867876370E+02  0.25330568689E+02  0.30794528399E+02  0.00000000000E+00 0.  1.
</event>
<event>
 7    1  0.2812635E-010  0.4778727E+02  0.7816164E-02  0.1312668E+00
        -11   -1    0    0    0    0  0.00000000000E+00  0.00000000000E+00  0.45593999997E+02  0.45594000000E+02  0.51100000000E-03 0.  1.
         11   -1    0    0    0    0 -0.00000000000E+00 -0.00000000000E+00 -0.45593999997E+02  0.45594000000E+02  0.51100000000E-03 0. -1.
    9900012    2    1    2    0    0  0.35712490917E+02 -0.25477732135E+01  0.24530605463E+02  0.47787265441E+02  0.19999974453E+02 0.  0.
         12    1    1    2    0    0 -0.35712490917E+02  0.25477732135E+01 -0.24530605463E+02  0.43400734559E+02  0.00000000000E+00 0. -1.
         11    1    3    3    0    0  0.47628208428E+01 -0.30022622516E+01 -0.62994778860E+00  0.56652339303E+01  0.51100000000E-03 0. -1.
        -11    1    3    3    0    0  0.18324523338E+02  0.57252293661E+01  0.19350752478E+02  0.27258357041E+02  0.51100000000E-03 0.  1.
         12    1    3    3    0    0  0.12625146736E+02 -0.52707403281E+01  0.58098007739E+01  0.14863674470E+02  0.00000000000E+00 0. -1.
</event>
<event>
 7    1  0.2812635E-010  0.4778727E+02  0.7816164E-02  0.1312668E+00
        -11   -1    0    0    0    0  0.00000000000E+00  0.00000000000E+00  0.45593999997E+02  0.45594000000E+02  0.51100000000E-03 0.  1.
         11   -1    0    0    0    0 -0.00000000000E+00 -0.00000000000E+00 -0.45593999997E+02  0.45594000000E+02  0.51100000000E-03 0. -1.
    9900012    2    1    2    0    0  0.26399461707E+02  0.29136933729E+02  0.18377460910E+02  0.47787267805E+02  0.19999985231E+02 0.  0.
         12    1    1    2    0    0 -0.26399461707E+02 -0.29136933729E+02 -0.18377460910E+02  0.43400732195E+02  0.00000000000E+00 0. -1.
         11    1    3    3    0    0  0.13189661066E+02  0.19581795897E+02  0.17167991497E+02  0.29191673846E+02  0.51100000000E-03 0.  1.
        -11    1    3    3    0    0  0.82126547428E+01  0.24444386474E+01  0.40153551825E+01  0.94628777721E+01  0.51100000000E-03 0. -1.
         12    1    3    3    0    0  0.49971458977E+01  0.71106991843E+01 -0.28058857693E+01  0.91327161876E+01  0.00000000000E+00 0. -1.
</event>
<event>
 7    1  0.2812635E-010  0.4778727E+02  0.7816164E-02  0.1312668E+00
        -11   -1    0    0    0    0  0.00000000000E+00  0.00000000000E+00  0.45593999997E+02  0.45594000000E+02  0.51100000000E-03 0.  1.
         11   -1    0    0    0    0 -0.00000000000E+00 -0.00000000000E+00 -0.45593999997E+02  0.45594000000E+02  0.51100000000E-03 0. -1.
    9900012    2    1    2    0    0  0.21939408206E+02  0.36456948871E+02  0.85543308764E+01  0.47787270395E+02  0.19999997041E+02 0.  0.
         12    1    1    2    0    0 -0.21939408206E+02 -0.36456948871E+02 -0.85543308764E+01  0.43400729605E+02  0.00000000000E+00 0. -1.
         11    1    3    3    0    0 -0.26361375650E+01  0.11258904179E+02  0.31315081955E+01  0.11979920218E+02  0.51100000000E-03 0. -1.
        -11    1    3    3    0    0  0.18252998650E+02  0.16259135588E+02  0.38677992675E+01  0.24748562003E+02  0.51100000000E-03 0.  1.
         12    1    3    3    0    0  0.63225471212E+01  0.89389091044E+01  0.15550234134E+01  0.11058788175E+02  0.00000000000E+00 0. -1.
</event>
<event>
 7    1  0.2812635E-010  0.4778723E+02  0.7816164E-02  0.1312668E+00
        -11   -1    0    0    0    0  0.00000000000E+00  0.00000000000E+00  0.45593999997E+02  0.45594000000E+02  0.51100000000E-03 0.  1.
         11   -1    0    0    0    0 -0.00000000000E+00 -0.00000000000E+00 -0.45593999997E+02  0.45594000000E+02  0.51100000000E-03 0. -1.
    9900012    2    1    2    0    0 -0.30303767537E+02 -0.53948683937E+01  0.30597446632E+02  0.47787231892E+02  0.19999821489E+02 0.  0.
         12    1    1    2    0    0  0.30303767537E+02  0.53948683937E+01 -0.30597446632E+02  0.43400768108E+02  0.00000000000E+00 0. -1.
         11    1    3    3    0    0 -0.10569980827E+02 -0.52515579186E+01  0.78696870370E+00  0.11828891548E+02  0.51100000000E-03 0. -1.
        -11    1    3    3    0    0 -0.15475650431E+02 -0.16569187843E+01  0.22334769679E+02  0.27222841016E+02  0.51100000000E-03 0.  1.
         12    1    3    3    0    0 -0.42581362802E+01  0.15136083092E+01  0.74757082487E+01  0.87354993283E+01  0.00000000000E+00 0. -1.
</event>
<event>
 7    1  0.2812635E-010  0.4778727E+02  0.7816164E-02  0.1312668E+00
        -11   -1    0    0    0    0  0.00000000000E+00  0.00000000000E+00  0.45593999997E+02  0.45594000000E+02  0.51100000000E-03 0.  1.
         11   -1    0    0    0    0 -0.00000000000E+00 -0.00000000000E+00 -0.45593999997E+02  0.45594000000E+02  0.51100000000E-03 0. -1.
    9900012    2    1    2    0    0  0.39595818160E+02 -0.25750945055E+00  0.17768736985E+02  0.47787272577E+02  0.20000006986E+02 0.  0.
         12    1    1    2    0    0 -0.39595818160E+02  0.25750945055E+00 -0.17768736985E+02  0.43400727423E+02  0.00000000000E+00 0. -1.
         11    1    3    3    0    0  0.22224309213E+02  0.15860682858E+00  0.99336242384E+00  0.22247063745E+02  0.51100000000E-03 0. -1.
        -11    1    3    3    0    0  0.15999130192E+02  0.23402840983E+01  0.13785021958E+02  0.21247962895E+02  0.51100000000E-03 0.  1.
         12    1    3    3    0    0  0.13723787549E+01 -0.27564003774E+01  0.29903526028E+01  0.42922459362E+01  0.00000000000E+00 0. -1.
</event>
<event>
 7    1  0.2812635E-010  0.4778727E+02  0.7816164E-02  0.1312668E+00
        -11   -1    0    0    0    0  0.00000000000E+00  0.00000000000E+00  0.45593999997E+02  0.45594000000E+02  0.51100000000E-03 0.  1.
         11   -1    0    0    0    0 -0.00000000000E+00 -0.00000000000E+00 -0.45593999997E+02  0.45594000000E+02  0.51100000000E-03 0. -1.
    9900012    2    1    2    0    0  0.41504293399E+02  0.66155789460E+01 -0.10828252648E+02  0.47787270619E+02  0.19999998062E+02 0.  0.
         12    1    1    2    0    0 -0.41504293399E+02 -0.66155789460E+01  0.10828252648E+02  0.43400729381E+02  0.00000000000E+00 0. -1.
         11    1    3    3    0    0  0.57485917058E+01 -0.16734404092E+01 -0.74586375968E+01  0.95644123951E+01  0.51100000000E-03 0. -1.
        -11    1    3    3    0    0  0.28419015758E+02  0.68498699440E+01 -0.67744427002E+01  0.30007569863E+02  0.51100000000E-03 0.  1.
         12    1    3    3    0    0  0.73366859350E+01  0.14391494112E+01  0.34048276491E+01  0.82152883612E+01  0.00000000000E+00 0. -1.
</event>
<event>
 7    1  0.2812635E-010  0.4778727E+02  0.7816164E-02  0.1312668E+00
        -11   -1    0    0    0    0  0.00000000000E+00  0.00000000000E+00  0.45593999997E+02  0.45594000000E+02  0.51100000000E-03 0.  1.
         11   -1    0    0    0    0 -0.00000000000E+00 -0.00000000000E+00 -0.45593999997E+02  0.45594000000E+02  0.51100000000E-03 0. -1.
    9900012    2    1    2    0    0 -0.17388191574E+02  0.10489592692E+02  0.38356777787E+02  0.47787272318E+02  0.20000005808E+02 0.  0.
         12    1    1    2    0    0  0.17388191574E+02 -0.10489592692E+02 -0.38356777787E+02  0.43400727682E+02  0.00000000000E+00 0. -1.
         11    1    3    3    0    0 -0.13911927514E+02  0.10455930648E+02  0.15629509180E+02  0.23391232767E+02  0.51100000000E-03 0. -1.
        -11    1    3    3    0    0 -0.53467191146E+01  0.78782063703E+00  0.21167354121E+02  0.21846394380E+02  0.51100000000E-03 0.  1.
        -12    1    3    3    0    0  0.18704550552E+01 -0.75415859293E+00  0.15599144861E+01  0.25496451715E+01  0.00000000000E+00 0.  1.
</event>
<event>
 7    1  0.2812635E-010  0.4778727E+02  0.7816164E-02  0.1312668E+00
        -11   -1    0    0    0    0  0.00000000000E+00  0.00000000000E+00  0.45593999997E+02  0.45594000000E+02  0.51100000000E-03 0.  1.
         11   -1    0    0    0    0 -0.00000000000E+00 -0.00000000000E+00 -0.45593999997E+02  0.45594000000E+02  0.51100000000E-03 0. -1.
    9900012    2    1    2    0    0  0.22861928479E+02  0.33780604871E+02 -0.14826534853E+02  0.47787272184E+02  0.20000005194E+02 0.  0.
         12    1    1    2    0    0 -0.22861928479E+02 -0.33780604871E+02  0.14826534853E+02  0.43400727816E+02  0.00000000000E+00 0. -1.
         11    1    3    3    0    0  0.63508753436E+01  0.12438019762E+02 -0.10734517924E+02  0.17614421040E+02  0.51100000000E-03 0. -1.
        -11    1    3    3    0    0  0.97102427590E+01  0.18059473517E+02  0.18158143179E+01  0.20584717147E+02  0.51100000000E-03 0.  1.
        -12    1    3    3    0    0  0.68008103763E+01  0.32831115924E+01 -0.59078312462E+01  0.95881339966E+01  0.00000000000E+00 0.  1.
</event>
<event>
 7    1  0.2812635E-010  0.4778727E+02  0.7816164E-02  0.1312668E+00
        -11   -1    0    0    0    0  0.00000000000E+00  0.00000000000E+00  0.45593999997E+02  0.45594000000E+02  0.51100000000E-03 0. -1.
         11   -1    0    0    0    0 -0.00000000000E+00 -0.00000000000E+00 -0.45593999997E+02  0.45594000000E+02  0.51100000000E-03 0.  1.
    9900012    2    1    2    0    0 -0.37930181794E+02 -0.20087883739E+02 -0.64344402020E+01  0.47787265159E+02  0.19999973166E+02 0.  0.
         12    1    1    2    0    0  0.37930181794E+02  0.20087883739E+02  0.64344402020E+01  0.43400734841E+02  0.00000000000E+00 0. -1.
         11    1    3    3    0    0 -0.44229762339E+00 -0.42715406871E+01  0.26379225021E+01  0.50398732541E+01  0.51100000000E-03 0. -1.
        -11    1    3    3    0    0 -0.16212841481E+01 -0.28000261183E+01  0.80504487289E+00  0.33341874663E+01  0.51100000000E-03 0.  1.
         12    1    3    3    0    0 -0.35866600022E+02 -0.13016316934E+02 -0.98774075769E+01  0.39413204439E+02  0.00000000000E+00 0. -1.
</event>
<event>
 7    1  0.2812635E-010  0.4778727E+02  0.7816164E-02  0.1312668E+00
        -11   -1    0    0    0    0  0.00000000000E+00  0.00000000000E+00  0.45593999997E+02  0.45594000000E+02  0.51100000000E-03 0.  1.
         11   -1    0    0    0    0 -0.00000000000E+00 -0.00000000000E+00 -0.45593999997E+02  0.45594000000E+02  0.51100000000E-03 0. -1.
    9900012    2    1    2    0    0  0.13426998853E+02 -0.62380336931E+01  0.40797376371E+02  0.47787270959E+02  0.19999999609E+02 0.  0.
         12    1    1    2    0    0 -0.13426998853E+02  0.62380336931E+01 -0.40797376371E+02  0.43400729041E+02  0.00000000000E+00 0. -1.
         11    1    3    3    0    0  0.84969717213E+01  0.16157401917E+01  0.99635126044E+01  0.13193965608E+02  0.51100000000E-03 0. -1.
        -11    1    3    3    0    0  0.55239050877E+01 -0.10772289633E+02  0.27897159513E+02  0.30410643869E+02  0.51100000000E-03 0.  1.
        -12    1    3    3    0    0 -0.59387795607E+00  0.29185157478E+01  0.29367042536E+01  0.41826614817E+01  0.00000000000E+00 0.  1.
</event>
<event>
 7    1  0.2812635E-010  0.4778727E+02  0.7816164E-02  0.1312668E+00
        -11   -1    0    0    0    0  0.00000000000E+00  0.00000000000E+00  0.45593999997E+02  0.45594000000E+02  0.51100000000E-03 0.  1.
         11   -1    0    0    0    0 -0.00000000000E+00 -0.00000000000E+00 -0.45593999997E+02  0.45594000000E+02  0.51100000000E-03 0. -1.
    9900012    2    1    2    0    0 -0.75964208584E+01  0.25228756760E+02  0.34488079379E+02  0.47787269629E+02  0.19999993545E+02 0.  0.
         12    1    1    2    0    0  0.75964208584E+01 -0.25228756760E+02 -0.34488079379E+02  0.43400730371E+02  0.00000000000E+00 0. -1.
         11    1    3    3    0    0 -0.98174476733E+01  0.10621062155E+02  0.10582797829E+02  0.17921630793E+02  0.51100000000E-03 0.  1.
        -11    1    3    3    0    0 -0.18165924530E+00  0.14423994695E+01 -0.87910654201E+00  0.16989246259E+01  0.51100000000E-03 0. -1.
         12    1    3    3    0    0  0.24026860602E+01  0.13165295135E+02  0.24784388092E+02  0.28166714210E+02  0.00000000000E+00 0. -1.
</event>
<event>
 7    1  0.2812635E-010  0.4778727E+02  0.7816164E-02  0.1312668E+00
        -11   -1    0    0    0    0  0.00000000000E+00  0.00000000000E+00  0.45593999997E+02  0.45594000000E+02  0.51100000000E-03 0. -1.
         11   -1    0    0    0    0 -0.00000000000E+00 -0.00000000000E+00 -0.45593999997E+02  0.45594000000E+02  0.51100000000E-03 0.  1.
    9900012    2    1    2    0    0 -0.21702206785E+02 -0.37573668870E+02  0.92572991576E+00  0.47787270195E+02  0.19999996129E+02 0.  0.
         12    1    1    2    0    0  0.21702206785E+02  0.37573668870E+02 -0.92572991576E+00  0.43400729805E+02  0.00000000000E+00 0. -1.
         11    1    3    3    0    0 -0.87980028147E+01 -0.11017298679E+02 -0.72392645623E+01  0.15849059132E+02  0.51100000000E-03 0. -1.
        -11    1    3    3    0    0 -0.38135417532E+01 -0.15574599578E+02  0.74044226107E+01  0.17661730583E+02  0.51100000000E-03 0.  1.
         12    1    3    3    0    0 -0.90906622169E+01 -0.10981770613E+02  0.76057186738E+00  0.14276480480E+02  0.00000000000E+00 0. -1.
</event>
<event>
 7    1  0.2812635E-010  0.4778728E+02  0.7816164E-02  0.1312668E+00
        -11   -1    0    0    0    0  0.00000000000E+00  0.00000000000E+00  0.45593999997E+02  0.45594000000E+02  0.51100000000E-03 0.  1.
         11   -1    0    0    0    0 -0.00000000000E+00 -0.00000000000E+00 -0.45593999997E+02  0.45594000000E+02  0.51100000000E-03 0. -1.
    9900012    2    1    2    0    0 -0.86316626664E+01  0.17038815838E+02  0.38971728441E+02  0.47787280384E+02  0.20000042583E+02 0.  0.
         12    1    1    2    0    0  0.86316626664E+01 -0.17038815838E+02 -0.38971728441E+02  0.43400719616E+02  0.00000000000E+00 0. -1.
         11    1    3    3    0    0  0.24903521657E+01 -0.95613506069E-01  0.68083500089E+00  0.25835116433E+01  0.51100000000E-03 0. -1.
        -11    1    3    3    0    0 -0.63844928415E+01  0.17288333103E+02  0.34577854526E+02  0.39182601167E+02  0.51100000000E-03 0.  1.
        -12    1    3    3    0    0 -0.47375219907E+01 -0.15390375906E+00  0.37130389132E+01  0.60211675736E+01  0.00000000000E+00 0.  1.
</event>
<event>
 7    1  0.2812635E-010  0.4778727E+02  0.7816164E-02  0.1312668E+00
        -11   -1    0    0    0    0  0.00000000000E+00  0.00000000000E+00  0.45593999997E+02  0.45594000000E+02  0.51100000000E-03 0. -1.
         11   -1    0    0    0    0 -0.00000000000E+00 -0.00000000000E+00 -0.45593999997E+02  0.45594000000E+02  0.51100000000E-03 0.  1.
    9900012    2    1    2    0    0  0.29740967136E+02 -0.31517843922E+02  0.23924279525E+01  0.47787270476E+02  0.19999997411E+02 0.  0.
         12    1    1    2    0    0 -0.29740967136E+02  0.31517843922E+02 -0.23924279525E+01  0.43400729524E+02  0.00000000000E+00 0. -1.
         11    1    3    3    0    0  0.21586688931E+01  0.15696831679E+00  0.16591504711E+01  0.27271360416E+01  0.51100000000E-03 0. -1.
        -11    1    3    3    0    0  0.99949148523E+01 -0.93170939043E+01  0.78213306357E+01  0.15744198135E+02  0.51100000000E-03 0.  1.
        -12    1    3    3    0    0  0.17587383390E+02 -0.22357718335E+02 -0.70880531543E+01  0.29315936300E+02  0.00000000000E+00 0.  1.
</event>
<event>
 7    1  0.2812635E-010  0.4778727E+02  0.7816164E-02  0.1312668E+00
        -11   -1    0    0    0    0  0.00000000000E+00  0.00000000000E+00  0.45593999997E+02  0.45594000000E+02  0.51100000000E-03 0.  1.
         11   -1    0    0    0    0 -0.00000000000E+00 -0.00000000000E+00 -0.45593999997E+02  0.45594000000E+02  0.51100000000E-03 0. -1.
    9900012    2    1    2    0    0 -0.11509489471E+02  0.39502000135E+02 -0.13811122780E+02  0.47787268728E+02  0.19999989437E+02 0.  0.
         12    1    1    2    0    0  0.11509489471E+02 -0.39502000135E+02  0.13811122780E+02  0.43400731272E+02  0.00000000000E+00 0. -1.
         11    1    3    3    0    0  0.33812782863E+01  0.22368911140E+01 -0.51261844765E+01  0.65356325059E+01  0.51100000000E-03 0. -1.
        -11    1    3    3    0    0 -0.10487349259E+02  0.30397558053E+02 -0.65016899363E+01  0.32806523777E+02  0.51100000000E-03 0.  1.
         12    1    3    3    0    0 -0.44034184988E+01  0.68675509678E+01 -0.21832483671E+01  0.84451124447E+01  0.00000000000E+00 0. -1.
</event>
<event>
 7    1  0.2812635E-010  0.4778727E+02  0.7816164E-02  0.1312668E+00
        -11   -1    0    0    0    0  0.00000000000E+00  0.00000000000E+00  0.45593999997E+02  0.45594000000E+02  0.51100000000E-03 0.  1.
         11   -1    0    0    0    0 -0.00000000000E+00 -0.00000000000E+00 -0.45593999997E+02  0.45594000000E+02  0.51100000000E-03 0. -1.
    9900012    2    1    2    0    0 -0.35787765665E+02  0.20647300305E+02 -0.13287156565E+02  0.47787266011E+02  0.19999977051E+02 0.  0.
         12    1    1    2    0    0  0.35787765665E+02 -0.20647300305E+02  0.13287156565E+02  0.43400733989E+02  0.00000000000E+00 0. -1.
         11    1    3    3    0    0 -0.70093936788E+01  0.42873208101E-01 -0.14644453589E+01  0.71608685455E+01  0.51100000000E-03 0. -1.
        -11    1    3    3    0    0 -0.26733048002E+00 -0.22881496748E+01 -0.68594654347E+00  0.24036674981E+01  0.51100000000E-03 0.  1.
        -12    1    3    3    0    0 -0.28511041506E+02  0.22892576772E+02 -0.11136764662E+02  0.38222729968E+02  0.00000000000E+00 0.  1.
</event>
<event>
 7    1  0.2812635E-010  0.4778727E+02  0.7816164E-02  0.1312668E+00
        -11   -1    0    0    0    0  0.00000000000E+00  0.00000000000E+00  0.45593999997E+02  0.45594000000E+02  0.51100000000E-03 0.  1.
         11   -1    0    0    0    0 -0.00000000000E+00 -0.00000000000E+00 -0.45593999997E+02  0.45594000000E+02  0.51100000000E-03 0. -1.
    9900012    2    1    2    0    0  0.26034628308E+01  0.10281202923E+02  0.42084937249E+02  0.47787273100E+02  0.20000009370E+02 0.  0.
         12    1    1    2    0    0 -0.26034628308E+01 -0.10281202923E+02 -0.42084937249E+02  0.43400726900E+02  0.00000000000E+00 0. -1.
         11    1    3    3    0    0 -0.38284537798E+01  0.92602766281E+01  0.23672712253E+02  0.25706168272E+02  0.51100000000E-03 0. -1.
        -11    1    3    3    0    0 -0.17572542706E+01  0.32532601881E+01  0.53551304608E+01  0.65076160717E+01  0.51100000000E-03 0.  1.
         12    1    3    3    0    0  0.81891708811E+01 -0.22323338928E+01  0.13057094535E+02  0.15573488756E+02  0.00000000000E+00 0. -1.
</event>
<event>
 7    1  0.2812635E-010  0.4778727E+02  0.7816164E-02  0.1312668E+00
        -11   -1    0    0    0    0  0.00000000000E+00  0.00000000000E+00  0.45593999997E+02  0.45594000000E+02  0.51100000000E-03 0.  1.
         11   -1    0    0    0    0 -0.00000000000E+00 -0.00000000000E+00 -0.45593999997E+02  0.45594000000E+02  0.51100000000E-03 0. -1.
    9900012    2    1    2    0    0  0.19499851668E+01  0.10180299696E+02  0.42144775473E+02  0.47787273696E+02  0.20000012089E+02 0.  0.
         12    1    1    2    0    0 -0.19499851668E+01 -0.10180299696E+02 -0.42144775473E+02  0.43400726304E+02  0.00000000000E+00 0. -1.
         11    1    3    3    0    0 -0.13260465181E+01 -0.33206787789E+01  0.15790905107E+01  0.39088149128E+01  0.51100000000E-03 0. -1.
        -11    1    3    3    0    0  0.64402112258E+01  0.91095983972E+01  0.29997095353E+02  0.32004481459E+02  0.51100000000E-03 0.  1.
        -12    1    3    3    0    0 -0.31641795409E+01  0.43913800775E+01  0.10568589609E+02  0.11873977324E+02  0.00000000000E+00 0.  1.
</event>
<event>
 7    1  0.2812635E-010  0.4778727E+02  0.7816164E-02  0.1312668E+00
        -11   -1    0    0    0    0  0.00000000000E+00  0.00000000000E+00  0.45593999997E+02  0.45594000000E+02  0.51100000000E-03 0. -1.
         11   -1    0    0    0    0 -0.00000000000E+00 -0.00000000000E+00 -0.45593999997E+02  0.45594000000E+02  0.51100000000E-03 0.  1.
    9900012    2    1    2    0    0 -0.16114786547E+02  0.33216334894E+02 -0.22816919586E+02  0.47787273408E+02  0.20000010778E+02 0.  0.
         12    1    1    2    0    0  0.16114786547E+02 -0.33216334894E+02  0.22816919586E+02  0.43400726592E+02  0.00000000000E+00 0. -1.
         11    1    3    3    0    0 -0.26847587382E+01  0.18484424369E+02 -0.56769263718E+01  0.19522022616E+02  0.51100000000E-03 0. -1.
        -11    1    3    3    0    0 -0.49092852366E+01  0.12374991014E+02 -0.79167074959E+01  0.15489213730E+02  0.51100000000E-03 0.  1.
         12    1    3    3    0    0 -0.85207425726E+01  0.23569195112E+01 -0.92232857186E+01  0.12776037062E+02  0.00000000000E+00 0. -1.
</event>
<event>
 7    1  0.2812635E-010  0.4778727E+02  0.7816164E-02  0.1312668E+00
        -11   -1    0    0    0    0  0.00000000000E+00  0.00000000000E+00  0.45593999997E+02  0.45594000000E+02  0.51100000000E-03 0.  1.
         11   -1    0    0    0    0 -0.00000000000E+00 -0.00000000000E+00 -0.45593999997E+02  0.45594000000E+02  0.51100000000E-03 0. -1.
    9900012    2    1    2    0    0  0.21238908584E+01  0.35449792041E+02  0.24948441515E+02  0.47787269567E+02  0.19999993262E+02 0.  0.
         12    1    1    2    0    0 -0.21238908584E+01 -0.35449792041E+02 -0.24948441515E+02  0.43400730433E+02  0.00000000000E+00 0. -1.
         11    1    3    3    0    0 -0.22476602345E+01 -0.15590975567E+01  0.19815027275E+01  0.33777381546E+01  0.51100000000E-03 0. -1.
        -11    1    3    3    0    0  0.34626592700E+01  0.24340675040E+02  0.10911562416E+02  0.26898339451E+02  0.51100000000E-03 0.  1.
        -12    1    3    3    0    0  0.90889182293E+00  0.12668214558E+02  0.12055376372E+02  0.17511191961E+02  0.00000000000E+00 0.  1.
</event>
<event>
 7    1  0.5631858E-010  0.4778727E+02  0.7816164E-02  0.1312668E+00
        -11   -1    0    0    0    0  0.00000000000E+00  0.00000000000E+00  0.45593999997E+02  0.45594000000E+02  0.51100000000E-03 0.  1.
         11   -1    0    0    0    0 -0.00000000000E+00 -0.00000000000E+00 -0.45593999997E+02  0.45594000000E+02  0.51100000000E-03 0. -1.
    9900012    2    1    2    0    0  0.34771425949E+02 -0.98572599800E+01 -0.24029265219E+02  0.47787271621E+02  0.20000002630E+02 0.  0.
         12    1    1    2    0    0 -0.34771425949E+02  0.98572599800E+01  0.24029265219E+02  0.43400728379E+02  0.00000000000E+00 0. -1.
         11    1    3    3    0    0  0.13403646169E+02  0.39227749924E+01 -0.52263191366E+01  0.14911750609E+02  0.51100000000E-03 0. -1.
        -11    1    3    3    0    0  0.14927075219E+02 -0.44131729857E+01 -0.11681181362E+02  0.19461337792E+02  0.51100000000E-03 0.  1.
         12    1    3    3    0    0  0.64407045617E+01 -0.93668619866E+01 -0.71217647204E+01  0.13414183220E+02  0.00000000000E+00 0. -1.
</event>
<event>
 7    1  0.2812635E-010  0.4778728E+02  0.7816164E-02  0.1312668E+00
        -11   -1    0    0    0    0  0.00000000000E+00  0.00000000000E+00  0.45593999997E+02  0.45594000000E+02  0.51100000000E-03 0.  1.
         11   -1    0    0    0    0 -0.00000000000E+00 -0.00000000000E+00 -0.45593999997E+02  0.45594000000E+02  0.51100000000E-03 0. -1.
    9900012    2    1    2    0    0 -0.19150200527E+02 -0.19621606271E+02  0.33643501459E+02  0.47787276466E+02  0.20000024719E+02 0.  0.
         12    1    1    2    0    0  0.19150200527E+02  0.19621606271E+02 -0.33643501459E+02  0.43400723534E+02  0.00000000000E+00 0. -1.
         11    1    3    3    0    0 -0.97891299088E+01 -0.50748742351E+01  0.30964209247E+01  0.11452913851E+02  0.51100000000E-03 0. -1.
        -11    1    3    3    0    0 -0.11006430818E+02 -0.13555673955E+02  0.25247720873E+02  0.30697642015E+02  0.51100000000E-03 0.  1.
         12    1    3    3    0    0  0.16453602001E+01 -0.99105808088E+00  0.52993596612E+01  0.56367206003E+01  0.00000000000E+00 0. -1.
</event>
<event>
 7    1  0.2812635E-010  0.4778727E+02  0.7816164E-02  0.1312668E+00
        -11   -1    0    0    0    0  0.00000000000E+00  0.00000000000E+00  0.45593999997E+02  0.45594000000E+02  0.51100000000E-03 0.  1.
         11   -1    0    0    0    0 -0.00000000000E+00 -0.00000000000E+00 -0.45593999997E+02  0.45594000000E+02  0.51100000000E-03 0. -1.
    9900012    2    1    2    0    0 -0.34331118289E+02  0.10336360706E+02  0.24457252541E+02  0.47787271464E+02  0.20000001915E+02 0.  0.
         12    1    1    2    0    0  0.34331118289E+02 -0.10336360706E+02 -0.24457252541E+02  0.43400728536E+02  0.00000000000E+00 0. -1.
         11    1    3    3    0    0 -0.56055458220E+01  0.27900213518E+01  0.12252025545E+02  0.13759305699E+02  0.51100000000E-03 0. -1.
        -11    1    3    3    0    0 -0.22617593772E+02  0.81777202896E+01  0.50066658658E+01  0.24566183272E+02  0.51100000000E-03 0.  1.
        -12    1    3    3    0    0 -0.61079786943E+01 -0.63138093534E+00  0.71985611294E+01  0.94617824933E+01  0.00000000000E+00 0.  1.
</event>
<event>
 7    1  0.2812635E-010  0.4778726E+02  0.7816164E-02  0.1312668E+00
        -11   -1    0    0    0    0  0.00000000000E+00  0.00000000000E+00  0.45593999997E+02  0.45594000000E+02  0.51100000000E-03 0.  1.
         11   -1    0    0    0    0 -0.00000000000E+00 -0.00000000000E+00 -0.45593999997E+02  0.45594000000E+02  0.51100000000E-03 0. -1.
    9900012    2    1    2    0    0  0.77560944616E+01  0.24816407015E+02  0.34750725785E+02  0.47787262667E+02  0.19999961805E+02 0.  0.
         12    1    1    2    0    0 -0.77560944616E+01 -0.24816407015E+02 -0.34750725785E+02  0.43400737333E+02  0.00000000000E+00 0. -1.
         11    1    3    3    0    0  0.80267060691E+01  0.18458403205E+02  0.29473372557E+02  0.35690619907E+02  0.51100000000E-03 0.  1.
        -11    1    3    3    0    0 -0.45420472570E+01  0.29170808123E+01  0.25114281280E+01  0.59537236460E+01  0.51100000000E-03 0. -1.
         12    1    3    3    0    0  0.42714356494E+01  0.34409229984E+01  0.27659251000E+01  0.61429191144E+01  0.00000000000E+00 0. -1.
</event>
<event>
 7    1  0.2812635E-010  0.4778727E+02  0.7816164E-02  0.1312668E+00
        -11   -1    0    0    0    0  0.00000000000E+00  0.00000000000E+00  0.45593999997E+02  0.45594000000E+02  0.51100000000E-03 0.  1.
         11   -1    0    0    0    0 -0.00000000000E+00 -0.00000000000E+00 -0.45593999997E+02  0.45594000000E+02  0.51100000000E-03 0. -1.
    9900012    2    1    2    0    0  0.85777478827E+01  0.30996064900E+02  0.29142566245E+02  0.47787274598E+02  0.20000016204E+02 0.  0.
         12    1    1    2    0    0 -0.85777478827E+01 -0.30996064900E+02 -0.29142566245E+02  0.43400725402E+02  0.00000000000E+00 0. -1.
         11    1    3    3    0    0  0.19654960759E+01  0.19137855186E+02  0.85158188571E+01  0.21039007748E+02  0.51100000000E-03 0. -1.
        -11    1    3    3    0    0  0.61716278610E+01  0.72462019541E+01  0.19899260537E+02  0.22058490506E+02  0.51100000000E-03 0.  1.
        -12    1    3    3    0    0  0.44062394571E+00  0.46120077599E+01  0.72748685028E+00  0.46897763439E+01  0.00000000000E+00 0.  1.
</event>
<event>
 7    1  0.2812635E-010  0.4778727E+02  0.7816164E-02  0.1312668E+00
        -11   -1    0    0    0    0  0.00000000000E+00  0.00000000000E+00  0.45593999997E+02  0.45594000000E+02  0.51100000000E-03 0. -1.
         11   -1    0    0    0    0 -0.00000000000E+00 -0.00000000000E+00 -0.45593999997E+02  0.45594000000E+02  0.51100000000E-03 0.  1.
    9900012    2    1    2    0    0 -0.41714131633E+02  0.88969818378E+01 -0.80248417295E+01  0.47787272488E+02  0.20000006584E+02 0.  0.
         12    1    1    2    0    0  0.41714131633E+02 -0.88969818378E+01  0.80248417295E+01  0.43400727512E+02  0.00000000000E+00 0. -1.
         11    1    3    3    0    0 -0.23537063750E+02  0.37510487089E+01  0.35170445202E+01  0.24092184185E+02  0.51100000000E-03 0. -1.
        -11    1    3    3    0    0 -0.95974061741E+01  0.67981265802E+01 -0.49987518026E+01  0.12779368142E+02  0.51100000000E-03 0.  1.
        -12    1    3    3    0    0 -0.85796617097E+01 -0.16521934513E+01 -0.65431344470E+01  0.10915720162E+02  0.00000000000E+00 0.  1.
</event>
<event>
 7    1  0.2812635E-010  0.4778727E+02  0.7816164E-02  0.1312668E+00
        -11   -1    0    0    0    0  0.00000000000E+00  0.00000000000E+00  0.45593999997E+02  0.45594000000E+02  0.51100000000E-03 0.  1.
         11   -1    0    0    0    0 -0.00000000000E+00 -0.00000000000E+00 -0.45593999997E+02  0.45594000000E+02  0.51100000000E-03 0. -1.
    9900012    2    1    2    0    0 -0.10363200968E+02  0.37630237281E+02  0.18978744843E+02  0.47787269039E+02  0.19999990858E+02 0.  0.
         12    1    1    2    0    0  0.10363200968E+02 -0.37630237281E+02 -0.18978744843E+02  0.43400730961E+02  0.00000000000E+00 0. -1.
         11    1    3    3    0    0 -0.59342849539E+01  0.13079144440E+01  0.43851227779E+01  0.74937093716E+01  0.51100000000E-03 0. -1.
        -11    1    3    3    0    0 -0.14960171879E+01  0.27792901869E+02  0.75202051102E+01  0.28831180116E+02  0.51100000000E-03 0.  1.
        -12    1    3    3    0    0 -0.29328988258E+01  0.85294209682E+01  0.70734169550E+01  0.11462379552E+02  0.00000000000E+00 0.  1.
</event>
<event>
 7    1  0.2812635E-010  0.4778727E+02  0.7816164E-02  0.1312668E+00
        -11   -1    0    0    0    0  0.00000000000E+00  0.00000000000E+00  0.45593999997E+02  0.45594000000E+02  0.51100000000E-03 0.  1.
         11   -1    0    0    0    0 -0.00000000000E+00 -0.00000000000E+00 -0.45593999997E+02  0.45594000000E+02  0.51100000000E-03 0. -1.
    9900012    2    1    2    0    0  0.11472279122E+02 -0.57078613038E+01  0.41466015099E+02  0.47787271008E+02  0.19999999833E+02 0.  0.
         12    1    1    2    0    0 -0.11472279122E+02  0.57078613038E+01 -0.41466015099E+02  0.43400728992E+02  0.00000000000E+00 0. -1.
         11    1    3    3    0    0  0.12794645509E+02 -0.31706014978E+00  0.12610872421E+02  0.17967681662E+02  0.51100000000E-03 0. -1.
        -11    1    3    3    0    0 -0.32465975883E+01 -0.39816894966E+01  0.19696690357E+02  0.20355683688E+02  0.51100000000E-03 0.  1.
         12    1    3    3    0    0  0.19242312011E+01 -0.14091116574E+01  0.91584523210E+01  0.94639056576E+01  0.00000000000E+00 0. -1.
</event>
<event>
 7    1  0.2812635E-010  0.4778729E+02  0.7816164E-02  0.1312668E+00
        -11   -1    0    0    0    0  0.00000000000E+00  0.00000000000E+00  0.45593999997E+02  0.45594000000E+02  0.51100000000E-03 0. -1.
         11   -1    0    0    0    0 -0.00000000000E+00 -0.00000000000E+00 -0.45593999997E+02  0.45594000000E+02  0.51100000000E-03 0.  1.
    9900012    2    1    2    0    0  0.21823583646E+02  0.10897002690E+02 -0.35897193373E+02  0.47787286148E+02  0.20000068864E+02 0.  0.
         12    1    1    2    0    0 -0.21823583646E+02 -0.10897002690E+02  0.35897193373E+02  0.43400713852E+02  0.00000000000E+00 0. -1.
         11    1    3    3    0    0  0.72476011390E+01 -0.46286880320E+01 -0.10545855296E+02  0.13607627984E+02  0.51100000000E-03 0. -1.
        -11    1    3    3    0    0  0.36777411943E+01  0.25641564756E+00 -0.71335868971E+01  0.80299185274E+01  0.51100000000E-03 0.  1.
         12    1    3    3    0    0  0.10898241313E+02  0.15269275075E+02 -0.18217751179E+02  0.26149739636E+02  0.00000000000E+00 0. -1.
</event>
<event>
 7    1  0.2812635E-010  0.4778727E+02  0.7816164E-02  0.1312668E+00
        -11   -1    0    0    0    0  0.00000000000E+00  0.00000000000E+00  0.45593999997E+02  0.45594000000E+02  0.51100000000E-03 0.  1.
         11   -1    0    0    0    0 -0.00000000000E+00 -0.00000000000E+00 -0.45593999997E+02  0.45594000000E+02  0.51100000000E-03 0. -1.
    9900012    2    1    2    0    0 -0.22005381650E+02 -0.12972527519E+02  0.35087035590E+02  0.47787270072E+02  0.19999995568E+02 0.  0.
         12    1    1    2    0    0  0.22005381650E+02  0.12972527519E+02 -0.35087035590E+02  0.43400729928E+02  0.00000000000E+00 0. -1.
         11    1    3    3    0    0 -0.11940393172E+02 -0.89040527521E+01  0.73759785892E+01  0.16621077129E+02  0.51100000000E-03 0. -1.
        -11    1    3    3    0    0 -0.53283610854E+01  0.25734006851E+01  0.14196588935E+02  0.15380408336E+02  0.51100000000E-03 0.  1.
         12    1    3    3    0    0 -0.47366273931E+01 -0.66418754516E+01  0.13514468065E+02  0.15785784607E+02  0.00000000000E+00 0. -1.
</event>
<event>
 7    1  0.2812635E-010  0.4778727E+02  0.7816164E-02  0.1312668E+00
        -11   -1    0    0    0    0  0.00000000000E+00  0.00000000000E+00  0.45593999997E+02  0.45594000000E+02  0.51100000000E-03 0.  1.
         11   -1    0    0    0    0 -0.00000000000E+00 -0.00000000000E+00 -0.45593999997E+02  0.45594000000E+02  0.51100000000E-03 0. -1.
    9900012    2    1    2    0    0  0.37359167839E+02  0.75617258427E+01  0.20754183654E+02  0.47787271221E+02  0.20000000806E+02 0.  0.
         12    1    1    2    0    0 -0.37359167839E+02 -0.75617258427E+01 -0.20754183654E+02  0.43400728779E+02  0.00000000000E+00 0. -1.
         11    1    3    3    0    0  0.25906888910E+02  0.66898511802E+01  0.13213123166E+02  0.29841374396E+02  0.51100000000E-03 0.  1.
        -11    1    3    3    0    0  0.13785036421E+02  0.15057891870E+01  0.63904648885E+01  0.15268682719E+02  0.51100000000E-03 0. -1.
         12    1    3    3    0    0 -0.23327574913E+01 -0.63391452447E+00  0.11505956001E+01  0.26772141066E+01  0.00000000000E+00 0. -1.
</event>
<event>
 7    1  0.2812635E-010  0.4778727E+02  0.7816164E-02  0.1312668E+00
        -11   -1    0    0    0    0  0.00000000000E+00  0.00000000000E+00  0.45593999997E+02  0.45594000000E+02  0.51100000000E-03 0. -1.
         11   -1    0    0    0    0 -0.00000000000E+00 -0.00000000000E+00 -0.45593999997E+02  0.45594000000E+02  0.51100000000E-03 0.  1.
    9900012    2    1    2    0    0 -0.12072138618E+02  0.39370495775E+02 -0.13705869536E+02  0.47787270420E+02  0.19999997153E+02 0.  0.
         12    1    1    2    0    0  0.12072138618E+02 -0.39370495775E+02  0.13705869536E+02  0.43400729580E+02  0.00000000000E+00 0. -1.
         11    1    3    3    0    0  0.13426448258E+01 -0.19881957885E+00  0.17081362038E+01  0.21817318591E+01  0.51100000000E-03 0. -1.
        -11    1    3    3    0    0 -0.13861002506E+02  0.30241819889E+02 -0.96772163666E+01  0.34645974911E+02  0.51100000000E-03 0.  1.
        -12    1    3    3    0    0  0.44621906170E+00  0.93274954642E+01 -0.57367893727E+01  0.10959563650E+02  0.00000000000E+00 0.  1.
</event>
<event>
 7    1  0.2812635E-010  0.4778727E+02  0.7816164E-02  0.1312668E+00
        -11   -1    0    0    0    0  0.00000000000E+00  0.00000000000E+00  0.45593999997E+02  0.45594000000E+02  0.51100000000E-03 0.  1.
         11   -1    0    0    0    0 -0.00000000000E+00 -0.00000000000E+00 -0.45593999997E+02  0.45594000000E+02  0.51100000000E-03 0. -1.
    9900012    2    1    2    0    0 -0.42983289952E+02 -0.33112470727E+01  0.50095559687E+01  0.47787271627E+02  0.20000002656E+02 0.  0.
         12    1    1    2    0    0  0.42983289952E+02  0.33112470727E+01 -0.50095559687E+01  0.43400728373E+02  0.00000000000E+00 0. -1.
         11    1    3    3    0    0  0.15749672183E+01 -0.68733194978E+00 -0.75055287105E+00  0.18751738109E+01  0.51100000000E-03 0. -1.
        -11    1    3    3    0    0 -0.18243043508E+02  0.33083207772E+01  0.32077580302E+01  0.18816039292E+02  0.51100000000E-03 0.  1.
         12    1    3    3    0    0 -0.26315213662E+02 -0.59322359001E+01  0.25523508095E+01  0.27096058524E+02  0.00000000000E+00 0. -1.
</event>
<event>
 7    1  0.2812635E-010  0.4778726E+02  0.7816164E-02  0.1312668E+00
        -11   -1    0    0    0    0  0.00000000000E+00  0.00000000000E+00  0.45593999997E+02  0.45594000000E+02  0.51100000000E-03 0. -1.
         11   -1    0    0    0    0 -0.00000000000E+00 -0.00000000000E+00 -0.45593999997E+02  0.45594000000E+02  0.51100000000E-03 0.  1.
    9900012    2    1    2    0    0 -0.20866520261E+02  0.37970563396E+02 -0.25394757728E+01  0.47787259342E+02  0.19999946644E+02 0.  0.
         12    1    1    2    0    0  0.20866520261E+02 -0.37970563396E+02  0.25394757728E+01  0.43400740658E+02  0.00000000000E+00 0. -1.
         11    1    3    3    0    0 -0.16480384120E+02  0.13235749304E+02  0.26500037266E+01  0.21302831746E+02  0.51100000000E-03 0. -1.
        -11    1    3    3    0    0 -0.34166930010E+01  0.23981603885E+02 -0.36214477610E+01  0.24492978588E+02  0.51100000000E-03 0.  1.
        -12    1    3    3    0    0 -0.96944314004E+00  0.75321020670E+00 -0.15680317384E+01  0.19914490076E+01  0.00000000000E+00 0.  1.
</event>
<event>
 7    1  0.2812635E-010  0.4778726E+02  0.7816164E-02  0.1312668E+00
        -11   -1    0    0    0    0  0.00000000000E+00  0.00000000000E+00  0.45593999997E+02  0.45594000000E+02  0.51100000000E-03 0. -1.
         11   -1    0    0    0    0 -0.00000000000E+00 -0.00000000000E+00 -0.45593999997E+02  0.45594000000E+02  0.51100000000E-03 0.  1.
    9900012    2    1    2    0    0 -0.38404145246E+02 -0.76905851143E+01 -0.18697602242E+02  0.47787264970E+02  0.19999972306E+02 0.  0.
         12    1    1    2    0    0  0.38404145246E+02  0.76905851143E+01  0.18697602242E+02  0.43400735030E+02  0.00000000000E+00 0. -1.
         11    1    3    3    0    0 -0.11954036715E+02  0.61489404291E+01 -0.45316899154E+01  0.14186073310E+02  0.51100000000E-03 0. -1.
        -11    1    3    3    0    0 -0.20867245161E+02 -0.12879881668E+02 -0.13218119787E+02  0.27857709227E+02  0.51100000000E-03 0.  1.
        -12    1    3    3    0    0 -0.55828633693E+01 -0.95964387504E+00 -0.94779253965E+00  0.57434824336E+01  0.00000000000E+00 0.  1.
</event>
<event>
 7    1  0.2812635E-010  0.4778727E+02  0.7816164E-02  0.1312668E+00
        -11   -1    0    0    0    0  0.00000000000E+00  0.00000000000E+00  0.45593999997E+02  0.45594000000E+02  0.51100000000E-03 0.  1.
         11   -1    0    0    0    0 -0.00000000000E+00 -0.00000000000E+00 -0.45593999997E+02  0.45594000000E+02  0.51100000000E-03 0. -1.
    9900012    2    1    2    0    0 -0.12977333711E+02 -0.21229142658E+02  0.35560311422E+02  0.47787269169E+02  0.19999991451E+02 0.  0.
         12    1    1    2    0    0  0.12977333711E+02  0.21229142658E+02 -0.35560311422E+02  0.43400730831E+02  0.00000000000E+00 0. -1.
         11    1    3    3    0    0 -0.26267036080E+01  0.17934347107E+01  0.24649116008E+01  0.40238997709E+01  0.51100000000E-03 0. -1.
        -11    1    3    3    0    0 -0.10324104085E+02 -0.18771909955E+02  0.33199029217E+02  0.39511356212E+02  0.51100000000E-03 0.  1.
        -12    1    3    3    0    0 -0.26526018174E-01 -0.42506674133E+01 -0.10362939579E+00  0.42520131867E+01  0.00000000000E+00 0.  1.
</event>
<event>
 7    1  0.2812635E-010  0.4778727E+02  0.7816164E-02  0.1312668E+00
        -11   -1    0    0    0    0  0.00000000000E+00  0.00000000000E+00  0.45593999997E+02  0.45594000000E+02  0.51100000000E-03 0. -1.
         11   -1    0    0    0    0 -0.00000000000E+00 -0.00000000000E+00 -0.45593999997E+02  0.45594000000E+02  0.51100000000E-03 0.  1.
    9900012    2    1    2    0    0 -0.35958662010E+02  0.91991334904E+01 -0.22493863428E+02  0.47787270485E+02  0.19999997448E+02 0.  0.
         12    1    1    2    0    0  0.35958662010E+02 -0.91991334904E+01  0.22493863428E+02  0.43400729515E+02  0.00000000000E+00 0. -1.
         11    1    3    3    0    0 -0.80679057939E+01  0.78141524895E-01 -0.13759895380E+02  0.15950922579E+02  0.51100000000E-03 0. -1.
        -11    1    3    3    0    0 -0.19651759893E+02  0.20515338014E+01 -0.56692296158E+01  0.20555792919E+02  0.51100000000E-03 0.  1.
         12    1    3    3    0    0 -0.82389963235E+01  0.70694581641E+01 -0.30647384326E+01  0.11280554987E+02  0.00000000000E+00 0. -1.
</event>
<event>
 7    1  0.2812635E-010  0.4778727E+02  0.7816164E-02  0.1312668E+00
        -11   -1    0    0    0    0  0.00000000000E+00  0.00000000000E+00  0.45593999997E+02  0.45594000000E+02  0.51100000000E-03 0.  1.
         11   -1    0    0    0    0 -0.00000000000E+00 -0.00000000000E+00 -0.45593999997E+02  0.45594000000E+02  0.51100000000E-03 0. -1.
    9900012    2    1    2    0    0  0.17504080132E+02  0.33149591546E+02  0.21870871803E+02  0.47787271039E+02  0.19999999976E+02 0.  0.
         12    1    1    2    0    0 -0.17504080132E+02 -0.33149591546E+02 -0.21870871803E+02  0.43400728961E+02  0.00000000000E+00 0. -1.
         11    1    3    3    0    0 -0.14214820217E+01  0.91085796413E+01  0.11377184489E+01  0.92887694422E+01  0.51100000000E-03 0. -1.
        -11    1    3    3    0    0  0.99772124260E+01  0.13002565353E+02  0.17399140013E+02  0.23902751871E+02  0.51100000000E-03 0.  1.
        -12    1    3    3    0    0  0.89483497273E+01  0.11038446551E+02  0.33340133418E+01  0.14595749726E+02  0.00000000000E+00 0.  1.
</event>
<event>
 7    1  0.2812635E-010  0.4778727E+02  0.7816164E-02  0.1312668E+00
        -11   -1    0    0    0    0  0.00000000000E+00  0.00000000000E+00  0.45593999997E+02  0.45594000000E+02  0.51100000000E-03 0. -1.
         11   -1    0    0    0    0 -0.00000000000E+00 -0.00000000000E+00 -0.45593999997E+02  0.45594000000E+02  0.51100000000E-03 0.  1.
    9900012    2    1    2    0    0 -0.12774823090E+02  0.16870279875E+02 -0.37892227551E+02  0.47787270089E+02  0.19999995642E+02 0.  0.
         12    1    1    2    0    0  0.12774823090E+02 -0.16870279875E+02  0.37892227551E+02  0.43400729911E+02  0.00000000000E+00 0. -1.
         11    1    3    3    0    0  0.15842541200E+01  0.29287656415E-01 -0.39750478647E+01  0.42792201008E+01  0.51100000000E-03 0. -1.
        -11    1    3    3    0    0 -0.25130311456E+01  0.20891584526E+01 -0.19366610707E+02  0.19640405269E+02  0.51100000000E-03 0.  1.
        -12    1    3    3    0    0 -0.11846046064E+02  0.14751833766E+02 -0.14550568980E+02  0.23867644719E+02  0.00000000000E+00 0.  1.
</event>
<event>
 7    1  0.2812635E-010  0.4778727E+02  0.7816164E-02  0.1312668E+00
        -11   -1    0    0    0    0  0.00000000000E+00  0.00000000000E+00  0.45593999997E+02  0.45594000000E+02  0.51100000000E-03 0.  1.
         11   -1    0    0    0    0 -0.00000000000E+00 -0.00000000000E+00 -0.45593999997E+02  0.45594000000E+02  0.51100000000E-03 0. -1.
    9900012    2    1    2    0    0  0.10522919913E+02 -0.38222704985E+02  0.17661162098E+02  0.47787266521E+02  0.19999979378E+02 0.  0.
         12    1    1    2    0    0 -0.10522919913E+02  0.38222704985E+02 -0.17661162098E+02  0.43400733479E+02  0.00000000000E+00 0. -1.
         11    1    3    3    0    0  0.13393051607E+02 -0.22411979737E+02  0.10713533727E+02  0.28221454113E+02  0.51100000000E-03 0. -1.
        -11    1    3    3    0    0 -0.29137415819E+01 -0.16925641765E+02  0.65534237826E+01  0.18382453664E+02  0.51100000000E-03 0.  1.
         12    1    3    3    0    0  0.43609887856E-01  0.11149165169E+01  0.39420458812E+00  0.11833587450E+01  0.00000000000E+00 0. -1.
</event>
<event>
 7    1  0.2812635E-010  0.4778727E+02  0.7816164E-02  0.1312668E+00
        -11   -1    0    0    0    0  0.00000000000E+00  0.00000000000E+00  0.45593999997E+02  0.45594000000E+02  0.51100000000E-03 0.  1.
         11   -1    0    0    0    0 -0.00000000000E+00 -0.00000000000E+00 -0.45593999997E+02  0.45594000000E+02  0.51100000000E-03 0. -1.
    9900012    2    1    2    0    0 -0.20702148870E+02  0.19042620270E+02  0.33051824400E+02  0.47787269007E+02  0.19999990709E+02 0.  0.
         12    1    1    2    0    0  0.20702148870E+02 -0.19042620270E+02 -0.33051824400E+02  0.43400730993E+02  0.00000000000E+00 0. -1.
         11    1    3    3    0    0 -0.99300674682E+01  0.68839898598E+01  0.62312184375E+01  0.13594985833E+02  0.51100000000E-03 0. -1.
        -11    1    3    3    0    0 -0.60452119877E+01  0.70974339915E+00  0.17958987027E+02  0.18962424396E+02  0.51100000000E-03 0.  1.
        -12    1    3    3    0    0 -0.47268694140E+01  0.11448887011E+02  0.88616189354E+01  0.15229858778E+02  0.00000000000E+00 0.  1.
</event>
<event>
 7    1  0.2812635E-010  0.4778727E+02  0.7816164E-02  0.1312668E+00
        -11   -1    0    0    0    0  0.00000000000E+00  0.00000000000E+00  0.45593999997E+02  0.45594000000E+02  0.51100000000E-03 0.  1.
         11   -1    0    0    0    0 -0.00000000000E+00 -0.00000000000E+00 -0.45593999997E+02  0.45594000000E+02  0.51100000000E-03 0. -1.
    9900012    2    1    2    0    0 -0.31573176907E+02  0.17479948494E+02  0.24108283855E+02  0.47787269018E+02  0.19999990762E+02 0.  0.
         12    1    1    2    0    0  0.31573176907E+02 -0.17479948494E+02 -0.24108283855E+02  0.43400730982E+02  0.00000000000E+00 0. -1.
         11    1    3    3    0    0 -0.95170162346E+01  0.54154342450E+01  0.19411589806E+01  0.11120639573E+02  0.51100000000E-03 0. -1.
        -11    1    3    3    0    0  0.57799030717E+00  0.27728045335E+01  0.77879891028E+01  0.82870557077E+01  0.51100000000E-03 0.  1.
        -12    1    3    3    0    0 -0.22634150979E+02  0.92917097153E+01  0.14379135771E+02  0.28379573737E+02  0.00000000000E+00 0.  1.
</event>
<event>
 7    1  0.2812635E-010  0.4778727E+02  0.7816164E-02  0.1312668E+00
        -11   -1    0    0    0    0  0.00000000000E+00  0.00000000000E+00  0.45593999997E+02  0.45594000000E+02  0.51100000000E-03 0.  1.
         11   -1    0    0    0    0 -0.00000000000E+00 -0.00000000000E+00 -0.45593999997E+02  0.45594000000E+02  0.51100000000E-03 0. -1.
    9900012    2    1    2    0    0  0.40550604961E+02  0.41067205522E+01 -0.14913305058E+02  0.47787269774E+02  0.19999994207E+02 0.  0.
         12    1    1    2    0    0 -0.40550604961E+02 -0.41067205522E+01  0.14913305058E+02  0.43400730226E+02  0.00000000000E+00 0. -1.
         11    1    3    3    0    0  0.18744467669E+02  0.86218788139E+01 -0.28498745749E+01  0.20828193580E+02  0.51100000000E-03 0. -1.
        -11    1    3    3    0    0  0.92712880112E+01  0.26680010154E+01 -0.52937627588E+01  0.11004496136E+02  0.51100000000E-03 0.  1.
         12    1    3    3    0    0  0.12534849281E+02 -0.71831592771E+01 -0.67696677246E+01  0.15954580057E+02  0.00000000000E+00 0. -1.
</event>
<event>
 7    1  0.2812635E-010  0.4778726E+02  0.7816164E-02  0.1312668E+00
        -11   -1    0    0    0    0  0.00000000000E+00  0.00000000000E+00  0.45593999997E+02  0.45594000000E+02  0.51100000000E-03 0.  1.
         11   -1    0    0    0    0 -0.00000000000E+00 -0.00000000000E+00 -0.45593999997E+02  0.45594000000E+02  0.51100000000E-03 0. -1.
    9900012    2    1    2    0    0 -0.29339981260E+02  0.25086133728E+02  0.19836230967E+02  0.47787255021E+02  0.19999926944E+02 0.  0.
         12    1    1    2    0    0  0.29339981260E+02 -0.25086133728E+02 -0.19836230967E+02  0.43400744979E+02  0.00000000000E+00 0. -1.
         11    1    3    3    0    0 -0.55841004172E+01  0.25499186692E+01  0.11317473935E+02  0.12875149678E+02  0.51100000000E-03 0. -1.
        -11    1    3    3    0    0 -0.54000782841E+01  0.85978818848E+01  0.58297908016E+01  0.11707727338E+02  0.51100000000E-03 0.  1.
         12    1    3    3    0    0 -0.18355802558E+02  0.13938333174E+02  0.26889662301E+01  0.23204378005E+02  0.00000000000E+00 0. -1.
</event>
<event>
 7    1  0.2812635E-010  0.4778727E+02  0.7816164E-02  0.1312668E+00
        -11   -1    0    0    0    0  0.00000000000E+00  0.00000000000E+00  0.45593999997E+02  0.45594000000E+02  0.51100000000E-03 0.  1.
         11   -1    0    0    0    0 -0.00000000000E+00 -0.00000000000E+00 -0.45593999997E+02  0.45594000000E+02  0.51100000000E-03 0. -1.
    9900012    2    1    2    0    0  0.19048334080E+02  0.22698312418E+02  0.31710736392E+02  0.47787271661E+02  0.20000002811E+02 0.  0.
         12    1    1    2    0    0 -0.19048334080E+02 -0.22698312418E+02 -0.31710736392E+02  0.43400728339E+02  0.00000000000E+00 0. -1.
         11    1    3    3    0    0  0.79521416048E+00  0.16758766923E+01  0.65565507821E+01  0.68139039228E+01  0.51100000000E-03 0. -1.
        -11    1    3    3    0    0  0.73465500228E+01  0.56505686804E+00  0.12633542842E+02  0.14625234750E+02  0.51100000000E-03 0.  1.
        -12    1    3    3    0    0  0.10906569897E+02  0.20457378857E+02  0.12520642768E+02  0.26348132988E+02  0.00000000000E+00 0.  1.
</event>
<event>
 7    1  0.2812635E-010  0.4778727E+02  0.7816164E-02  0.1312668E+00
        -11   -1    0    0    0    0  0.00000000000E+00  0.00000000000E+00  0.45593999997E+02  0.45594000000E+02  0.51100000000E-03 0.  1.
         11   -1    0    0    0    0 -0.00000000000E+00 -0.00000000000E+00 -0.45593999997E+02  0.45594000000E+02  0.51100000000E-03 0. -1.
    9900012    2    1    2    0    0  0.33632425868E+02  0.97808589158E+01  0.25628456698E+02  0.47787273467E+02  0.20000011043E+02 0.  0.
         12    1    1    2    0    0 -0.33632425868E+02 -0.97808589158E+01 -0.25628456698E+02  0.43400726533E+02  0.00000000000E+00 0. -1.
         11    1    3    3    0    0  0.38463046655E+01  0.40354419013E+01  0.10520206401E+02  0.11906031828E+02  0.51100000000E-03 0. -1.
        -11    1    3    3    0    0  0.27632203812E+02  0.55441439753E+01  0.17079689479E+02  0.32954392922E+02  0.51100000000E-03 0.  1.
        -12    1    3    3    0    0  0.21539173903E+01  0.20127303930E+00 -0.19714391812E+01  0.29268487159E+01  0.00000000000E+00 0.  1.
</event>
<event>
 7    1  0.2812635E-010  0.4778727E+02  0.7816164E-02  0.1312668E+00
        -11   -1    0    0    0    0  0.00000000000E+00  0.00000000000E+00  0.45593999997E+02  0.45594000000E+02  0.51100000000E-03 0.  1.
         11   -1    0    0    0    0 -0.00000000000E+00 -0.00000000000E+00 -0.45593999997E+02  0.45594000000E+02  0.51100000000E-03 0. -1.
    9900012    2    1    2    0    0 -0.15333769102E+02  0.36165214490E+02  0.18454701299E+02  0.47787271734E+02  0.20000003145E+02 0.  0.
         12    1    1    2    0    0  0.15333769102E+02 -0.36165214490E+02 -0.18454701299E+02  0.43400728266E+02  0.00000000000E+00 0. -1.
         11    1    3    3    0    0 -0.87977850499E+00  0.24213025838E+01 -0.37823477554E+01  0.45763381895E+01  0.51100000000E-03 0. -1.
        -11    1    3    3    0    0 -0.31606045914E+01  0.78927787023E+01  0.77220358667E+01  0.11485434916E+02  0.51100000000E-03 0.  1.
         12    1    3    3    0    0 -0.11293386005E+02  0.25851133204E+02  0.14515013188E+02  0.31725498628E+02  0.00000000000E+00 0. -1.
</event>
<event>
 7    1  0.2812635E-010  0.4778726E+02  0.7816164E-02  0.1312668E+00
        -11   -1    0    0    0    0  0.00000000000E+00  0.00000000000E+00  0.45593999997E+02  0.45594000000E+02  0.51100000000E-03 0.  1.
         11   -1    0    0    0    0 -0.00000000000E+00 -0.00000000000E+00 -0.45593999997E+02  0.45594000000E+02  0.51100000000E-03 0. -1.
    9900012    2    1    2    0    0  0.59507158096E+01 -0.13736311143E+02  0.40737290037E+02  0.47787261965E+02  0.19999958603E+02 0.  0.
         12    1    1    2    0    0 -0.59507158096E+01  0.13736311143E+02 -0.40737290037E+02  0.43400738035E+02  0.00000000000E+00 0. -1.
         11    1    3    3    0    0  0.95478450947E+00 -0.15770875821E+02  0.34188868210E+02  0.37663123176E+02  0.51100000000E-03 0. -1.
        -11    1    3    3    0    0  0.59061905232E+00  0.37286067401E+00  0.51717564694E+01  0.52187087662E+01  0.51100000000E-03 0.  1.
         12    1    3    3    0    0  0.44053122478E+01  0.16617040044E+01  0.13766653571E+01  0.49054300224E+01  0.00000000000E+00 0. -1.
</event>
<event>
 7    1  0.2812635E-010  0.4778727E+02  0.7816164E-02  0.1312668E+00
        -11   -1    0    0    0    0  0.00000000000E+00  0.00000000000E+00  0.45593999997E+02  0.45594000000E+02  0.51100000000E-03 0.  1.
         11   -1    0    0    0    0 -0.00000000000E+00 -0.00000000000E+00 -0.45593999997E+02  0.45594000000E+02  0.51100000000E-03 0. -1.
    9900012    2    1    2    0    0 -0.12103968012E+02  0.11163317026E+02  0.40155915496E+02  0.47787271458E+02  0.20000001884E+02 0.  0.
         12    1    1    2    0    0  0.12103968012E+02 -0.11163317026E+02 -0.40155915496E+02  0.43400728542E+02  0.00000000000E+00 0. -1.
         11    1    3    3    0    0 -0.51687269114E+01 -0.38572245385E+01  0.74914400131E+01  0.98851197643E+01  0.51100000000E-03 0. -1.
        -11    1    3    3    0    0 -0.20852239515E+01  0.51556467703E+01  0.31152386812E+01  0.63744462387E+01  0.51100000000E-03 0.  1.
         12    1    3    3    0    0 -0.48500171493E+01  0.98648947944E+01  0.29549236802E+02  0.31527705455E+02  0.00000000000E+00 0. -1.
</event>
<event>
 7    1  0.2812635E-010  0.4778727E+02  0.7816164E-02  0.1312668E+00
        -11   -1    0    0    0    0  0.00000000000E+00  0.00000000000E+00  0.45593999997E+02  0.45594000000E+02  0.51100000000E-03 0.  1.
         11   -1    0    0    0    0 -0.00000000000E+00 -0.00000000000E+00 -0.45593999997E+02  0.45594000000E+02  0.51100000000E-03 0. -1.
    9900012    2    1    2    0    0  0.19427388276E+02 -0.21694479938E+02  0.32179955416E+02  0.47787269528E+02  0.19999993084E+02 0.  0.
         12    1    1    2    0    0 -0.19427388276E+02  0.21694479938E+02 -0.32179955416E+02  0.43400730472E+02  0.00000000000E+00 0. -1.
         11    1    3    3    0    0  0.94121369087E+01 -0.18245756261E+01  0.18280588086E+01  0.97600817964E+01  0.51100000000E-03 0. -1.
        -11    1    3    3    0    0  0.10104432231E+02 -0.15867651123E+02  0.23631417061E+02  0.30204731011E+02  0.51100000000E-03 0.  1.
        -12    1    3    3    0    0 -0.89180863636E-01 -0.40022531882E+01  0.67204795460E+01  0.78224567201E+01  0.00000000000E+00 0.  1.
</event>
<event>
 7    1  0.2812635E-010  0.4778728E+02  0.7816164E-02  0.1312668E+00
        -11   -1    0    0    0    0  0.00000000000E+00  0.00000000000E+00  0.45593999997E+02  0.45594000000E+02  0.51100000000E-03 0. -1.
         11   -1    0    0    0    0 -0.00000000000E+00 -0.00000000000E+00 -0.45593999997E+02  0.45594000000E+02  0.51100000000E-03 0.  1.
    9900012    2    1    2    0    0  0.35295001705E+02 -0.23664014048E+02 -0.88260987328E+01  0.47787277367E+02  0.20000028827E+02 0.  0.
         12    1    1    2    0    0 -0.35295001705E+02  0.23664014048E+02  0.88260987328E+01  0.43400722633E+02  0.00000000000E+00 0. -1.
         11    1    3    3    0    0  0.20345144160E+02 -0.45820199757E+01 -0.87876707480E+01  0.22630575675E+02  0.51100000000E-03 0. -1.
        -11    1    3    3    0    0  0.12570703000E+02 -0.18307675970E+02 -0.15009283149E+01  0.22258624383E+02  0.51100000000E-03 0.  1.
         12    1    3    3    0    0  0.23791545459E+01 -0.77431810160E+00  0.14625003300E+01  0.28980773093E+01  0.00000000000E+00 0. -1.
</event>
<event>
 7    1  0.2812635E-010  0.4778727E+02  0.7816164E-02  0.1312668E+00
        -11   -1    0    0    0    0  0.00000000000E+00  0.00000000000E+00  0.45593999997E+02  0.45594000000E+02  0.51100000000E-03 0. -1.
         11   -1    0    0    0    0 -0.00000000000E+00 -0.00000000000E+00 -0.45593999997E+02  0.45594000000E+02  0.51100000000E-03 0.  1.
    9900012    2    1    2    0    0  0.15798300008E+02 -0.34584937976E+02 -0.20926511740E+02  0.47787272914E+02  0.20000008526E+02 0.  0.
         12    1    1    2    0    0 -0.15798300008E+02  0.34584937976E+02  0.20926511740E+02  0.43400727086E+02  0.00000000000E+00 0. -1.
         11    1    3    3    0    0  0.79559147447E+00  0.60818475594E+00 -0.47854735725E+01  0.48891320361E+01  0.51100000000E-03 0. -1.
        -11    1    3    3    0    0  0.67345950393E+01 -0.24945990334E+02 -0.66917124498E+01  0.26691500892E+02  0.51100000000E-03 0.  1.
        -12    1    3    3    0    0  0.82681134946E+01 -0.10247132398E+02 -0.94493257174E+01  0.16206639987E+02  0.00000000000E+00 0.  1.
</event>
<event>
 7    1  0.2812635E-010  0.4778727E+02  0.7816164E-02  0.1312668E+00
        -11   -1    0    0    0    0  0.00000000000E+00  0.00000000000E+00  0.45593999997E+02  0.45594000000E+02  0.51100000000E-03 0.  1.
         11   -1    0    0    0    0 -0.00000000000E+00 -0.00000000000E+00 -0.45593999997E+02  0.45594000000E+02  0.51100000000E-03 0. -1.
    9900012    2    1    2    0    0  0.24156356072E+02  0.32606178216E+02  0.15392557337E+02  0.47787271690E+02  0.20000002943E+02 0.  0.
         12    1    1    2    0    0 -0.24156356072E+02 -0.32606178216E+02 -0.15392557337E+02  0.43400728310E+02  0.00000000000E+00 0. -1.
         11    1    3    3    0    0  0.32919095470E+00  0.91170127971E+01 -0.29097484429E+01  0.95757467223E+01  0.51100000000E-03 0. -1.
        -11    1    3    3    0    0  0.14444605586E+02  0.12761506332E+02  0.99202450979E+01  0.21677498413E+02  0.51100000000E-03 0.  1.
        -12    1    3    3    0    0  0.93825595310E+01  0.10727659087E+02  0.83820606817E+01  0.16534026555E+02  0.00000000000E+00 0.  1.
</event>
<event>
 7    1  0.2812635E-010  0.4778726E+02  0.7816164E-02  0.1312668E+00
        -11   -1    0    0    0    0  0.00000000000E+00  0.00000000000E+00  0.45593999997E+02  0.45594000000E+02  0.51100000000E-03 0.  1.
         11   -1    0    0    0    0 -0.00000000000E+00 -0.00000000000E+00 -0.45593999997E+02  0.45594000000E+02  0.51100000000E-03 0. -1.
    9900012    2    1    2    0    0 -0.25499378201E+02  0.35097199770E+02 -0.12618816531E+01  0.47787261923E+02  0.19999958410E+02 0.  0.
         12    1    1    2    0    0  0.25499378201E+02 -0.35097199770E+02  0.12618816531E+01  0.43400738077E+02  0.00000000000E+00 0. -1.
         11    1    3    3    0    0 -0.12101114019E+02  0.15364541505E+02  0.89785505482E+01  0.21520233883E+02  0.51100000000E-03 0. -1.
        -11    1    3    3    0    0 -0.58361019828E+01  0.11904557115E+02 -0.64301126852E+01  0.14735159173E+02  0.51100000000E-03 0.  1.
         12    1    3    3    0    0 -0.75621621994E+01  0.78281011502E+01 -0.38103195161E+01  0.11531868867E+02  0.00000000000E+00 0. -1.
</event>
<event>
 7    1  0.2812635E-010  0.4778727E+02  0.7816164E-02  0.1312668E+00
        -11   -1    0    0    0    0  0.00000000000E+00  0.00000000000E+00  0.45593999997E+02  0.45594000000E+02  0.51100000000E-03 0.  1.
         11   -1    0    0    0    0 -0.00000000000E+00 -0.00000000000E+00 -0.45593999997E+02  0.45594000000E+02  0.51100000000E-03 0. -1.
    9900012    2    1    2    0    0 -0.20628194191E+02 -0.13495321854E+02  0.35720822762E+02  0.47787270901E+02  0.19999999348E+02 0.  0.
         12    1    1    2    0    0  0.20628194191E+02  0.13495321854E+02 -0.35720822762E+02  0.43400729099E+02  0.00000000000E+00 0. -1.
         11    1    3    3    0    0  0.19502144634E+01  0.66912079323E+00  0.10383783609E+02  0.10586501848E+02  0.51100000000E-03 0. -1.
        -11    1    3    3    0    0 -0.22770028102E+02 -0.13360152830E+02  0.24743443534E+02  0.36182949874E+02  0.51100000000E-03 0.  1.
        -12    1    3    3    0    0  0.19161944760E+00 -0.80428981727E+00  0.59359561865E+00  0.10178191791E+01  0.00000000000E+00 0.  1.
</event>
<event>
 7    1  0.2812635E-010  0.4778727E+02  0.7816164E-02  0.1312668E+00
        -11   -1    0    0    0    0  0.00000000000E+00  0.00000000000E+00  0.45593999997E+02  0.45594000000E+02  0.51100000000E-03 0. -1.
         11   -1    0    0    0    0 -0.00000000000E+00 -0.00000000000E+00 -0.45593999997E+02  0.45594000000E+02  0.51100000000E-03 0.  1.
    9900012    2    1    2    0    0  0.42037242912E+02  0.83580078885E+01  0.68291403081E+01  0.47787271379E+02  0.20000001526E+02 0.  0.
         12    1    1    2    0    0 -0.42037242912E+02 -0.83580078885E+01 -0.68291403081E+01  0.43400728621E+02  0.00000000000E+00 0. -1.
         11    1    3    3    0    0  0.10355976305E+02  0.66191279161E+01  0.88195670460E+01  0.15127586150E+02  0.51100000000E-03 0. -1.
        -11    1    3    3    0    0  0.10450611575E+02 -0.23344527177E+01 -0.26519997879E+01  0.11031684138E+02  0.51100000000E-03 0.  1.
         12    1    3    3    0    0  0.21230655032E+02  0.40733326901E+01  0.66157305001E+00  0.21628001091E+02  0.00000000000E+00 0. -1.
</event>
<event>
 7    1  0.2812635E-010  0.4778727E+02  0.7816164E-02  0.1312668E+00
        -11   -1    0    0    0    0  0.00000000000E+00  0.00000000000E+00  0.45593999997E+02  0.45594000000E+02  0.51100000000E-03 0.  1.
         11   -1    0    0    0    0 -0.00000000000E+00 -0.00000000000E+00 -0.45593999997E+02  0.45594000000E+02  0.51100000000E-03 0. -1.
    9900012    2    1    2    0    0 -0.42470352250E+02 -0.22277188382E+01  0.86562063027E+01  0.47787268911E+02  0.19999990275E+02 0.  0.
         12    1    1    2    0    0  0.42470352250E+02  0.22277188382E+01 -0.86562063027E+01  0.43400731089E+02  0.00000000000E+00 0. -1.
         11    1    3    3    0    0 -0.38544766430E+01 -0.47608646310E+01  0.52050943438E+01  0.80383972044E+01  0.51100000000E-03 0. -1.
        -11    1    3    3    0    0 -0.24699263099E+02  0.25825020192E+01 -0.17417327754E+01  0.24894910075E+02  0.51100000000E-03 0.  1.
         12    1    3    3    0    0 -0.13916612508E+02 -0.49356226311E-01  0.51928447342E+01  0.14853961632E+02  0.00000000000E+00 0. -1.
</event>
<event>
 7    1  0.2812635E-010  0.4778727E+02  0.7816164E-02  0.1312668E+00
        -11   -1    0    0    0    0  0.00000000000E+00  0.00000000000E+00  0.45593999997E+02  0.45594000000E+02  0.51100000000E-03 0. -1.
         11   -1    0    0    0    0 -0.00000000000E+00 -0.00000000000E+00 -0.45593999997E+02  0.45594000000E+02  0.51100000000E-03 0.  1.
    9900012    2    1    2    0    0  0.34072221142E+02  0.23168079560E+02 -0.13636245759E+02  0.47787270024E+02  0.19999995348E+02 0.  0.
         12    1    1    2    0    0 -0.34072221142E+02 -0.23168079560E+02  0.13636245759E+02  0.43400729976E+02  0.00000000000E+00 0. -1.
         11    1    3    3    0    0  0.76502997200E+00  0.14776563055E+01  0.74730105541E+00  0.18240608937E+01  0.51100000000E-03 0. -1.
        -11    1    3    3    0    0  0.67100705351E-01  0.36481880741E+01  0.26238060696E+01  0.44942337812E+01  0.51100000000E-03 0.  1.
        -12    1    3    3    0    0  0.33240090465E+02  0.18042235180E+02 -0.17007352884E+02  0.41468975349E+02  0.00000000000E+00 0.  1.
</event>
<event>
 7    1  0.2812635E-010  0.4778728E+02  0.7816164E-02  0.1312668E+00
        -11   -1    0    0    0    0  0.00000000000E+00  0.00000000000E+00  0.45593999997E+02  0.45594000000E+02  0.51100000000E-03 0.  1.
         11   -1    0    0    0    0 -0.00000000000E+00 -0.00000000000E+00 -0.45593999997E+02  0.45594000000E+02  0.51100000000E-03 0. -1.
    9900012    2    1    2    0    0  0.11476534441E+02  0.18040245867E+02  0.37768526175E+02  0.47787275545E+02  0.20000020522E+02 0.  0.
         12    1    1    2    0    0 -0.11476534441E+02 -0.18040245867E+02 -0.37768526175E+02  0.43400724455E+02  0.00000000000E+00 0. -1.
         11    1    3    3    0    0 -0.96670165592E+00  0.62291424103E+01  0.95647493250E+00  0.63758585161E+01  0.51100000000E-03 0. -1.
        -11    1    3    3    0    0  0.13685421236E+01  0.29647012319E+01  0.15334521970E+02  0.15678326609E+02  0.51100000000E-03 0.  1.
         12    1    3    3    0    0  0.11074693974E+02  0.88464022246E+01  0.21477529273E+02  0.25733090421E+02  0.00000000000E+00 0. -1.
</event>
<event>
 7    1  0.2812635E-010  0.4778728E+02  0.7816164E-02  0.1312668E+00
        -11   -1    0    0    0    0  0.00000000000E+00  0.00000000000E+00  0.45593999997E+02  0.45594000000E+02  0.51100000000E-03 0.  1.
         11   -1    0    0    0    0 -0.00000000000E+00 -0.00000000000E+00 -0.45593999997E+02  0.45594000000E+02  0.51100000000E-03 0. -1.
    9900012    2    1    2    0    0  0.11611180905E+02  0.36429500452E+02  0.20535210808E+02  0.47787275258E+02  0.20000019210E+02 0.  0.
         12    1    1    2    0    0 -0.11611180905E+02 -0.36429500452E+02 -0.20535210808E+02  0.43400724742E+02  0.00000000000E+00 0. -1.
         11    1    3    3    0    0 -0.10813293246E+01  0.13050450758E+02  0.13858261495E+02  0.19066592512E+02  0.51100000000E-03 0. -1.
        -11    1    3    3    0    0  0.96582483082E+01  0.20463653845E+02  0.84498508228E+01  0.24154562059E+02  0.51100000000E-03 0.  1.
         12    1    3    3    0    0  0.30342619213E+01  0.29153958496E+01 -0.17729015093E+01  0.45661206870E+01  0.00000000000E+00 0. -1.
</event>
<event>
 7    1  0.2812635E-010  0.4778727E+02  0.7816164E-02  0.1312668E+00
        -11   -1    0    0    0    0  0.00000000000E+00  0.00000000000E+00  0.45593999997E+02  0.45594000000E+02  0.51100000000E-03 0.  1.
         11   -1    0    0    0    0 -0.00000000000E+00 -0.00000000000E+00 -0.45593999997E+02  0.45594000000E+02  0.51100000000E-03 0. -1.
    9900012    2    1    2    0    0 -0.51050468894E+01 -0.36049030154E+02  0.23622638536E+02  0.47787272700E+02  0.20000007548E+02 0.  0.
         12    1    1    2    0    0  0.51050468894E+01  0.36049030154E+02 -0.23622638536E+02  0.43400727300E+02  0.00000000000E+00 0. -1.
         11    1    3    3    0    0  0.12387669356E+01 -0.15850402492E+02  0.49508488702E+01  0.16651747880E+02  0.51100000000E-03 0. -1.
        -11    1    3    3    0    0 -0.55544781175E+01 -0.15872345912E+02  0.20376117716E+02  0.26419117421E+02  0.51100000000E-03 0.  1.
        -12    1    3    3    0    0 -0.78933570747E+00 -0.43262817503E+01 -0.17043280502E+01  0.47164073981E+01  0.00000000000E+00 0.  1.
</event>
<event>
 7    1  0.2812635E-010  0.4778727E+02  0.7816164E-02  0.1312668E+00
        -11   -1    0    0    0    0  0.00000000000E+00  0.00000000000E+00  0.45593999997E+02  0.45594000000E+02  0.51100000000E-03 0.  1.
         11   -1    0    0    0    0 -0.00000000000E+00 -0.00000000000E+00 -0.45593999997E+02  0.45594000000E+02  0.51100000000E-03 0. -1.
    9900012    2    1    2    0    0  0.55228337556E+01  0.35900035162E+02  0.23755194357E+02  0.47787268712E+02  0.19999989367E+02 0.  0.
         12    1    1    2    0    0 -0.55228337556E+01 -0.35900035162E+02 -0.23755194357E+02  0.43400731288E+02  0.00000000000E+00 0. -1.
         11    1    3    3    0    0  0.17081716192E+00  0.22526959226E+02  0.22602819456E+02  0.31912074801E+02  0.51100000000E-03 0.  1.
        -11    1    3    3    0    0  0.64292623761E+01  0.12830102045E+02  0.22337291287E+00  0.14352589624E+02  0.51100000000E-03 0. -1.
         12    1    3    3    0    0 -0.10772457824E+01  0.54297389135E+00  0.92900198855E+00  0.15226042878E+01  0.00000000000E+00 0. -1.
</event>
<event>
 7    1  0.2812635E-010  0.4778727E+02  0.7816164E-02  0.1312668E+00
        -11   -1    0    0    0    0  0.00000000000E+00  0.00000000000E+00  0.45593999997E+02  0.45594000000E+02  0.51100000000E-03 0.  1.
         11   -1    0    0    0    0 -0.00000000000E+00 -0.00000000000E+00 -0.45593999997E+02  0.45594000000E+02  0.51100000000E-03 0. -1.
    9900012    2    1    2    0    0 -0.23223472622E+02  0.32247121716E+02  0.17447542020E+02  0.47787271180E+02  0.20000000619E+02 0.  0.
         12    1    1    2    0    0  0.23223472622E+02 -0.32247121716E+02 -0.17447542020E+02  0.43400728820E+02  0.00000000000E+00 0. -1.
         11    1    3    3    0    0 -0.30062198402E+01  0.13838208881E+02  0.23330882292E+01  0.14351887810E+02  0.51100000000E-03 0. -1.
        -11    1    3    3    0    0 -0.15120969221E+02  0.11983532446E+02  0.16160784137E+02  0.25167830742E+02  0.51100000000E-03 0.  1.
         12    1    3    3    0    0 -0.50962835602E+01  0.64253803889E+01 -0.10463303466E+01  0.82675526283E+01  0.00000000000E+00 0. -1.
</event>
<event>
 7    1  0.2812635E-010  0.4778724E+02  0.7816164E-02  0.1312668E+00
        -11   -1    0    0    0    0  0.00000000000E+00  0.00000000000E+00  0.45593999997E+02  0.45594000000E+02  0.51100000000E-03 0.  1.
         11   -1    0    0    0    0 -0.00000000000E+00 -0.00000000000E+00 -0.45593999997E+02  0.45594000000E+02  0.51100000000E-03 0. -1.
    9900012    2    1    2    0    0 -0.60367859319E+01 -0.40677183304E+02 -0.13876245929E+02  0.47787237023E+02  0.19999844882E+02 0.  0.
         12    1    1    2    0    0  0.60367859319E+01  0.40677183304E+02  0.13876245929E+02  0.43400762977E+02  0.00000000000E+00 0. -1.
         11    1    3    3    0    0 -0.10941390268E+01 -0.14321209314E+02  0.22355007885E+01  0.14535874259E+02  0.51100000000E-03 0.  1.
        -11    1    3    3    0    0 -0.29180429716E+01 -0.24621287224E+02 -0.17400341973E+02  0.30290174321E+02  0.51100000000E-03 0. -1.
         12    1    3    3    0    0 -0.20246039335E+01 -0.17346867655E+01  0.12885952558E+01  0.29611884430E+01  0.00000000000E+00 0. -1.
</event>
<event>
 7    1  0.2812635E-010  0.4778727E+02  0.7816164E-02  0.1312668E+00
        -11   -1    0    0    0    0  0.00000000000E+00  0.00000000000E+00  0.45593999997E+02  0.45594000000E+02  0.51100000000E-03 0.  1.
         11   -1    0    0    0    0 -0.00000000000E+00 -0.00000000000E+00 -0.45593999997E+02  0.45594000000E+02  0.51100000000E-03 0. -1.
    9900012    2    1    2    0    0  0.35696671228E+02 -0.24619467009E+02  0.18035109699E+01  0.47787272536E+02  0.20000006800E+02 0.  0.
         12    1    1    2    0    0 -0.35696671228E+02  0.24619467009E+02 -0.18035109699E+01  0.43400727464E+02  0.00000000000E+00 0. -1.
         11    1    3    3    0    0  0.21016745109E+02 -0.80463561542E+01 -0.46116517933E+01  0.22972042897E+02  0.51100000000E-03 0. -1.
        -11    1    3    3    0    0  0.10489124598E+02 -0.51159139044E+01  0.19947960213E+01  0.11839489911E+02  0.51100000000E-03 0.  1.
         12    1    3    3    0    0  0.41908015207E+01 -0.11457196951E+02  0.44203667419E+01  0.12975739728E+02  0.00000000000E+00 0. -1.
</event>
<event>
 7    1  0.2812635E-010  0.4778727E+02  0.7816164E-02  0.1312668E+00
        -11   -1    0    0    0    0  0.00000000000E+00  0.00000000000E+00  0.45593999997E+02  0.45594000000E+02  0.51100000000E-03 0.  1.
         11   -1    0    0    0    0 -0.00000000000E+00 -0.00000000000E+00 -0.45593999997E+02  0.45594000000E+02  0.51100000000E-03 0. -1.
    9900012    2    1    2    0    0  0.38061043107E+02  0.13300369042E+02  0.16064877911E+02  0.47787272802E+02  0.20000008014E+02 0.  0.
         12    1    1    2    0    0 -0.38061043107E+02 -0.13300369042E+02 -0.16064877911E+02  0.43400727198E+02  0.00000000000E+00 0. -1.
         11    1    3    3    0    0  0.12660386686E+02  0.68637858090E+01  0.17873574665E+01  0.14511774310E+02  0.51100000000E-03 0. -1.
        -11    1    3    3    0    0  0.14606752668E+02  0.19066194906E+01  0.15646651288E+02  0.21489767755E+02  0.51100000000E-03 0.  1.
        -12    1    3    3    0    0  0.10793903753E+02  0.45299637421E+01 -0.13691308429E+01  0.11785730736E+02  0.00000000000E+00 0.  1.
</event>
<event>
 7    1  0.2812635E-010  0.4778722E+02  0.7816164E-02  0.1312668E+00
        -11   -1    0    0    0    0  0.00000000000E+00  0.00000000000E+00  0.45593999997E+02  0.45594000000E+02  0.51100000000E-03 0.  1.
         11   -1    0    0    0    0 -0.00000000000E+00 -0.00000000000E+00 -0.45593999997E+02  0.45594000000E+02  0.51100000000E-03 0. -1.
    9900012    2    1    2    0    0  0.33789442421E+02 -0.10368311877E+02  0.25187288020E+02  0.47787219038E+02  0.19999762881E+02 0.  0.
         12    1    1    2    0    0 -0.33789442421E+02  0.10368311877E+02 -0.25187288020E+02  0.43400780962E+02  0.00000000000E+00 0. -1.
         11    1    3    3    0    0  0.95655445906E+01 -0.62016390871E+01 -0.31720485935E+00  0.11404410983E+02  0.51100000000E-03 0. -1.
        -11    1    3    3    0    0  0.14630035910E+02 -0.48922772607E+01  0.20133336650E+02  0.25363824090E+02  0.51100000000E-03 0.  1.
         12    1    3    3    0    0  0.95938619205E+01  0.72560447094E+00  0.53711562290E+01  0.11018983966E+02  0.00000000000E+00 0. -1.
</event>
<event>
 7    1  0.2812635E-010  0.4778722E+02  0.7816164E-02  0.1312668E+00
        -11   -1    0    0    0    0  0.00000000000E+00  0.00000000000E+00  0.45593999997E+02  0.45594000000E+02  0.51100000000E-03 0.  1.
         11   -1    0    0    0    0 -0.00000000000E+00 -0.00000000000E+00 -0.45593999997E+02  0.45594000000E+02  0.51100000000E-03 0. -1.
    9900012    2    1    2    0    0  0.13145059953E+02 -0.35631049804E+02 -0.21006267635E+02  0.47787221306E+02  0.19999773221E+02 0.  0.
         12    1    1    2    0    0 -0.13145059953E+02  0.35631049804E+02  0.21006267635E+02  0.43400778694E+02  0.00000000000E+00 0. -1.
         11    1    3    3    0    0  0.76096293618E+00 -0.49011854418E+01 -0.37077695306E+01  0.61925954558E+01  0.51100000000E-03 0. -1.
        -11    1    3    3    0    0  0.11925748298E+02 -0.25457638514E+02 -0.21039514192E+02  0.35113757829E+02  0.51100000000E-03 0.  1.
        -12    1    3    3    0    0  0.45834871920E+00 -0.52722258481E+01  0.37410160877E+01  0.64808680214E+01  0.00000000000E+00 0.  1.
</event>
<event>
 7    1  0.2812635E-010  0.4778727E+02  0.7816164E-02  0.1312668E+00
        -11   -1    0    0    0    0  0.00000000000E+00  0.00000000000E+00  0.45593999997E+02  0.45594000000E+02  0.51100000000E-03 0. -1.
         11   -1    0    0    0    0 -0.00000000000E+00 -0.00000000000E+00 -0.45593999997E+02  0.45594000000E+02  0.51100000000E-03 0.  1.
    9900012    2    1    2    0    0 -0.11664705731E+02  0.13457274408E+02 -0.39578524695E+02  0.47787271765E+02  0.20000003286E+02 0.  0.
         12    1    1    2    0    0  0.11664705731E+02 -0.13457274408E+02  0.39578524695E+02  0.43400728235E+02  0.00000000000E+00 0. -1.
         11    1    3    3    0    0 -0.14055111897E+02  0.15533698960E+02 -0.28188605114E+02  0.35120356382E+02  0.51100000000E-03 0. -1.
        -11    1    3    3    0    0  0.35763160605E+01 -0.18092060021E+01 -0.65693492138E+01  0.76954280112E+01  0.51100000000E-03 0.  1.
        -12    1    3    3    0    0 -0.11859098948E+01 -0.26721854987E+00 -0.48205703667E+01  0.49714873722E+01  0.00000000000E+00 0.  1.
</event>
<event>
 7    1  0.2812635E-010  0.4778727E+02  0.7816164E-02  0.1312668E+00
        -11   -1    0    0    0    0  0.00000000000E+00  0.00000000000E+00  0.45593999997E+02  0.45594000000E+02  0.51100000000E-03 0.  1.
         11   -1    0    0    0    0 -0.00000000000E+00 -0.00000000000E+00 -0.45593999997E+02  0.45594000000E+02  0.51100000000E-03 0. -1.
    9900012    2    1    2    0    0 -0.72826585147E+01  0.25490456116E+02  0.34363102427E+02  0.47787271015E+02  0.19999999864E+02 0.  0.
         12    1    1    2    0    0  0.72826585147E+01 -0.25490456116E+02 -0.34363102427E+02  0.43400728985E+02  0.00000000000E+00 0. -1.
         11    1    3    3    0    0 -0.35629240431E+01  0.60236919579E+01 -0.96291465068E+00  0.70644530876E+01  0.51100000000E-03 0. -1.
        -11    1    3    3    0    0 -0.15963192766E+01  0.16666025339E+02  0.29402919305E+02  0.33835429652E+02  0.51100000000E-03 0.  1.
         12    1    3    3    0    0 -0.21234151950E+01  0.28007388191E+01  0.59230977731E+01  0.68873882752E+01  0.00000000000E+00 0. -1.
</event>
<event>
 7    1  0.2812635E-010  0.4778727E+02  0.7816164E-02  0.1312668E+00
        -11   -1    0    0    0    0  0.00000000000E+00  0.00000000000E+00  0.45593999997E+02  0.45594000000E+02  0.51100000000E-03 0. -1.
         11   -1    0    0    0    0 -0.00000000000E+00 -0.00000000000E+00 -0.45593999997E+02  0.45594000000E+02  0.51100000000E-03 0.  1.
    9900012    2    1    2    0    0 -0.37452223034E+02  0.17332510370E+02 -0.13436458357E+02  0.47787270294E+02  0.19999996576E+02 0.  0.
         12    1    1    2    0    0  0.37452223034E+02 -0.17332510370E+02  0.13436458357E+02  0.43400729706E+02  0.00000000000E+00 0. -1.
         11    1    3    3    0    0 -0.12030053330E+02  0.11883651330E+02 -0.84367427890E+01  0.18897671317E+02  0.51100000000E-03 0. -1.
        -11    1    3    3    0    0 -0.28213879261E+01 -0.28779159026E+01 -0.23323690462E+01  0.46564552398E+01  0.51100000000E-03 0.  1.
         12    1    3    3    0    0 -0.22600781778E+02  0.83267749421E+01 -0.26673465214E+01  0.24233143737E+02  0.00000000000E+00 0. -1.
</event>
<event>
 7    1  0.2812635E-010  0.4778727E+02  0.7816164E-02  0.1312668E+00
        -11   -1    0    0    0    0  0.00000000000E+00  0.00000000000E+00  0.45593999997E+02  0.45594000000E+02  0.51100000000E-03 0. -1.
         11   -1    0    0    0    0 -0.00000000000E+00 -0.00000000000E+00 -0.45593999997E+02  0.45594000000E+02  0.51100000000E-03 0.  1.
    9900012    2    1    2    0    0 -0.62967488278E+01 -0.35588996797E+02 -0.24029091519E+02  0.47787274453E+02  0.20000015539E+02 0.  0.
         12    1    1    2    0    0  0.62967488278E+01  0.35588996797E+02  0.24029091519E+02  0.43400725547E+02  0.00000000000E+00 0. -1.
         11    1    3    3    0    0  0.19993921045E+01 -0.31368535799E+01  0.76593471840E+00  0.37979040830E+01  0.51100000000E-03 0. -1.
        -11    1    3    3    0    0 -0.11278666770E+02 -0.30848111512E+02 -0.21447806024E+02  0.39227830573E+02  0.51100000000E-03 0.  1.
        -12    1    3    3    0    0  0.29825258373E+01 -0.16040317057E+01 -0.33472202125E+01  0.47615397965E+01  0.00000000000E+00 0.  1.
</event>
<event>
 7    1  0.2812635E-010  0.4778733E+02  0.7816164E-02  0.1312667E+00
        -11   -1    0    0    0    0  0.00000000000E+00  0.00000000000E+00  0.45593999997E+02  0.45594000000E+02  0.51100000000E-03 0. -1.
         11   -1    0    0    0    0 -0.00000000000E+00 -0.00000000000E+00 -0.45593999997E+02  0.45594000000E+02  0.51100000000E-03 0.  1.
    9900012    2    1    2    0    0 -0.23827126075E+02 -0.13727012528E+02 -0.33577599673E+02  0.47787331690E+02  0.20000276504E+02 0.  0.
         12    1    1    2    0    0  0.23827126075E+02  0.13727012528E+02  0.33577599673E+02  0.43400668310E+02  0.00000000000E+00 0. -1.
         11    1    3    3    0    0 -0.13943671916E+01 -0.51561027556E+01  0.86916655021E+00  0.54115715134E+01  0.51100000000E-03 0. -1.
        -11    1    3    3    0    0 -0.19954100229E+02 -0.93714891437E+01 -0.31422207897E+02  0.38384190419E+02  0.51100000000E-03 0.  1.
         12    1    3    3    0    0 -0.24786586551E+01  0.80057937133E+00 -0.30245583265E+01  0.39915697575E+01  0.00000000000E+00 0. -1.
</event>
<event>
 7    1  0.2812635E-010  0.4778730E+02  0.7816164E-02  0.1312668E+00
        -11   -1    0    0    0    0  0.00000000000E+00  0.00000000000E+00  0.45593999997E+02  0.45594000000E+02  0.51100000000E-03 0. -1.
         11   -1    0    0    0    0 -0.00000000000E+00 -0.00000000000E+00 -0.45593999997E+02  0.45594000000E+02  0.51100000000E-03 0.  1.
    9900012    2    1    2    0    0  0.15206662346E+02 -0.28676975313E+02 -0.28809888750E+02  0.47787295137E+02  0.20000109847E+02 0.  0.
         12    1    1    2    0    0 -0.15206662346E+02  0.28676975313E+02  0.28809888750E+02  0.43400704863E+02  0.00000000000E+00 0. -1.
         11    1    3    3    0    0  0.15810158241E+02 -0.11579080495E+02 -0.91460880936E+01  0.21626075381E+02  0.51100000000E-03 0. -1.
        -11    1    3    3    0    0  0.67539886479E+00 -0.10920897403E+02 -0.12789669014E+02  0.16831452625E+02  0.51100000000E-03 0.  1.
         12    1    3    3    0    0 -0.12788947598E+01 -0.61769974154E+01 -0.68741316420E+01  0.93297671305E+01  0.00000000000E+00 0. -1.
</event>
<event>
 7    1  0.2812635E-010  0.4778727E+02  0.7816164E-02  0.1312668E+00
        -11   -1    0    0    0    0  0.00000000000E+00  0.00000000000E+00  0.45593999997E+02  0.45594000000E+02  0.51100000000E-03 0.  1.
         11   -1    0    0    0    0 -0.00000000000E+00 -0.00000000000E+00 -0.45593999997E+02  0.45594000000E+02  0.51100000000E-03 0. -1.
    9900012    2    1    2    0    0  0.39884579279E+02 -0.10129848499E+02 -0.13792386013E+02  0.47787269513E+02  0.19999993017E+02 0.  0.
         12    1    1    2    0    0 -0.39884579279E+02  0.10129848499E+02  0.13792386013E+02  0.43400730487E+02  0.00000000000E+00 0. -1.
         11    1    3    3    0    0  0.12231922042E+02  0.25696853861E+01 -0.11606897669E+02  0.17057059347E+02  0.51100000000E-03 0. -1.
        -11    1    3    3    0    0  0.15274482059E+02 -0.62192167886E+01 -0.28773739448E+01  0.16741198903E+02  0.51100000000E-03 0.  1.
         12    1    3    3    0    0  0.12378175178E+02 -0.64803170968E+01  0.69188560031E+00  0.13989011262E+02  0.00000000000E+00 0. -1.
</event>
<event>
 7    1  0.2812635E-010  0.4778728E+02  0.7816164E-02  0.1312668E+00
        -11   -1    0    0    0    0  0.00000000000E+00  0.00000000000E+00  0.45593999997E+02  0.45594000000E+02  0.51100000000E-03 0.  1.
         11   -1    0    0    0    0 -0.00000000000E+00 -0.00000000000E+00 -0.45593999997E+02  0.45594000000E+02  0.51100000000E-03 0. -1.
    9900012    2    1    2    0    0  0.23006029881E+02  0.17156164814E+02  0.32557815628E+02  0.47787276959E+02  0.20000026966E+02 0.  0.
         12    1    1    2    0    0 -0.23006029881E+02 -0.17156164814E+02 -0.32557815628E+02  0.43400723041E+02  0.00000000000E+00 0. -1.
         11    1    3    3    0    0 -0.17705903137E+01  0.23793669460E+01  0.46718693676E+01  0.55337817785E+01  0.51100000000E-03 0. -1.
        -11    1    3    3    0    0  0.78413860745E+01  0.40833025332E+01  0.17696050945E+02  0.19781580181E+02  0.51100000000E-03 0.  1.
         12    1    3    3    0    0  0.16935234121E+02  0.10693495335E+02  0.10189895316E+02  0.22471914999E+02  0.00000000000E+00 0. -1.
</event>
<event>
 7    1  0.2812635E-010  0.4778727E+02  0.7816164E-02  0.1312668E+00
        -11   -1    0    0    0    0  0.00000000000E+00  0.00000000000E+00  0.45593999997E+02  0.45594000000E+02  0.51100000000E-03 0.  1.
         11   -1    0    0    0    0 -0.00000000000E+00 -0.00000000000E+00 -0.45593999997E+02  0.45594000000E+02  0.51100000000E-03 0. -1.
    9900012    2    1    2    0    0  0.21182018731E+02 -0.36468374588E+02 -0.10247113802E+02  0.47787267243E+02  0.19999982666E+02 0.  0.
         12    1    1    2    0    0 -0.21182018731E+02  0.36468374588E+02  0.10247113802E+02  0.43400732757E+02  0.00000000000E+00 0. -1.
         11    1    3    3    0    0  0.21575482506E+01  0.22013401537E+01  0.17554390961E+00  0.30873498103E+01  0.51100000000E-03 0. -1.
        -11    1    3    3    0    0  0.13580241026E+02 -0.25562093273E+02 -0.95483023833E+01  0.30479725023E+02  0.51100000000E-03 0.  1.
         12    1    3    3    0    0  0.54442294548E+01 -0.13107621468E+02 -0.87435532874E+00  0.14220192409E+02  0.00000000000E+00 0. -1.
</event>
<event>
 7    1  0.2812635E-010  0.4778728E+02  0.7816164E-02  0.1312668E+00
        -11   -1    0    0    0    0  0.00000000000E+00  0.00000000000E+00  0.45593999997E+02  0.45594000000E+02  0.51100000000E-03 0.  1.
         11   -1    0    0    0    0 -0.00000000000E+00 -0.00000000000E+00 -0.45593999997E+02  0.45594000000E+02  0.51100000000E-03 0. -1.
    9900012    2    1    2    0    0  0.19606455203E+02 -0.14322340021E+02  0.35973324243E+02  0.47787279195E+02  0.20000037162E+02 0.  0.
         12    1    1    2    0    0 -0.19606455203E+02  0.14322340021E+02 -0.35973324243E+02  0.43400720805E+02  0.00000000000E+00 0. -1.
         11    1    3    3    0    0  0.74183575960E+01 -0.12413315623E+02  0.92512223636E+01  0.17167048368E+02  0.51100000000E-03 0. -1.
        -11    1    3    3    0    0  0.13082056476E+02 -0.29549747518E+01  0.22660807067E+02  0.26332190464E+02  0.51100000000E-03 0.  1.
         12    1    3    3    0    0 -0.89395886964E+00  0.10459503539E+01  0.40612948126E+01  0.42880403634E+01  0.00000000000E+00 0. -1.
</event>
<event>
 7    1  0.2812635E-010  0.4778728E+02  0.7816164E-02  0.1312668E+00
        -11   -1    0    0    0    0  0.00000000000E+00  0.00000000000E+00  0.45593999997E+02  0.45594000000E+02  0.51100000000E-03 0.  1.
         11   -1    0    0    0    0 -0.00000000000E+00 -0.00000000000E+00 -0.45593999997E+02  0.45594000000E+02  0.51100000000E-03 0. -1.
    9900012    2    1    2    0    0  0.32740924936E+02  0.26984379793E+02 -0.91377218982E+01  0.47787275583E+02  0.20000020692E+02 0.  0.
         12    1    1    2    0    0 -0.32740924936E+02 -0.26984379793E+02  0.91377218982E+01  0.43400724417E+02  0.00000000000E+00 0. -1.
         11    1    3    3    0    0  0.19050220088E+02  0.16293551804E+02  0.32620384855E+01  0.25279074571E+02  0.51100000000E-03 0. -1.
        -11    1    3    3    0    0  0.13367948910E+02  0.11547262015E+02 -0.12418015413E+02  0.21592786415E+02  0.51100000000E-03 0.  1.
         12    1    3    3    0    0  0.32275593708E+00 -0.85643402697E+00  0.18255029497E-01  0.91541459654E+00  0.00000000000E+00 0. -1.
</event>
<event>
 7    1  0.2812635E-010  0.4778727E+02  0.7816164E-02  0.1312668E+00
        -11   -1    0    0    0    0  0.00000000000E+00  0.00000000000E+00  0.45593999997E+02  0.45594000000E+02  0.51100000000E-03 0.  1.
         11   -1    0    0    0    0 -0.00000000000E+00 -0.00000000000E+00 -0.45593999997E+02  0.45594000000E+02  0.51100000000E-03 0. -1.
    9900012    2    1    2    0    0 -0.39157231086E+02 -0.53489811159E+01 -0.17936636081E+02  0.47787271213E+02  0.20000000769E+02 0.  0.
         12    1    1    2    0    0  0.39157231086E+02  0.53489811159E+01  0.17936636081E+02  0.43400728787E+02  0.00000000000E+00 0. -1.
         11    1    3    3    0    0 -0.18004539511E+02 -0.41577544191E+01 -0.53482961821E+00  0.18486113918E+02  0.51100000000E-03 0. -1.
        -11    1    3    3    0    0 -0.67941891300E+01  0.26442825196E+01 -0.13299745546E+01  0.74109424876E+01  0.51100000000E-03 0.  1.
         12    1    3    3    0    0 -0.14358502445E+02 -0.38355092164E+01 -0.16071831909E+02  0.21890214807E+02  0.00000000000E+00 0. -1.
</event>
<event>
 7    1  0.2812635E-010  0.4778728E+02  0.7816164E-02  0.1312668E+00
        -11   -1    0    0    0    0  0.00000000000E+00  0.00000000000E+00  0.45593999997E+02  0.45594000000E+02  0.51100000000E-03 0.  1.
         11   -1    0    0    0    0 -0.00000000000E+00 -0.00000000000E+00 -0.45593999997E+02  0.45594000000E+02  0.51100000000E-03 0. -1.
    9900012    2    1    2    0    0 -0.82886066174E+00 -0.76349470454E+01  0.42715844458E+02  0.47787276572E+02  0.20000025200E+02 0.  0.
         12    1    1    2    0    0  0.82886066174E+00  0.76349470454E+01 -0.42715844458E+02  0.43400723428E+02  0.00000000000E+00 0. -1.
         11    1    3    3    0    0 -0.12932983611E+01 -0.31332825037E+01  0.34374386375E+01  0.48276355026E+01  0.51100000000E-03 0. -1.
        -11    1    3    3    0    0  0.44736782047E+01 -0.97890667413E+01  0.24511748889E+02  0.26770608103E+02  0.51100000000E-03 0.  1.
        -12    1    3    3    0    0 -0.40092405053E+01  0.52874021996E+01  0.14766656931E+02  0.16189032966E+02  0.00000000000E+00 0.  1.
</event>
<event>
 7    1  0.2812635E-010  0.4778727E+02  0.7816164E-02  0.1312668E+00
        -11   -1    0    0    0    0  0.00000000000E+00  0.00000000000E+00  0.45593999997E+02  0.45594000000E+02  0.51100000000E-03 0.  1.
         11   -1    0    0    0    0 -0.00000000000E+00 -0.00000000000E+00 -0.45593999997E+02  0.45594000000E+02  0.51100000000E-03 0. -1.
    9900012    2    1    2    0    0  0.25373946437E+02 -0.10055648216E+01  0.35196233794E+02  0.47787271992E+02  0.20000004320E+02 0.  0.
         12    1    1    2    0    0 -0.25373946437E+02  0.10055648216E+01 -0.35196233794E+02  0.43400728008E+02  0.00000000000E+00 0. -1.
         11    1    3    3    0    0  0.69340274074E+01 -0.12486856115E+01  0.23096520867E+02  0.24147240593E+02  0.51100000000E-03 0. -1.
        -11    1    3    3    0    0  0.42183946818E+01  0.34456959908E+01  0.51284974758E+01  0.74812539840E+01  0.51100000000E-03 0.  1.
         12    1    3    3    0    0  0.14221524347E+02 -0.32025752008E+01  0.69712154504E+01  0.16158777415E+02  0.00000000000E+00 0. -1.
</event>
<event>
 7    1  0.2812635E-010  0.4778727E+02  0.7816164E-02  0.1312668E+00
        -11   -1    0    0    0    0  0.00000000000E+00  0.00000000000E+00  0.45593999997E+02  0.45594000000E+02  0.51100000000E-03 0.  1.
         11   -1    0    0    0    0 -0.00000000000E+00 -0.00000000000E+00 -0.45593999997E+02  0.45594000000E+02  0.51100000000E-03 0. -1.
    9900012    2    1    2    0    0  0.30503929826E+02 -0.18744065296E+02  0.24531481769E+02  0.47787270554E+02  0.19999997766E+02 0.  0.
         12    1    1    2    0    0 -0.30503929826E+02  0.18744065296E+02 -0.24531481769E+02  0.43400729446E+02  0.00000000000E+00 0. -1.
         11    1    3    3    0    0 -0.11865972426E+01  0.35885025876E+00  0.37463228505E+01  0.39461020876E+01  0.51100000000E-03 0. -1.
        -11    1    3    3    0    0  0.20399851821E+02 -0.14377544305E+02  0.19223016887E+02  0.31502255682E+02  0.51100000000E-03 0.  1.
         12    1    3    3    0    0  0.11290675247E+02 -0.47253712506E+01  0.15621420310E+01  0.12338912785E+02  0.00000000000E+00 0. -1.
</event>
<event>
 7    1  0.2812635E-010  0.4778727E+02  0.7816164E-02  0.1312668E+00
        -11   -1    0    0    0    0  0.00000000000E+00  0.00000000000E+00  0.45593999997E+02  0.45594000000E+02  0.51100000000E-03 0.  1.
         11   -1    0    0    0    0 -0.00000000000E+00 -0.00000000000E+00 -0.45593999997E+02  0.45594000000E+02  0.51100000000E-03 0. -1.
    9900012    2    1    2    0    0 -0.10248744292E+01  0.26367700521E+02  0.34457472622E+02  0.47787269386E+02  0.19999992438E+02 0.  0.
         12    1    1    2    0    0  0.10248744292E+01 -0.26367700521E+02 -0.34457472622E+02  0.43400730614E+02  0.00000000000E+00 0. -1.
         11    1    3    3    0    0 -0.44227884156E+00  0.19718299535E+01 -0.26108676270E+00  0.20376188304E+01  0.51100000000E-03 0. -1.
        -11    1    3    3    0    0 -0.80530722366E+01  0.95220997404E+01  0.10177793894E+02  0.16096889287E+02  0.51100000000E-03 0.  1.
        -12    1    3    3    0    0  0.74704766489E+01  0.14873770827E+02  0.24540765490E+02  0.29652761268E+02  0.00000000000E+00 0.  1.
</event>
<event>
 7    1  0.2812635E-010  0.4778727E+02  0.7816164E-02  0.1312668E+00
        -11   -1    0    0    0    0  0.00000000000E+00  0.00000000000E+00  0.45593999997E+02  0.45594000000E+02  0.51100000000E-03 0.  1.
         11   -1    0    0    0    0 -0.00000000000E+00 -0.00000000000E+00 -0.45593999997E+02  0.45594000000E+02  0.51100000000E-03 0. -1.
    9900012    2    1    2    0    0  0.82709082089E+01 -0.42592553504E+02 -0.10439851835E+01  0.47787269112E+02  0.19999991188E+02 0.  0.
         12    1    1    2    0    0 -0.82709082089E+01  0.42592553504E+02  0.10439851835E+01  0.43400730888E+02  0.00000000000E+00 0. -1.
         11    1    3    3    0    0 -0.48047164418E+01 -0.12057112472E+02 -0.46913029760E+01  0.13800999425E+02  0.51100000000E-03 0. -1.
        -11    1    3    3    0    0  0.52466765155E+01 -0.18056978494E+02  0.41109316838E+01  0.19247904986E+02  0.51100000000E-03 0.  1.
         12    1    3    3    0    0  0.78289481352E+01 -0.12478462538E+02 -0.46361389126E+00  0.14738364701E+02  0.00000000000E+00 0. -1.
</event>
<event>
 7    1  0.2812635E-010  0.4778726E+02  0.7816164E-02  0.1312668E+00
        -11   -1    0    0    0    0  0.00000000000E+00  0.00000000000E+00  0.45593999997E+02  0.45594000000E+02  0.51100000000E-03 0.  1.
         11   -1    0    0    0    0 -0.00000000000E+00 -0.00000000000E+00 -0.45593999997E+02  0.45594000000E+02  0.51100000000E-03 0. -1.
    9900012    2    1    2    0    0  0.13949327235E+02 -0.14505166313E+02  0.38453092721E+02  0.47787263602E+02  0.19999966067E+02 0.  0.
         12    1    1    2    0    0 -0.13949327235E+02  0.14505166313E+02 -0.38453092721E+02  0.43400736398E+02  0.00000000000E+00 0. -1.
         11    1    3    3    0    0  0.63861799770E+01  0.40735394905E+01  0.81964684381E+01  0.11160605440E+02  0.51100000000E-03 0. -1.
        -11    1    3    3    0    0  0.73449404090E+01 -0.12738354279E+02  0.23155421218E+02  0.27429680118E+02  0.51100000000E-03 0.  1.
        -12    1    3    3    0    0  0.21820684878E+00 -0.58403515246E+01  0.71012030655E+01  0.91969780438E+01  0.00000000000E+00 0.  1.
</event>
<event>
 7    1  0.2812635E-010  0.4778727E+02  0.7816164E-02  0.1312668E+00
        -11   -1    0    0    0    0  0.00000000000E+00  0.00000000000E+00  0.45593999997E+02  0.45594000000E+02  0.51100000000E-03 0.  1.
         11   -1    0    0    0    0 -0.00000000000E+00 -0.00000000000E+00 -0.45593999997E+02  0.45594000000E+02  0.51100000000E-03 0. -1.
    9900012    2    1    2    0    0 -0.73113174449E+01 -0.17106929208E+02  0.39211232739E+02  0.47787272326E+02  0.20000005844E+02 0.  0.
         12    1    1    2    0    0  0.73113174449E+01  0.17106929208E+02 -0.39211232739E+02  0.43400727674E+02  0.00000000000E+00 0. -1.
         11    1    3    3    0    0  0.58820119550E+01 -0.93864885958E+01  0.14481414843E+02  0.18232268343E+02  0.51100000000E-03 0. -1.
        -11    1    3    3    0    0 -0.79840340218E+01 -0.72359857670E+01  0.18603889386E+02  0.21499046254E+02  0.51100000000E-03 0.  1.
         12    1    3    3    0    0 -0.52092953781E+01 -0.48445484503E+00  0.61259285102E+01  0.80559577299E+01  0.00000000000E+00 0. -1.
</event>
<event>
 7    1  0.2812635E-010  0.4778727E+02  0.7816164E-02  0.1312668E+00
        -11   -1    0    0    0    0  0.00000000000E+00  0.00000000000E+00  0.45593999997E+02  0.45594000000E+02  0.51100000000E-03 0.  1.
         11   -1    0    0    0    0 -0.00000000000E+00 -0.00000000000E+00 -0.45593999997E+02  0.45594000000E+02  0.51100000000E-03 0. -1.
    9900012    2    1    2    0    0 -0.10641393388E+02 -0.17219460456E+02  0.38391067491E+02  0.47787272648E+02  0.20000007311E+02 0.  0.
         12    1    1    2    0    0  0.10641393388E+02  0.17219460456E+02 -0.38391067491E+02  0.43400727352E+02  0.00000000000E+00 0. -1.
         11    1    3    3    0    0 -0.19306215825E+01  0.17236191057E+01  0.10958435691E+02  0.11259905664E+02  0.51100000000E-03 0. -1.
        -11    1    3    3    0    0 -0.21358297066E+01 -0.11749230091E+02  0.68819260467E+01  0.13782854662E+02  0.51100000000E-03 0.  1.
        -12    1    3    3    0    0 -0.65749420986E+01 -0.71938494706E+01  0.20550705753E+02  0.22744512322E+02  0.00000000000E+00 0.  1.
</event>
<event>
 7    1  0.2812635E-010  0.4778727E+02  0.7816164E-02  0.1312668E+00
        -11   -1    0    0    0    0  0.00000000000E+00  0.00000000000E+00  0.45593999997E+02  0.45594000000E+02  0.51100000000E-03 0. -1.
         11   -1    0    0    0    0 -0.00000000000E+00 -0.00000000000E+00 -0.45593999997E+02  0.45594000000E+02  0.51100000000E-03 0.  1.
    9900012    2    1    2    0    0 -0.40558479445E+02  0.35534583188E+01 -0.15033488534E+02  0.47787273066E+02  0.20000009216E+02 0.  0.
         12    1    1    2    0    0  0.40558479445E+02 -0.35534583188E+01  0.15033488534E+02  0.43400726934E+02  0.00000000000E+00 0. -1.
         11    1    3    3    0    0 -0.12558372673E+02 -0.27633734979E+01 -0.44147338943E+00  0.12866384741E+02  0.51100000000E-03 0. -1.
        -11    1    3    3    0    0 -0.62916132912E+01 -0.32736999168E+01 -0.60117119258E-01  0.70926104701E+01  0.51100000000E-03 0.  1.
        -12    1    3    3    0    0 -0.21708493481E+02  0.95905317335E+01 -0.14531898025E+02  0.27828277855E+02  0.00000000000E+00 0.  1.
</event>
<event>
 7    1  0.2812635E-010  0.4778727E+02  0.7816164E-02  0.1312668E+00
        -11   -1    0    0    0    0  0.00000000000E+00  0.00000000000E+00  0.45593999997E+02  0.45594000000E+02  0.51100000000E-03 0.  1.
         11   -1    0    0    0    0 -0.00000000000E+00 -0.00000000000E+00 -0.45593999997E+02  0.45594000000E+02  0.51100000000E-03 0. -1.
    9900012    2    1    2    0    0 -0.15293846177E+02 -0.40543621836E+02 -0.24364764894E+01  0.47787269359E+02  0.19999992317E+02 0.  0.
         12    1    1    2    0    0  0.15293846177E+02  0.40543621836E+02  0.24364764894E+01  0.43400730641E+02  0.00000000000E+00 0. -1.
         11    1    3    3    0    0 -0.10362867258E+02 -0.27632665569E+02 -0.67705837249E+00  0.29519682122E+02  0.51100000000E-03 0. -1.
        -11    1    3    3    0    0 -0.34912081770E+01 -0.15009409762E+02 -0.47611557575E+00  0.15417444737E+02  0.51100000000E-03 0.  1.
         12    1    3    3    0    0 -0.14397707417E+01  0.20984534950E+01 -0.12833025411E+01  0.28501425002E+01  0.00000000000E+00 0. -1.
</event>
<event>
 7    1  0.2812635E-010  0.4778727E+02  0.7816164E-02  0.1312668E+00
        -11   -1    0    0    0    0  0.00000000000E+00  0.00000000000E+00  0.45593999997E+02  0.45594000000E+02  0.51100000000E-03 0.  1.
         11   -1    0    0    0    0 -0.00000000000E+00 -0.00000000000E+00 -0.45593999997E+02  0.45594000000E+02  0.51100000000E-03 0. -1.
    9900012    2    1    2    0    0 -0.76881927300E+00 -0.41337965029E+02  0.13198656401E+02  0.47787274584E+02  0.20000016138E+02 0.  0.
         12    1    1    2    0    0  0.76881927300E+00  0.41337965029E+02 -0.13198656401E+02  0.43400725416E+02  0.00000000000E+00 0. -1.
         11    1    3    3    0    0 -0.62509504914E+01 -0.22196835622E+02  0.65539574746E+01  0.23973490620E+02  0.51100000000E-03 0. -1.
        -11    1    3    3    0    0  0.41792611774E+01 -0.68892333041E+00  0.22691191795E+01  0.48051786081E+01  0.51100000000E-03 0.  1.
        -12    1    3    3    0    0  0.13028700411E+01 -0.18452206077E+02  0.43755797467E+01  0.19008605356E+02  0.00000000000E+00 0.  1.
</event>
<event>
 7    1  0.2812635E-010  0.4778727E+02  0.7816164E-02  0.1312668E+00
        -11   -1    0    0    0    0  0.00000000000E+00  0.00000000000E+00  0.45593999997E+02  0.45594000000E+02  0.51100000000E-03 0.  1.
         11   -1    0    0    0    0 -0.00000000000E+00 -0.00000000000E+00 -0.45593999997E+02  0.45594000000E+02  0.51100000000E-03 0. -1.
    9900012    2    1    2    0    0 -0.31588928703E+02 -0.90131161892E+01  0.28364181893E+02  0.47787268503E+02  0.19999988413E+02 0.  0.
         12    1    1    2    0    0  0.31588928703E+02  0.90131161892E+01 -0.28364181893E+02  0.43400731497E+02  0.00000000000E+00 0. -1.
         11    1    3    3    0    0 -0.25735234598E+02 -0.71546563342E+01  0.18652935544E+02  0.32579493731E+02  0.51100000000E-03 0. -1.
        -11    1    3    3    0    0 -0.68518144800E+01 -0.18436955353E+01  0.11293156502E+02  0.13337239555E+02  0.51100000000E-03 0.  1.
         12    1    3    3    0    0  0.99812037541E+00 -0.14764319781E-01 -0.15819101533E+01  0.18705352181E+01  0.00000000000E+00 0. -1.
</event>
<event>
 7    1  0.2812635E-010  0.4778728E+02  0.7816164E-02  0.1312668E+00
        -11   -1    0    0    0    0  0.00000000000E+00  0.00000000000E+00  0.45593999997E+02  0.45594000000E+02  0.51100000000E-03 0. -1.
         11   -1    0    0    0    0 -0.00000000000E+00 -0.00000000000E+00 -0.45593999997E+02  0.45594000000E+02  0.51100000000E-03 0.  1.
    9900012    2    1    2    0    0  0.36194523710E+02  0.15209511189E+02 -0.18499996588E+02  0.47787278221E+02  0.20000032720E+02 0.  0.
         12    1    1    2    0    0 -0.36194523710E+02 -0.15209511189E+02  0.18499996588E+02  0.43400721779E+02  0.00000000000E+00 0. -1.
         11    1    3    3    0    0  0.23552455436E+01  0.26930309828E+01 -0.78420428190E+01  0.86195842871E+01  0.51100000000E-03 0. -1.
        -11    1    3    3    0    0  0.28150797786E+02  0.58529967773E+01 -0.97430799301E+01  0.30358731760E+02  0.51100000000E-03 0.  1.
        -12    1    3    3    0    0  0.56884803804E+01  0.66634834287E+01 -0.91487383874E+00  0.88089621740E+01  0.00000000000E+00 0.  1.
</event>
<event>
 7    1  0.2812635E-010  0.4778728E+02  0.7816164E-02  0.1312668E+00
        -11   -1    0    0    0    0  0.00000000000E+00  0.00000000000E+00  0.45593999997E+02  0.45594000000E+02  0.51100000000E-03 0.  1.
         11   -1    0    0    0    0 -0.00000000000E+00 -0.00000000000E+00 -0.45593999997E+02  0.45594000000E+02  0.51100000000E-03 0. -1.
    9900012    2    1    2    0    0  0.14321842697E+02 -0.49863938772E+01  0.40665015797E+02  0.47787276367E+02  0.20000024267E+02 0.  0.
         12    1    1    2    0    0 -0.14321842697E+02  0.49863938772E+01 -0.40665015797E+02  0.43400723633E+02  0.00000000000E+00 0. -1.
         11    1    3    3    0    0  0.52216465919E+01  0.88810268369E+00  0.12420800726E+01  0.54403200894E+01  0.51100000000E-03 0. -1.
        -11    1    3    3    0    0  0.19283744472E+01 -0.77950103042E+01  0.19791926690E+02  0.21358866450E+02  0.51100000000E-03 0.  1.
        -12    1    3    3    0    0  0.71718216578E+01  0.19205137434E+01  0.19631009034E+02  0.20988089828E+02  0.00000000000E+00 0.  1.
</event>
<event>
 7    1  0.2812635E-010  0.4778727E+02  0.7816164E-02  0.1312668E+00
        -11   -1    0    0    0    0  0.00000000000E+00  0.00000000000E+00  0.45593999997E+02  0.45594000000E+02  0.51100000000E-03 0. -1.
         11   -1    0    0    0    0 -0.00000000000E+00 -0.00000000000E+00 -0.45593999997E+02  0.45594000000E+02  0.51100000000E-03 0.  1.
    9900012    2    1    2    0    0 -0.54424634471E+01 -0.42358609374E+02 -0.77298837314E+01  0.47787270756E+02  0.19999998683E+02 0.  0.
         12    1    1    2    0    0  0.54424634471E+01  0.42358609374E+02  0.77298837314E+01  0.43400729244E+02  0.00000000000E+00 0. -1.
         11    1    3    3    0    0  0.36767848515E+01 -0.19684661803E+02 -0.78458668540E+01  0.21507261194E+02  0.51100000000E-03 0. -1.
        -11    1    3    3    0    0 -0.10324760624E+01 -0.37011554738E+01 -0.36671920485E+01  0.53115775851E+01  0.51100000000E-03 0.  1.
         12    1    3    3    0    0 -0.80867722362E+01 -0.18972792097E+02  0.37831751711E+01  0.20968431976E+02  0.00000000000E+00 0. -1.
</event>
<event>
 7    1  0.2812635E-010  0.4778727E+02  0.7816164E-02  0.1312668E+00
        -11   -1    0    0    0    0  0.00000000000E+00  0.00000000000E+00  0.45593999997E+02  0.45594000000E+02  0.51100000000E-03 0.  1.
         11   -1    0    0    0    0 -0.00000000000E+00 -0.00000000000E+00 -0.45593999997E+02  0.45594000000E+02  0.51100000000E-03 0. -1.
    9900012    2    1    2    0    0  0.52238516003E+01  0.49578395953E+01  0.42799003093E+02  0.47787268846E+02  0.19999989976E+02 0.  0.
         12    1    1    2    0    0 -0.52238516003E+01 -0.49578395953E+01 -0.42799003093E+02  0.43400731154E+02  0.00000000000E+00 0. -1.
         11    1    3    3    0    0 -0.31186626109E+01 -0.30785894834E+01  0.27001563543E+01  0.51472919372E+01  0.51100000000E-03 0. -1.
        -11    1    3    3    0    0  0.37486763716E+01  0.26757288898E+01  0.29799444482E+02  0.30153258387E+02  0.51100000000E-03 0.  1.
         12    1    3    3    0    0  0.45938378396E+01  0.53607001888E+01  0.10299402256E+02  0.12486718522E+02  0.00000000000E+00 0. -1.
</event>
<event>
 7    1  0.2812635E-010  0.4778727E+02  0.7816164E-02  0.1312668E+00
        -11   -1    0    0    0    0  0.00000000000E+00  0.00000000000E+00  0.45593999997E+02  0.45594000000E+02  0.51100000000E-03 0. -1.
         11   -1    0    0    0    0 -0.00000000000E+00 -0.00000000000E+00 -0.45593999997E+02  0.45594000000E+02  0.51100000000E-03 0.  1.
    9900012    2    1    2    0    0 -0.10526260091E+02 -0.10072236051E+02 -0.40882403632E+02  0.47787274000E+02  0.20000013477E+02 0.  0.
         12    1    1    2    0    0  0.10526260091E+02  0.10072236051E+02  0.40882403632E+02  0.43400726000E+02  0.00000000000E+00 0. -1.
         11    1    3    3    0    0 -0.62301082097E+01  0.35337106444E+01 -0.20593385827E+02  0.21803414854E+02  0.51100000000E-03 0. -1.
        -11    1    3    3    0    0 -0.16331291029E+01 -0.58317831006E+01 -0.15089470917E+02  0.16259426116E+02  0.51100000000E-03 0.  1.
         12    1    3    3    0    0 -0.26630227782E+01 -0.77741635949E+01 -0.51995468881E+01  0.97244330303E+01  0.00000000000E+00 0. -1.
</event>
<event>
 7    1  0.2812635E-010  0.4778727E+02  0.7816164E-02  0.1312668E+00
        -11   -1    0    0    0    0  0.00000000000E+00  0.00000000000E+00  0.45593999997E+02  0.45594000000E+02  0.51100000000E-03 0.  1.
         11   -1    0    0    0    0 -0.00000000000E+00 -0.00000000000E+00 -0.45593999997E+02  0.45594000000E+02  0.51100000000E-03 0. -1.
    9900012    2    1    2    0    0 -0.30186162319E+02  0.21967148946E+02  0.22132854621E+02  0.47787270951E+02  0.19999999572E+02 0.  0.
         12    1    1    2    0    0  0.30186162319E+02 -0.21967148946E+02 -0.22132854621E+02  0.43400729049E+02  0.00000000000E+00 0. -1.
         11    1    3    3    0    0 -0.13493829947E+02  0.79628401323E+01 -0.83410287586E+00  0.15690315404E+02  0.51100000000E-03 0. -1.
        -11    1    3    3    0    0 -0.70463138195E+01  0.47647947447E+01  0.55857289722E+01  0.10176157222E+02  0.51100000000E-03 0.  1.
         12    1    3    3    0    0 -0.96460185521E+01  0.92395140687E+01  0.17381228525E+02  0.21920798324E+02  0.00000000000E+00 0. -1.
</event>
<event>
 7    1  0.2812635E-010  0.4778727E+02  0.7816164E-02  0.1312668E+00
        -11   -1    0    0    0    0  0.00000000000E+00  0.00000000000E+00  0.45593999997E+02  0.45594000000E+02  0.51100000000E-03 0.  1.
         11   -1    0    0    0    0 -0.00000000000E+00 -0.00000000000E+00 -0.45593999997E+02  0.45594000000E+02  0.51100000000E-03 0. -1.
    9900012    2    1    2    0    0 -0.84223848892E-01  0.43218281854E+02 -0.39745204949E+01  0.47787265061E+02  0.19999972720E+02 0.  0.
         12    1    1    2    0    0  0.84223848892E-01 -0.43218281854E+02  0.39745204949E+01  0.43400734939E+02  0.00000000000E+00 0. -1.
         11    1    3    3    0    0  0.41112417821E+01  0.73442863272E+01 -0.59685208945E+01  0.10318143853E+02  0.51100000000E-03 0. -1.
        -11    1    3    3    0    0 -0.12313654049E+01  0.76185026845E+01 -0.35956979292E+01  0.85139231717E+01  0.51100000000E-03 0.  1.
         12    1    3    3    0    0 -0.29641002261E+01  0.28255492842E+02  0.55896983287E+01  0.28955198036E+02  0.00000000000E+00 0. -1.
</event>
<event>
 7    1  0.2812635E-010  0.4778727E+02  0.7816164E-02  0.1312668E+00
        -11   -1    0    0    0    0  0.00000000000E+00  0.00000000000E+00  0.45593999997E+02  0.45594000000E+02  0.51100000000E-03 0.  1.
         11   -1    0    0    0    0 -0.00000000000E+00 -0.00000000000E+00 -0.45593999997E+02  0.45594000000E+02  0.51100000000E-03 0. -1.
    9900012    2    1    2    0    0  0.17804415919E+02 -0.73070673520E+01  0.38900293721E+02  0.47787270616E+02  0.19999998047E+02 0.  0.
         12    1    1    2    0    0 -0.17804415919E+02  0.73070673520E+01 -0.38900293721E+02  0.43400729384E+02  0.00000000000E+00 0. -1.
         11    1    3    3    0    0  0.99299824782E+01 -0.35807894535E+01  0.79643716111E+01  0.13223381585E+02  0.51100000000E-03 0. -1.
        -11    1    3    3    0    0 -0.20938262932E+01 -0.19872415463E+01  0.17538943437E+02  0.17774919822E+02  0.51100000000E-03 0.  1.
        -12    1    3    3    0    0  0.99682597339E+01 -0.17390363522E+01  0.13396978672E+02  0.16788969209E+02  0.00000000000E+00 0.  1.
</event>
<event>
 7    1  0.2812635E-010  0.4778726E+02  0.7816164E-02  0.1312668E+00
        -11   -1    0    0    0    0  0.00000000000E+00  0.00000000000E+00  0.45593999997E+02  0.45594000000E+02  0.51100000000E-03 0.  1.
         11   -1    0    0    0    0 -0.00000000000E+00 -0.00000000000E+00 -0.45593999997E+02  0.45594000000E+02  0.51100000000E-03 0. -1.
    9900012    2    1    2    0    0  0.12748027513E+02 -0.22734543690E+02  0.34702343557E+02  0.47787258870E+02  0.19999944493E+02 0.  0.
         12    1    1    2    0    0 -0.12748027513E+02  0.22734543690E+02 -0.34702343557E+02  0.43400741130E+02  0.00000000000E+00 0. -1.
         11    1    3    3    0    0 -0.23829084617E+01  0.79677316740E+00  0.95150932780E+00  0.26867211391E+01  0.51100000000E-03 0. -1.
        -11    1    3    3    0    0  0.12600008510E+02 -0.22069965129E+02  0.33660412265E+02  0.42176615907E+02  0.51100000000E-03 0.  1.
         12    1    3    3    0    0  0.25309274640E+01 -0.14613517279E+01  0.90421964438E-01  0.29239218240E+01  0.00000000000E+00 0. -1.
</event>
<event>
 7    1  0.2812635E-010  0.4778727E+02  0.7816164E-02  0.1312668E+00
        -11   -1    0    0    0    0  0.00000000000E+00  0.00000000000E+00  0.45593999997E+02  0.45594000000E+02  0.51100000000E-03 0.  1.
         11   -1    0    0    0    0 -0.00000000000E+00 -0.00000000000E+00 -0.45593999997E+02  0.45594000000E+02  0.51100000000E-03 0. -1.
    9900012    2    1    2    0    0 -0.31522435972E+02  0.11266961047E+02  0.27622725378E+02  0.47787270304E+02  0.19999996624E+02 0.  0.
         12    1    1    2    0    0  0.31522435972E+02 -0.11266961047E+02 -0.27622725378E+02  0.43400729696E+02  0.00000000000E+00 0. -1.
         11    1    3    3    0    0 -0.95410858390E+01 -0.22699588268E+01  0.61077627623E+01  0.11553778528E+02  0.51100000000E-03 0. -1.
        -11    1    3    3    0    0 -0.60630095241E+01  0.79870549486E+01  0.16217083216E+01  0.10157906742E+02  0.51100000000E-03 0.  1.
        -12    1    3    3    0    0 -0.15918340609E+02  0.55498649254E+01  0.19893254294E+02  0.26075585033E+02  0.00000000000E+00 0.  1.
</event>
<event>
 7    1  0.2812635E-010  0.4778727E+02  0.7816164E-02  0.1312668E+00
        -11   -1    0    0    0    0  0.00000000000E+00  0.00000000000E+00  0.45593999997E+02  0.45594000000E+02  0.51100000000E-03 0.  1.
         11   -1    0    0    0    0 -0.00000000000E+00 -0.00000000000E+00 -0.45593999997E+02  0.45594000000E+02  0.51100000000E-03 0. -1.
    9900012    2    1    2    0    0 -0.29028259724E+02 -0.32018887229E+02  0.39717159266E+01  0.47787268101E+02  0.19999986581E+02 0.  0.
         12    1    1    2    0    0  0.29028259724E+02  0.32018887229E+02 -0.39717159266E+01  0.43400731899E+02  0.00000000000E+00 0. -1.
         11    1    3    3    0    0  0.26896196818E+01 -0.28596305556E+01 -0.25639152916E+00  0.39341171595E+01  0.51100000000E-03 0. -1.
        -11    1    3    3    0    0 -0.22132945842E+02 -0.16587133717E+02  0.76543024689E+00  0.27669228040E+02  0.51100000000E-03 0.  1.
        -12    1    3    3    0    0 -0.95849335631E+01 -0.12572122956E+02  0.34626772089E+01  0.16183922902E+02  0.00000000000E+00 0.  1.
</event>
<event>
 7    1  0.2812635E-010  0.4778727E+02  0.7816164E-02  0.1312668E+00
        -11   -1    0    0    0    0  0.00000000000E+00  0.00000000000E+00  0.45593999997E+02  0.45594000000E+02  0.51100000000E-03 0.  1.
         11   -1    0    0    0    0 -0.00000000000E+00 -0.00000000000E+00 -0.45593999997E+02  0.45594000000E+02  0.51100000000E-03 0. -1.
    9900012    2    1    2    0    0  0.76479050324E+01  0.26586811777E+01  0.42638768846E+02  0.47787266761E+02  0.19999980469E+02 0.  0.
         12    1    1    2    0    0 -0.76479050324E+01 -0.26586811777E+01 -0.42638768846E+02  0.43400733239E+02  0.00000000000E+00 0. -1.
         11    1    3    3    0    0  0.13950622356E-01 -0.36165100798E+01  0.41444093055E+01  0.55004971166E+01  0.51100000000E-03 0. -1.
        -11    1    3    3    0    0  0.60244415782E+01  0.74510486367E+01  0.39057333634E+02  0.40215511099E+02  0.51100000000E-03 0.  1.
        -12    1    3    3    0    0  0.16095128318E+01 -0.11758573793E+01 -0.56297409304E+00  0.20712585453E+01  0.00000000000E+00 0.  1.
</event>
<event>
 7    1  0.2812635E-010  0.4778727E+02  0.7816164E-02  0.1312668E+00
        -11   -1    0    0    0    0  0.00000000000E+00  0.00000000000E+00  0.45593999997E+02  0.45594000000E+02  0.51100000000E-03 0. -1.
         11   -1    0    0    0    0 -0.00000000000E+00 -0.00000000000E+00 -0.45593999997E+02  0.45594000000E+02  0.51100000000E-03 0.  1.
    9900012    2    1    2    0    0 -0.19427179554E+02  0.12184274821E+02 -0.36847679777E+02  0.47787270014E+02  0.19999995304E+02 0.  0.
         12    1    1    2    0    0  0.19427179554E+02 -0.12184274821E+02  0.36847679777E+02  0.43400729986E+02  0.00000000000E+00 0. -1.
         11    1    3    3    0    0 -0.12611781803E+02  0.55512904172E+01 -0.85711428728E+01  0.16227703348E+02  0.51100000000E-03 0. -1.
        -11    1    3    3    0    0 -0.44492045297E+01  0.93695097796E+01 -0.21780233201E+02  0.24123882212E+02  0.51100000000E-03 0.  1.
         12    1    3    3    0    0 -0.23661932211E+01 -0.27365253756E+01 -0.64963037035E+01  0.74356844539E+01  0.00000000000E+00 0. -1.
</event>
<event>
 7    1  0.2812635E-010  0.4778727E+02  0.7816164E-02  0.1312668E+00
        -11   -1    0    0    0    0  0.00000000000E+00  0.00000000000E+00  0.45593999997E+02  0.45594000000E+02  0.51100000000E-03 0. -1.
         11   -1    0    0    0    0 -0.00000000000E+00 -0.00000000000E+00 -0.45593999997E+02  0.45594000000E+02  0.51100000000E-03 0.  1.
    9900012    2    1    2    0    0  0.22440229784E+02 -0.62645704826E+01 -0.36617133596E+02  0.47787271563E+02  0.20000002364E+02 0.  0.
         12    1    1    2    0    0 -0.22440229784E+02  0.62645704826E+01  0.36617133596E+02  0.43400728437E+02  0.00000000000E+00 0. -1.
         11    1    3    3    0    0  0.67403540725E+01  0.35463677976E+01 -0.12161777305E+02  0.14349840594E+02  0.51100000000E-03 0. -1.
        -11    1    3    3    0    0  0.11052241378E+02  0.93411841198E+00 -0.12236295094E+02  0.16515191024E+02  0.51100000000E-03 0.  1.
         12    1    3    3    0    0  0.46476343331E+01 -0.10745056692E+02 -0.12219061197E+02  0.16922239945E+02  0.00000000000E+00 0. -1.
</event>
<event>
 7    1  0.2812635E-010  0.4778727E+02  0.7816164E-02  0.1312668E+00
        -11   -1    0    0    0    0  0.00000000000E+00  0.00000000000E+00  0.45593999997E+02  0.45594000000E+02  0.51100000000E-03 0.  1.
         11   -1    0    0    0    0 -0.00000000000E+00 -0.00000000000E+00 -0.45593999997E+02  0.45594000000E+02  0.51100000000E-03 0. -1.
    9900012    2    1    2    0    0 -0.12024164548E+02 -0.13456403890E+01  0.41680116389E+02  0.47787269784E+02  0.19999994252E+02 0.  0.
         12    1    1    2    0    0  0.12024164548E+02  0.13456403890E+01 -0.41680116389E+02  0.43400730216E+02  0.00000000000E+00 0. -1.
         11    1    3    3    0    0 -0.23883805286E+01  0.24554147690E+01  0.10095878848E+01  0.35710910372E+01  0.51100000000E-03 0. -1.
        -11    1    3    3    0    0 -0.78708488241E+01 -0.53031417613E+01  0.40805495599E+02  0.41894654135E+02  0.51100000000E-03 0.  1.
        -12    1    3    3    0    0 -0.17649351955E+01  0.15020866033E+01 -0.13496709478E+00  0.23215246121E+01  0.00000000000E+00 0.  1.
</event>
<event>
 7    1  0.2812635E-010  0.4778727E+02  0.7816164E-02  0.1312668E+00
        -11   -1    0    0    0    0  0.00000000000E+00  0.00000000000E+00  0.45593999997E+02  0.45594000000E+02  0.51100000000E-03 0.  1.
         11   -1    0    0    0    0 -0.00000000000E+00 -0.00000000000E+00 -0.45593999997E+02  0.45594000000E+02  0.51100000000E-03 0. -1.
    9900012    2    1    2    0    0 -0.26775170230E+02  0.25032411927E+02  0.23239881497E+02  0.47787268673E+02  0.19999989186E+02 0.  0.
         12    1    1    2    0    0  0.26775170230E+02 -0.25032411927E+02 -0.23239881497E+02  0.43400731327E+02  0.00000000000E+00 0. -1.
         11    1    3    3    0    0 -0.77272222517E+01  0.12808959027E+02  0.16280125812E+02  0.22109316855E+02  0.51100000000E-03 0. -1.
        -11    1    3    3    0    0 -0.10450346500E+02  0.14237561318E+01  0.52096544122E+01  0.11763389089E+02  0.51100000000E-03 0.  1.
        -12    1    3    3    0    0 -0.85976014783E+01  0.10799696768E+02  0.17501012728E+01  0.13914562729E+02  0.00000000000E+00 0.  1.
</event>
<event>
 7    1  0.2812635E-010  0.4778727E+02  0.7816164E-02  0.1312668E+00
        -11   -1    0    0    0    0  0.00000000000E+00  0.00000000000E+00  0.45593999997E+02  0.45594000000E+02  0.51100000000E-03 0. -1.
         11   -1    0    0    0    0 -0.00000000000E+00 -0.00000000000E+00 -0.45593999997E+02  0.45594000000E+02  0.51100000000E-03 0.  1.
    9900012    2    1    2    0    0  0.30801848326E+02 -0.14697371197E+02 -0.26811500040E+02  0.47787272877E+02  0.20000008356E+02 0.  0.
         12    1    1    2    0    0 -0.30801848326E+02  0.14697371197E+02  0.26811500040E+02  0.43400727123E+02  0.00000000000E+00 0. -1.
         11    1    3    3    0    0  0.10189973852E+02 -0.36670421443E+01 -0.91809555583E+00  0.10868563148E+02  0.51100000000E-03 0. -1.
        -11    1    3    3    0    0  0.19482959530E+02 -0.11526759016E+02 -0.27019150733E+02  0.35248920438E+02  0.51100000000E-03 0.  1.
        -12    1    3    3    0    0  0.11289149444E+01  0.49642996389E+00  0.11257462485E+01  0.16697892911E+01  0.00000000000E+00 0.  1.
</event>
<event>
 7    1  0.2812635E-010  0.4778729E+02  0.7816164E-02  0.1312668E+00
        -11   -1    0    0    0    0  0.00000000000E+00  0.00000000000E+00  0.45593999997E+02  0.45594000000E+02  0.51100000000E-03 0.  1.
         11   -1    0    0    0    0 -0.00000000000E+00 -0.00000000000E+00 -0.45593999997E+02  0.45594000000E+02  0.51100000000E-03 0. -1.
    9900012    2    1    2    0    0  0.37920783898E+02  0.20758034538E+02 -0.38392683349E+01  0.47787287671E+02  0.20000075807E+02 0.  0.
         12    1    1    2    0    0 -0.37920783898E+02 -0.20758034538E+02  0.38392683349E+01  0.43400712329E+02  0.00000000000E+00 0. -1.
         11    1    3    3    0    0 -0.14918956010E+01  0.94709273540E+00 -0.62450960656E+00  0.18742330814E+01  0.51100000000E-03 0. -1.
        -11    1    3    3    0    0  0.22370137294E+02  0.15409883864E+02  0.28096275750E+01  0.27309001641E+02  0.51100000000E-03 0.  1.
        -12    1    3    3    0    0  0.17042542204E+02  0.44010579386E+01 -0.60243863034E+01  0.18604052948E+02  0.00000000000E+00 0.  1.
</event>
<event>
 7    1  0.2812635E-010  0.4778727E+02  0.7816164E-02  0.1312668E+00
        -11   -1    0    0    0    0  0.00000000000E+00  0.00000000000E+00  0.45593999997E+02  0.45594000000E+02  0.51100000000E-03 0.  1.
         11   -1    0    0    0    0 -0.00000000000E+00 -0.00000000000E+00 -0.45593999997E+02  0.45594000000E+02  0.51100000000E-03 0. -1.
    9900012    2    1    2    0    0  0.81315140656E+01  0.87019102821E+01  0.41734617922E+02  0.47787273086E+02  0.20000009309E+02 0.  0.
         12    1    1    2    0    0 -0.81315140656E+01 -0.87019102821E+01 -0.41734617922E+02  0.43400726914E+02  0.00000000000E+00 0. -1.
         11    1    3    3    0    0 -0.39366019307E+01  0.48261284310E+01  0.93701610606E+01  0.11251145229E+02  0.51100000000E-03 0. -1.
        -11    1    3    3    0    0  0.11228400049E+02  0.34529737148E+00  0.30400788063E+02  0.32409938492E+02  0.51100000000E-03 0.  1.
        -12    1    3    3    0    0  0.83971594765E+00  0.35304844797E+01  0.19636687984E+01  0.41261893660E+01  0.00000000000E+00 0.  1.
</event>
<event>
 7    1  0.2812635E-010  0.4778727E+02  0.7816164E-02  0.1312668E+00
        -11   -1    0    0    0    0  0.00000000000E+00  0.00000000000E+00  0.45593999997E+02  0.45594000000E+02  0.51100000000E-03 0. -1.
         11   -1    0    0    0    0 -0.00000000000E+00 -0.00000000000E+00 -0.45593999997E+02  0.45594000000E+02  0.51100000000E-03 0.  1.
    9900012    2    1    2    0    0 -0.24640779441E+02  0.31383759202E+02 -0.17073813985E+02  0.47787268703E+02  0.19999989324E+02 0.  0.
         12    1    1    2    0    0  0.24640779441E+02 -0.31383759202E+02  0.17073813985E+02  0.43400731297E+02  0.00000000000E+00 0. -1.
         11    1    3    3    0    0 -0.13012030426E+02  0.83000633064E+01 -0.40525556865E+01  0.15957042162E+02  0.51100000000E-03 0. -1.
        -11    1    3    3    0    0 -0.72103156313E+01  0.22705640648E+02 -0.13479397312E+02  0.27372046341E+02  0.51100000000E-03 0.  1.
        -12    1    3    3    0    0 -0.44184333837E+01  0.37805524783E+00  0.45813901396E+00  0.44581801996E+01  0.00000000000E+00 0.  1.
</event>
<event>
 7    1  0.2812635E-010  0.4778727E+02  0.7816164E-02  0.1312668E+00
        -11   -1    0    0    0    0  0.00000000000E+00  0.00000000000E+00  0.45593999997E+02  0.45594000000E+02  0.51100000000E-03 0. -1.
         11   -1    0    0    0    0 -0.00000000000E+00 -0.00000000000E+00 -0.45593999997E+02  0.45594000000E+02  0.51100000000E-03 0.  1.
    9900012    2    1    2    0    0 -0.29788418402E+02  0.74960190680E+01 -0.30660775927E+02  0.47787270130E+02  0.19999995832E+02 0.  0.
         12    1    1    2    0    0  0.29788418402E+02 -0.74960190680E+01  0.30660775927E+02  0.43400729870E+02  0.00000000000E+00 0. -1.
         11    1    3    3    0    0 -0.32708973019E+02  0.65628573737E+01 -0.26865850525E+02  0.42833654263E+02  0.51100000000E-03 0.  1.
        -11    1    3    3    0    0  0.24373607045E+01  0.45872123285E+00 -0.32259243039E+01  0.40691203286E+01  0.51100000000E-03 0. -1.
        -12    1    3    3    0    0  0.48319391195E+00  0.47444046147E+00 -0.56900109797E+00  0.88449553843E+00  0.00000000000E+00 0.  1.
</event>
<event>
 7    1  0.2812635E-010  0.4778727E+02  0.7816164E-02  0.1312668E+00
        -11   -1    0    0    0    0  0.00000000000E+00  0.00000000000E+00  0.45593999997E+02  0.45594000000E+02  0.51100000000E-03 0.  1.
         11   -1    0    0    0    0 -0.00000000000E+00 -0.00000000000E+00 -0.45593999997E+02  0.45594000000E+02  0.51100000000E-03 0. -1.
    9900012    2    1    2    0    0 -0.14036140771E+02 -0.39153478838E+02  0.12394154138E+02  0.47787271784E+02  0.20000003372E+02 0.  0.
         12    1    1    2    0    0  0.14036140771E+02  0.39153478838E+02 -0.12394154138E+02  0.43400728216E+02  0.00000000000E+00 0. -1.
         11    1    3    3    0    0 -0.79678409433E+01 -0.17909662019E+02 -0.20934861435E+01  0.19713578250E+02  0.51100000000E-03 0. -1.
        -11    1    3    3    0    0 -0.40767359047E+01 -0.51525404876E+01  0.86026062697E+01  0.10824660919E+02  0.51100000000E-03 0.  1.
         12    1    3    3    0    0 -0.19915639234E+01 -0.16091276332E+02  0.58850340120E+01  0.17249032616E+02  0.00000000000E+00 0. -1.
</event>
<event>
 7    1  0.2812635E-010  0.4778727E+02  0.7816164E-02  0.1312668E+00
        -11   -1    0    0    0    0  0.00000000000E+00  0.00000000000E+00  0.45593999997E+02  0.45594000000E+02  0.51100000000E-03 0.  1.
         11   -1    0    0    0    0 -0.00000000000E+00 -0.00000000000E+00 -0.45593999997E+02  0.45594000000E+02  0.51100000000E-03 0. -1.
    9900012    2    1    2    0    0  0.16324181137E+02  0.29067997691E+02  0.27788414456E+02  0.47787270081E+02  0.19999995608E+02 0.  0.
         12    1    1    2    0    0 -0.16324181137E+02 -0.29067997691E+02 -0.27788414456E+02  0.43400729919E+02  0.00000000000E+00 0. -1.
         11    1    3    3    0    0  0.12180766516E+01  0.11874598057E+02  0.30483488187E+01  0.12319992716E+02  0.51100000000E-03 0. -1.
        -11    1    3    3    0    0  0.70075098456E+01  0.11509266113E+01  0.97697802550E+01  0.12078014439E+02  0.51100000000E-03 0.  1.
         12    1    3    3    0    0  0.80985946394E+01  0.16042473023E+02  0.14970285382E+02  0.23389262926E+02  0.00000000000E+00 0. -1.
</event>
<event>
 7    1  0.2812635E-010  0.4778728E+02  0.7816164E-02  0.1312668E+00
        -11   -1    0    0    0    0  0.00000000000E+00  0.00000000000E+00  0.45593999997E+02  0.45594000000E+02  0.51100000000E-03 0. -1.
         11   -1    0    0    0    0 -0.00000000000E+00 -0.00000000000E+00 -0.45593999997E+02  0.45594000000E+02  0.51100000000E-03 0.  1.
    9900012    2    1    2    0    0 -0.36619722975E+02  0.11522125606E+02 -0.20244983536E+02  0.47787275955E+02  0.20000022390E+02 0.  0.
         12    1    1    2    0    0  0.36619722975E+02 -0.11522125606E+02  0.20244983536E+02  0.43400724045E+02  0.00000000000E+00 0. -1.
         11    1    3    3    0    0 -0.15282100483E+02 -0.29500171241E+01 -0.92445804389E+01  0.18102692175E+02  0.51100000000E-03 0. -1.
        -11    1    3    3    0    0 -0.12115611615E+02  0.29817303694E+01 -0.74402667686E+01  0.14527089545E+02  0.51100000000E-03 0.  1.
         12    1    3    3    0    0 -0.92220108760E+01  0.11490412360E+02 -0.35601363289E+01  0.15157494235E+02  0.00000000000E+00 0. -1.
</event>
<event>
 7    1  0.2812635E-010  0.4778729E+02  0.7816164E-02  0.1312668E+00
        -11   -1    0    0    0    0  0.00000000000E+00  0.00000000000E+00  0.45593999997E+02  0.45594000000E+02  0.51100000000E-03 0.  1.
         11   -1    0    0    0    0 -0.00000000000E+00 -0.00000000000E+00 -0.45593999997E+02  0.45594000000E+02  0.51100000000E-03 0. -1.
    9900012    2    1    2    0    0  0.13830155980E+02 -0.18961157435E+02  0.36507847620E+02  0.47787289827E+02  0.20000085635E+02 0.  0.
         12    1    1    2    0    0 -0.13830155980E+02  0.18961157435E+02 -0.36507847620E+02  0.43400710173E+02  0.00000000000E+00 0. -1.
         11    1    3    3    0    0  0.85281361725E+01 -0.13103403024E+01  0.16541325324E+02  0.18656407532E+02  0.51100000000E-03 0. -1.
        -11    1    3    3    0    0  0.54412449284E+01 -0.53212662409E+01  0.12736493488E+02  0.14837159008E+02  0.51100000000E-03 0.  1.
         12    1    3    3    0    0 -0.13922512080E+00 -0.12329550892E+02  0.72300288077E+01  0.14293723287E+02  0.00000000000E+00 0. -1.
</event>
<event>
 7    1  0.2812635E-010  0.4778727E+02  0.7816164E-02  0.1312668E+00
        -11   -1    0    0    0    0  0.00000000000E+00  0.00000000000E+00  0.45593999997E+02  0.45594000000E+02  0.51100000000E-03 0.  1.
         11   -1    0    0    0    0 -0.00000000000E+00 -0.00000000000E+00 -0.45593999997E+02  0.45594000000E+02  0.51100000000E-03 0. -1.
    9900012    2    1    2    0    0 -0.13716832040E+02  0.45270124036E+01  0.40926495077E+02  0.47787270492E+02  0.19999997483E+02 0.  0.
         12    1    1    2    0    0  0.13716832040E+02 -0.45270124036E+01 -0.40926495077E+02  0.43400729508E+02  0.00000000000E+00 0. -1.
         11    1    3    3    0    0 -0.15590257792E+01  0.41144652673E+00  0.25423344315E+02  0.25474424155E+02  0.51100000000E-03 0.  1.
        -11    1    3    3    0    0 -0.62552631605E+01  0.63288854137E+01  0.54135471760E+01  0.10415834152E+02  0.51100000000E-03 0. -1.
         12    1    3    3    0    0 -0.59025431002E+01 -0.22133195368E+01  0.10089603586E+02  0.11897012185E+02  0.00000000000E+00 0. -1.
</event>
<event>
 7    1  0.2812635E-010  0.4778727E+02  0.7816164E-02  0.1312668E+00
        -11   -1    0    0    0    0  0.00000000000E+00  0.00000000000E+00  0.45593999997E+02  0.45594000000E+02  0.51100000000E-03 0.  1.
         11   -1    0    0    0    0 -0.00000000000E+00 -0.00000000000E+00 -0.45593999997E+02  0.45594000000E+02  0.51100000000E-03 0. -1.
    9900012    2    1    2    0    0  0.28902656904E+02 -0.28381052181E+02  0.15581258802E+02  0.47787270457E+02  0.19999997321E+02 0.  0.
         12    1    1    2    0    0 -0.28902656904E+02  0.28381052181E+02 -0.15581258802E+02  0.43400729543E+02  0.00000000000E+00 0. -1.
         11    1    3    3    0    0  0.45999185146E+01 -0.11934939660E+02 -0.33166811765E+00  0.12795000548E+02  0.51100000000E-03 0. -1.
        -11    1    3    3    0    0  0.66894023390E+01 -0.10626838515E+02  0.53827958760E+01  0.13662074959E+02  0.51100000000E-03 0.  1.
         12    1    3    3    0    0  0.17613336051E+02 -0.58192740057E+01  0.10530131043E+02  0.21330194949E+02  0.00000000000E+00 0. -1.
</event>
<event>
 7    1  0.2812635E-010  0.4778727E+02  0.7816164E-02  0.1312668E+00
        -11   -1    0    0    0    0  0.00000000000E+00  0.00000000000E+00  0.45593999997E+02  0.45594000000E+02  0.51100000000E-03 0.  1.
         11   -1    0    0    0    0 -0.00000000000E+00 -0.00000000000E+00 -0.45593999997E+02  0.45594000000E+02  0.51100000000E-03 0. -1.
    9900012    2    1    2    0    0 -0.35127765976E+02  0.16842385771E+02  0.19131056211E+02  0.47787271750E+02  0.20000003215E+02 0.  0.
         12    1    1    2    0    0  0.35127765976E+02 -0.16842385771E+02 -0.19131056211E+02  0.43400728250E+02  0.00000000000E+00 0. -1.
         11    1    3    3    0    0  0.53817289527E+00  0.47591140589E+01  0.39594793477E+01  0.62141993577E+01  0.51100000000E-03 0. -1.
        -11    1    3    3    0    0 -0.21608735027E+02  0.56794814404E+01  0.13328967058E+02  0.26016442916E+02  0.51100000000E-03 0.  1.
        -12    1    3    3    0    0 -0.14057203844E+02  0.64037902714E+01  0.18426098056E+01  0.15556629476E+02  0.00000000000E+00 0.  1.
</event>
<event>
 7    1  0.2812635E-010  0.4778727E+02  0.7816164E-02  0.1312668E+00
        -11   -1    0    0    0    0  0.00000000000E+00  0.00000000000E+00  0.45593999997E+02  0.45594000000E+02  0.51100000000E-03 0. -1.
         11   -1    0    0    0    0 -0.00000000000E+00 -0.00000000000E+00 -0.45593999997E+02  0.45594000000E+02  0.51100000000E-03 0.  1.
    9900012    2    1    2    0    0  0.32098985223E+02 -0.27975862013E+02 -0.84041321350E+01  0.47787272534E+02  0.20000006790E+02 0.  0.
         12    1    1    2    0    0 -0.32098985223E+02  0.27975862013E+02  0.84041321350E+01  0.43400727466E+02  0.00000000000E+00 0. -1.
         11    1    3    3    0    0 -0.10340607985E+01 -0.40325156932E+00 -0.43153042169E+01  0.44557540674E+01  0.51100000000E-03 0. -1.
        -11    1    3    3    0    0  0.27176547212E+02 -0.21760231039E+02 -0.31915903247E+01  0.34960815527E+02  0.51100000000E-03 0.  1.
         12    1    3    3    0    0  0.59564988091E+01 -0.58123794042E+01 -0.89723759339E+00  0.83707029394E+01  0.00000000000E+00 0. -1.
</event>
<event>
 7    1  0.2812635E-010  0.4778727E+02  0.7816164E-02  0.1312668E+00
        -11   -1    0    0    0    0  0.00000000000E+00  0.00000000000E+00  0.45593999997E+02  0.45594000000E+02  0.51100000000E-03 0. -1.
         11   -1    0    0    0    0 -0.00000000000E+00 -0.00000000000E+00 -0.45593999997E+02  0.45594000000E+02  0.51100000000E-03 0.  1.
    9900012    2    1    2    0    0 -0.26669091340E+02  0.32906926667E+02 -0.94613526896E+01  0.47787269012E+02  0.19999990733E+02 0.  0.
         12    1    1    2    0    0  0.26669091340E+02 -0.32906926667E+02  0.94613526896E+01  0.43400730988E+02  0.00000000000E+00 0. -1.
         11    1    3    3    0    0  0.78716685845E+00 -0.64589509309E+00  0.67922484085E+00  0.12239929656E+01  0.51100000000E-03 0. -1.
        -11    1    3    3    0    0 -0.25725861735E+02  0.25702685987E+02 -0.42828185308E+01  0.36616807121E+02  0.51100000000E-03 0.  1.
         12    1    3    3    0    0 -0.17303964639E+01  0.78501357729E+01 -0.58577589997E+01  0.99464689249E+01  0.00000000000E+00 0. -1.
</event>
<event>
 7    1  0.2812635E-010  0.4778727E+02  0.7816164E-02  0.1312668E+00
        -11   -1    0    0    0    0  0.00000000000E+00  0.00000000000E+00  0.45593999997E+02  0.45594000000E+02  0.51100000000E-03 0.  1.
         11   -1    0    0    0    0 -0.00000000000E+00 -0.00000000000E+00 -0.45593999997E+02  0.45594000000E+02  0.51100000000E-03 0. -1.
    9900012    2    1    2    0    0 -0.36673254141E+02 -0.99604279479E+01  0.20963911587E+02  0.47787270937E+02  0.19999999508E+02 0.  0.
         12    1    1    2    0    0  0.36673254141E+02  0.99604279479E+01 -0.20963911587E+02  0.43400729063E+02  0.00000000000E+00 0. -1.
         11    1    3    3    0    0 -0.71900743882E+01 -0.23378944527E+01 -0.28040870219E+01  0.80638591547E+01  0.51100000000E-03 0. -1.
        -11    1    3    3    0    0 -0.27000625450E+02 -0.90441919783E+01  0.19234461852E+02  0.34362708074E+02  0.51100000000E-03 0.  1.
         12    1    3    3    0    0 -0.24825543034E+01  0.14216584831E+01  0.45335367571E+01  0.53607037075E+01  0.00000000000E+00 0. -1.
</event>
<event>
 7    1  0.2812635E-010  0.4778727E+02  0.7816164E-02  0.1312668E+00
        -11   -1    0    0    0    0  0.00000000000E+00  0.00000000000E+00  0.45593999997E+02  0.45594000000E+02  0.51100000000E-03 0.  1.
         11   -1    0    0    0    0 -0.00000000000E+00 -0.00000000000E+00 -0.45593999997E+02  0.45594000000E+02  0.51100000000E-03 0. -1.
    9900012    2    1    2    0    0 -0.11198114729E+02 -0.36410304832E+02  0.20797001763E+02  0.47787270124E+02  0.19999995802E+02 0.  0.
         12    1    1    2    0    0  0.11198114729E+02  0.36410304832E+02 -0.20797001763E+02  0.43400729876E+02  0.00000000000E+00 0. -1.
         11    1    3    3    0    0  0.28074446862E+01 -0.10631906992E+02  0.18215567080E+01  0.11146176971E+02  0.51100000000E-03 0. -1.
        -11    1    3    3    0    0 -0.14562133110E+02 -0.20363497443E+02  0.18593907283E+02  0.31184309150E+02  0.51100000000E-03 0.  1.
        -12    1    3    3    0    0  0.55657369461E+00 -0.54149003970E+01  0.38153777183E+00  0.54567840033E+01  0.00000000000E+00 0.  1.
</event>
<event>
 7    1  0.2812635E-010  0.4778726E+02  0.7816164E-02  0.1312668E+00
        -11   -1    0    0    0    0  0.00000000000E+00  0.00000000000E+00  0.45593999997E+02  0.45594000000E+02  0.51100000000E-03 0.  1.
         11   -1    0    0    0    0 -0.00000000000E+00 -0.00000000000E+00 -0.45593999997E+02  0.45594000000E+02  0.51100000000E-03 0. -1.
    9900012    2    1    2    0    0  0.10690611648E+01 -0.15968305304E+02  0.40342217685E+02  0.47787260446E+02  0.19999951678E+02 0.  0.
         12    1    1    2    0    0 -0.10690611648E+01  0.15968305304E+02 -0.40342217685E+02  0.43400739554E+02  0.00000000000E+00 0. -1.
         11    1    3    3    0    0 -0.83100641238E+01 -0.74283123599E+01  0.13777372696E+02  0.17721540252E+02  0.51100000000E-03 0. -1.
        -11    1    3    3    0    0  0.45946672987E+01 -0.58633638244E+01  0.20875834818E+02  0.22165073484E+02  0.51100000000E-03 0.  1.
         12    1    3    3    0    0  0.47844579900E+01 -0.26766291198E+01  0.56890101712E+01  0.79006467097E+01  0.00000000000E+00 0. -1.
</event>
<event>
 7    1  0.2812635E-010  0.4778727E+02  0.7816164E-02  0.1312668E+00
        -11   -1    0    0    0    0  0.00000000000E+00  0.00000000000E+00  0.45593999997E+02  0.45594000000E+02  0.51100000000E-03 0.  1.
         11   -1    0    0    0    0 -0.00000000000E+00 -0.00000000000E+00 -0.45593999997E+02  0.45594000000E+02  0.51100000000E-03 0. -1.
    9900012    2    1    2    0    0 -0.39127428570E+02 -0.88805838204E+01  0.16546986486E+02  0.47787271927E+02  0.20000004026E+02 0.  0.
         12    1    1    2    0    0  0.39127428570E+02  0.88805838204E+01 -0.16546986486E+02  0.43400728073E+02  0.00000000000E+00 0. -1.
         11    1    3    3    0    0 -0.22193570929E+02 -0.61107717718E+01 -0.69734716023E+00  0.23030032904E+02  0.51100000000E-03 0. -1.
        -11    1    3    3    0    0 -0.86637024224E+01 -0.32515400470E+01  0.11051684269E+02  0.14414297686E+02  0.51100000000E-03 0.  1.
        -12    1    3    3    0    0 -0.82701552184E+01  0.48172799845E+00  0.61926493769E+01  0.10342941337E+02  0.00000000000E+00 0.  1.
</event>
<event>
 7    1  0.2812635E-010  0.4778727E+02  0.7816164E-02  0.1312668E+00
        -11   -1    0    0    0    0  0.00000000000E+00  0.00000000000E+00  0.45593999997E+02  0.45594000000E+02  0.51100000000E-03 0.  1.
         11   -1    0    0    0    0 -0.00000000000E+00 -0.00000000000E+00 -0.45593999997E+02  0.45594000000E+02  0.51100000000E-03 0. -1.
    9900012    2    1    2    0    0 -0.33423656558E+02  0.11784729795E+02  0.25052000246E+02  0.47787269702E+02  0.19999993881E+02 0.  0.
         12    1    1    2    0    0  0.33423656558E+02 -0.11784729795E+02 -0.25052000246E+02  0.43400730298E+02  0.00000000000E+00 0. -1.
         11    1    3    3    0    0 -0.18939114944E+01 -0.67092594311E+00  0.19553194360E+01  0.28036256397E+01  0.51100000000E-03 0. -1.
        -11    1    3    3    0    0 -0.24295393845E+02  0.27258963682E+01  0.82216335522E+01  0.25793253606E+02  0.51100000000E-03 0.  1.
        -12    1    3    3    0    0 -0.72343512189E+01  0.97297593694E+01  0.14875047258E+02  0.19190390456E+02  0.00000000000E+00 0.  1.
</event>
<event>
 7    1  0.2812635E-010  0.4778727E+02  0.7816164E-02  0.1312668E+00
        -11   -1    0    0    0    0  0.00000000000E+00  0.00000000000E+00  0.45593999997E+02  0.45594000000E+02  0.51100000000E-03 0.  1.
         11   -1    0    0    0    0 -0.00000000000E+00 -0.00000000000E+00 -0.45593999997E+02  0.45594000000E+02  0.51100000000E-03 0. -1.
    9900012    2    1    2    0    0  0.36613063634E+02  0.20608356986E+02  0.10881288968E+02  0.47787271251E+02  0.20000000943E+02 0.  0.
         12    1    1    2    0    0 -0.36613063634E+02 -0.20608356986E+02 -0.10881288968E+02  0.43400728749E+02  0.00000000000E+00 0. -1.
         11    1    3    3    0    0  0.33637872768E+02  0.16913099886E+02  0.81962689940E+01  0.38532301486E+02  0.51100000000E-03 0. -1.
        -11    1    3    3    0    0  0.25295716826E+01  0.53101436821E+01 -0.23716530595E+00  0.58866464533E+01  0.51100000000E-03 0.  1.
         12    1    3    3    0    0  0.44561918328E+00 -0.16148865815E+01  0.29221852798E+01  0.33683233125E+01  0.00000000000E+00 0. -1.
</event>
<event>
 7    1  0.2812635E-010  0.4778728E+02  0.7816164E-02  0.1312668E+00
        -11   -1    0    0    0    0  0.00000000000E+00  0.00000000000E+00  0.45593999997E+02  0.45594000000E+02  0.51100000000E-03 0. -1.
         11   -1    0    0    0    0 -0.00000000000E+00 -0.00000000000E+00 -0.45593999997E+02  0.45594000000E+02  0.51100000000E-03 0.  1.
    9900012    2    1    2    0    0 -0.63622688239E+00  0.37633655149E+02 -0.21608472701E+02  0.47787275617E+02  0.20000020847E+02 0.  0.
         12    1    1    2    0    0  0.63622688239E+00 -0.37633655149E+02  0.21608472701E+02  0.43400724383E+02  0.00000000000E+00 0. -1.
         11    1    3    3    0    0  0.55538757277E+01  0.11145970795E+02 -0.25378571320E+01  0.12709009389E+02  0.51100000000E-03 0. -1.
        -11    1    3    3    0    0 -0.91812035138E+01  0.23281878869E+02 -0.16779416368E+02  0.30131199703E+02  0.51100000000E-03 0.  1.
        -12    1    3    3    0    0  0.29911009037E+01  0.32058054853E+01 -0.22911992009E+01  0.49470665251E+01  0.00000000000E+00 0.  1.
</event>
<event>
 7    1  0.2812635E-010  0.4778727E+02  0.7816164E-02  0.1312668E+00
        -11   -1    0    0    0    0  0.00000000000E+00  0.00000000000E+00  0.45593999997E+02  0.45594000000E+02  0.51100000000E-03 0.  1.
         11   -1    0    0    0    0 -0.00000000000E+00 -0.00000000000E+00 -0.45593999997E+02  0.45594000000E+02  0.51100000000E-03 0. -1.
    9900012    2    1    2    0    0 -0.51305890323E+01  0.29623744762E+01  0.42994474129E+02  0.47787269453E+02  0.19999992744E+02 0.  0.
         12    1    1    2    0    0  0.51305890323E+01 -0.29623744762E+01 -0.42994474129E+02  0.43400730547E+02  0.00000000000E+00 0. -1.
         11    1    3    3    0    0 -0.27734313853E+01  0.19021206743E+01  0.16718874846E+01  0.37556880502E+01  0.51100000000E-03 0. -1.
        -11    1    3    3    0    0  0.22037763679E+01  0.71000292816E+01  0.24070502728E+02  0.25192382736E+02  0.51100000000E-03 0.  1.
        -12    1    3    3    0    0 -0.45609340149E+01 -0.60397754797E+01  0.17252083916E+02  0.18839198666E+02  0.00000000000E+00 0.  1.
</event>
<event>
 7    1  0.2812635E-010  0.4778727E+02  0.7816164E-02  0.1312668E+00
        -11   -1    0    0    0    0  0.00000000000E+00  0.00000000000E+00  0.45593999997E+02  0.45594000000E+02  0.51100000000E-03 0.  1.
         11   -1    0    0    0    0 -0.00000000000E+00 -0.00000000000E+00 -0.45593999997E+02  0.45594000000E+02  0.51100000000E-03 0. -1.
    9900012    2    1    2    0    0  0.34963310812E+02 -0.16778761760E+02  0.19484953093E+02  0.47787270211E+02  0.19999996202E+02 0.  0.
         12    1    1    2    0    0 -0.34963310812E+02  0.16778761760E+02 -0.19484953093E+02  0.43400729789E+02  0.00000000000E+00 0. -1.
         11    1    3    3    0    0  0.28823695236E+02 -0.93295184276E+01  0.81731091770E+01  0.31379054081E+02  0.51100000000E-03 0.  1.
        -11    1    3    3    0    0  0.48441445680E+01 -0.29751603500E+01  0.10108583595E+02  0.11597447058E+02  0.51100000000E-03 0. -1.
        -12    1    3    3    0    0  0.12954710078E+01 -0.44740829824E+01  0.12032603217E+01  0.48107690723E+01  0.00000000000E+00 0.  1.
</event>
<event>
 7    1  0.2812635E-010  0.4778727E+02  0.7816164E-02  0.1312668E+00
        -11   -1    0    0    0    0  0.00000000000E+00  0.00000000000E+00  0.45593999997E+02  0.45594000000E+02  0.51100000000E-03 0. -1.
         11   -1    0    0    0    0 -0.00000000000E+00 -0.00000000000E+00 -0.45593999997E+02  0.45594000000E+02  0.51100000000E-03 0.  1.
    9900012    2    1    2    0    0 -0.30658431733E+02 -0.27047113214E+02 -0.14564952112E+02  0.47787267293E+02  0.19999982895E+02 0.  0.
         12    1    1    2    0    0  0.30658431733E+02  0.27047113214E+02  0.14564952112E+02  0.43400732707E+02  0.00000000000E+00 0. -1.
         11    1    3    3    0    0 -0.14435468748E+02 -0.38758385188E+01 -0.56611849669E+01  0.15982925191E+02  0.51100000000E-03 0. -1.
        -11    1    3    3    0    0 -0.12892928852E+02 -0.23724626423E+02 -0.68644823960E+01  0.27860485138E+02  0.51100000000E-03 0.  1.
         12    1    3    3    0    0 -0.33300341329E+01  0.55335172822E+00 -0.20392847488E+01  0.39438569634E+01  0.00000000000E+00 0. -1.
</event>
<event>
 7    1  0.2812635E-010  0.4778729E+02  0.7816164E-02  0.1312668E+00
        -11   -1    0    0    0    0  0.00000000000E+00  0.00000000000E+00  0.45593999997E+02  0.45594000000E+02  0.51100000000E-03 0. -1.
         11   -1    0    0    0    0 -0.00000000000E+00 -0.00000000000E+00 -0.45593999997E+02  0.45594000000E+02  0.51100000000E-03 0.  1.
    9900012    2    1    2    0    0  0.45753205780E+01  0.59550690976E+01 -0.42746050845E+02  0.47787294140E+02  0.20000105300E+02 0.  0.
         12    1    1    2    0    0 -0.45753205780E+01 -0.59550690976E+01  0.42746050845E+02  0.43400705860E+02  0.00000000000E+00 0. -1.
         11    1    3    3    0    0 -0.11299850737E+01  0.37464843807E+01 -0.73822292501E+01  0.83552570543E+01  0.51100000000E-03 0. -1.
        -11    1    3    3    0    0 -0.37250878447E+01 -0.42136180317E+01 -0.15965098287E+02  0.16926760468E+02  0.51100000000E-03 0.  1.
        -12    1    3    3    0    0  0.94303934964E+01  0.64222027487E+01 -0.19398723308E+02  0.22505276617E+02  0.00000000000E+00 0.  1.
</event>
<event>
 7    1  0.2812635E-010  0.4778727E+02  0.7816164E-02  0.1312668E+00
        -11   -1    0    0    0    0  0.00000000000E+00  0.00000000000E+00  0.45593999997E+02  0.45594000000E+02  0.51100000000E-03 0. -1.
         11   -1    0    0    0    0 -0.00000000000E+00 -0.00000000000E+00 -0.45593999997E+02  0.45594000000E+02  0.51100000000E-03 0.  1.
    9900012    2    1    2    0    0  0.21150078838E+02 -0.31994656708E+02 -0.20313524757E+02  0.47787272117E+02  0.20000004890E+02 0.  0.
         12    1    1    2    0    0 -0.21150078838E+02  0.31994656708E+02  0.20313524757E+02  0.43400727883E+02  0.00000000000E+00 0. -1.
         11    1    3    3    0    0  0.16090743850E+01 -0.10937819501E+02 -0.36339731576E+01  0.11637472964E+02  0.51100000000E-03 0. -1.
        -11    1    3    3    0    0  0.20288838307E+02 -0.14451968600E+02 -0.15664379966E+02  0.29425654729E+02  0.51100000000E-03 0.  1.
        -12    1    3    3    0    0 -0.74783385404E+00 -0.66048686069E+01 -0.10151716335E+01  0.67241444239E+01  0.00000000000E+00 0.  1.
</event>
<event>
 7    1  0.2812635E-010  0.4778725E+02  0.7816164E-02  0.1312668E+00
        -11   -1    0    0    0    0  0.00000000000E+00  0.00000000000E+00  0.45593999997E+02  0.45594000000E+02  0.51100000000E-03 0. -1.
         11   -1    0    0    0    0 -0.00000000000E+00 -0.00000000000E+00 -0.45593999997E+02  0.45594000000E+02  0.51100000000E-03 0.  1.
    9900012    2    1    2    0    0 -0.62357735576E+01 -0.37754308103E+02  0.20478086879E+02  0.47787254679E+02  0.19999925384E+02 0.  0.
         12    1    1    2    0    0  0.62357735576E+01  0.37754308103E+02 -0.20478086879E+02  0.43400745321E+02  0.00000000000E+00 0. -1.
         11    1    3    3    0    0 -0.36809414956E+01 -0.28656143485E+02  0.16539291983E+02  0.33290720468E+02  0.51100000000E-03 0. -1.
        -11    1    3    3    0    0 -0.33220841910E+01 -0.99524370078E+01  0.60367264985E+01  0.12104929279E+02  0.51100000000E-03 0.  1.
         12    1    3    3    0    0  0.76725212899E+00  0.85427239035E+00 -0.20979316018E+01  0.23916049323E+01  0.00000000000E+00 0. -1.
</event>
<event>
 7    1  0.2812635E-010  0.4778727E+02  0.7816164E-02  0.1312668E+00
        -11   -1    0    0    0    0  0.00000000000E+00  0.00000000000E+00  0.45593999997E+02  0.45594000000E+02  0.51100000000E-03 0.  1.
         11   -1    0    0    0    0 -0.00000000000E+00 -0.00000000000E+00 -0.45593999997E+02  0.45594000000E+02  0.51100000000E-03 0. -1.
    9900012    2    1    2    0    0  0.76944351121E+01 -0.27996188889E+02  0.32258833669E+02  0.47787271046E+02  0.20000000008E+02 0.  0.
         12    1    1    2    0    0 -0.76944351121E+01  0.27996188889E+02 -0.32258833669E+02  0.43400728954E+02  0.00000000000E+00 0. -1.
         11    1    3    3    0    0  0.32551959525E+01 -0.10712688951E+02  0.26460889793E+01  0.11504772592E+02  0.51100000000E-03 0. -1.
        -11    1    3    3    0    0 -0.17019871048E+01 -0.13512486132E+02  0.21287625678E+02  0.25271467089E+02  0.51100000000E-03 0.  1.
         12    1    3    3    0    0  0.61412262643E+01 -0.37710138061E+01  0.83251190122E+01  0.11011031365E+02  0.00000000000E+00 0. -1.
</event>
<event>
 7    1  0.2831266E-010  0.4778727E+02  0.7816164E-02  0.1312668E+00
        -11   -1    0    0    0    0  0.00000000000E+00  0.00000000000E+00  0.45593999997E+02  0.45594000000E+02  0.51100000000E-03 0.  1.
         11   -1    0    0    0    0 -0.00000000000E+00 -0.00000000000E+00 -0.45593999997E+02  0.45594000000E+02  0.51100000000E-03 0. -1.
    9900012    2    1    2    0    0 -0.11677133826E+02  0.30968297355E+02  0.28075472530E+02  0.47787273586E+02  0.20000011590E+02 0.  0.
         12    1    1    2    0    0  0.11677133826E+02 -0.30968297355E+02 -0.28075472530E+02  0.43400726414E+02  0.00000000000E+00 0. -1.
         11    1    3    3    0    0  0.39923308216E+01  0.11166807815E+02  0.35763417090E+01  0.12386546026E+02  0.51100000000E-03 0. -1.
        -11    1    3    3    0    0 -0.11812355789E+02  0.16584929079E+02  0.17922847361E+02  0.27126003754E+02  0.51100000000E-03 0.  1.
         12    1    3    3    0    0 -0.38571088588E+01  0.32165604608E+01  0.65762834596E+01  0.82747238074E+01  0.00000000000E+00 0. -1.
</event>
<event>
 7    1  0.2812635E-010  0.4778727E+02  0.7816164E-02  0.1312668E+00
        -11   -1    0    0    0    0  0.00000000000E+00  0.00000000000E+00  0.45593999997E+02  0.45594000000E+02  0.51100000000E-03 0.  1.
         11   -1    0    0    0    0 -0.00000000000E+00 -0.00000000000E+00 -0.45593999997E+02  0.45594000000E+02  0.51100000000E-03 0. -1.
    9900012    2    1    2    0    0  0.30523171174E+02  0.27597666555E+02  0.13795952802E+02  0.47787268537E+02  0.19999988567E+02 0.  0.
         12    1    1    2    0    0 -0.30523171174E+02 -0.27597666555E+02 -0.13795952802E+02  0.43400731463E+02  0.00000000000E+00 0. -1.
         11    1    3    3    0    0 -0.19888038519E+00  0.65819937454E+01 -0.74935306533E+00  0.66274976688E+01  0.51100000000E-03 0. -1.
        -11    1    3    3    0    0  0.19817360991E+02  0.98709572355E+01  0.44433642098E+01  0.22581122185E+02  0.51100000000E-03 0.  1.
         12    1    3    3    0    0  0.10904690569E+02  0.11144715574E+02  0.10101941658E+02  0.18578648683E+02  0.00000000000E+00 0. -1.
</event>
<event>
 7    1  0.2812635E-010  0.4778728E+02  0.7816164E-02  0.1312668E+00
        -11   -1    0    0    0    0  0.00000000000E+00  0.00000000000E+00  0.45593999997E+02  0.45594000000E+02  0.51100000000E-03 0.  1.
         11   -1    0    0    0    0 -0.00000000000E+00 -0.00000000000E+00 -0.45593999997E+02  0.45594000000E+02  0.51100000000E-03 0. -1.
    9900012    2    1    2    0    0 -0.17069231865E+01 -0.25838735163E+02  0.34829137009E+02  0.47787278735E+02  0.20000035063E+02 0.  0.
         12    1    1    2    0    0  0.17069231865E+01  0.25838735163E+02 -0.34829137009E+02  0.43400721265E+02  0.00000000000E+00 0. -1.
         11    1    3    3    0    0  0.30550836719E+01 -0.15511137348E+02  0.11165029136E+02  0.19354244856E+02  0.51100000000E-03 0. -1.
        -11    1    3    3    0    0 -0.11425596992E+01 -0.15121180312E+00  0.13667442577E+02  0.13715950369E+02  0.51100000000E-03 0.  1.
        -12    1    3    3    0    0 -0.36194471593E+01 -0.10176386012E+02  0.99966652961E+01  0.14717083510E+02  0.00000000000E+00 0.  1.
</event>
<event>
 7    1  0.2812635E-010  0.4778727E+02  0.7816164E-02  0.1312668E+00
        -11   -1    0    0    0    0  0.00000000000E+00  0.00000000000E+00  0.45593999997E+02  0.45594000000E+02  0.51100000000E-03 0. -1.
         11   -1    0    0    0    0 -0.00000000000E+00 -0.00000000000E+00 -0.45593999997E+02  0.45594000000E+02  0.51100000000E-03 0.  1.
    9900012    2    1    2    0    0 -0.42876326186E+02  0.67153400969E+01  0.38502269161E+00  0.47787269796E+02  0.19999994307E+02 0.  0.
         12    1    1    2    0    0  0.42876326186E+02 -0.67153400969E+01 -0.38502269161E+00  0.43400730204E+02  0.00000000000E+00 0. -1.
         11    1    3    3    0    0 -0.19951792124E+02 -0.45710971163E+01 -0.18934974446E+01  0.20556124894E+02  0.51100000000E-03 0. -1.
        -11    1    3    3    0    0 -0.11477971440E+02  0.38575021030E+01  0.53591088516E+01  0.13241759656E+02  0.51100000000E-03 0.  1.
         12    1    3    3    0    0 -0.11446562622E+02  0.74289351102E+01 -0.30805887154E+01  0.13989385246E+02  0.00000000000E+00 0. -1.
</event>
<event>
 7    1  0.2812635E-010  0.4778727E+02  0.7816164E-02  0.1312668E+00
        -11   -1    0    0    0    0  0.00000000000E+00  0.00000000000E+00  0.45593999997E+02  0.45594000000E+02  0.51100000000E-03 0. -1.
         11   -1    0    0    0    0 -0.00000000000E+00 -0.00000000000E+00 -0.45593999997E+02  0.45594000000E+02  0.51100000000E-03 0.  1.
    9900012    2    1    2    0    0 -0.37493543992E+02 -0.99511675189E+01 -0.19463590880E+02  0.47787274821E+02  0.20000017220E+02 0.  0.
         12    1    1    2    0    0  0.37493543992E+02  0.99511675189E+01  0.19463590880E+02  0.43400725179E+02  0.00000000000E+00 0. -1.
         11    1    3    3    0    0 -0.28948984275E+01 -0.69946965350E+01  0.73439433415E+00  0.76056263267E+01  0.51100000000E-03 0. -1.
        -11    1    3    3    0    0 -0.16035120450E+02 -0.92524226557E+00 -0.92860926220E+01  0.18552969507E+02  0.51100000000E-03 0.  1.
         12    1    3    3    0    0 -0.18563525115E+02 -0.20312287183E+01 -0.10911892592E+02  0.21628678988E+02  0.00000000000E+00 0. -1.
</event>
<event>
 7    1  0.2812635E-010  0.4778727E+02  0.7816164E-02  0.1312668E+00
        -11   -1    0    0    0    0  0.00000000000E+00  0.00000000000E+00  0.45593999997E+02  0.45594000000E+02  0.51100000000E-03 0.  1.
         11   -1    0    0    0    0 -0.00000000000E+00 -0.00000000000E+00 -0.45593999997E+02  0.45594000000E+02  0.51100000000E-03 0. -1.
    9900012    2    1    2    0    0 -0.20112736265E+02  0.48608869486E+01  0.38150658832E+02  0.47787272456E+02  0.20000006437E+02 0.  0.
         12    1    1    2    0    0  0.20112736265E+02 -0.48608869486E+01 -0.38150658832E+02  0.43400727544E+02  0.00000000000E+00 0. -1.
         11    1    3    3    0    0 -0.37417546186E+01 -0.45107168158E+01  0.15947453747E+02  0.16990249413E+02  0.51100000000E-03 0. -1.
        -11    1    3    3    0    0 -0.51504844842E+01 -0.18201369260E+01  0.64362360625E+01  0.84418910064E+01  0.51100000000E-03 0.  1.
         12    1    3    3    0    0 -0.11220497162E+02  0.11191740690E+02  0.15766969023E+02  0.22355132037E+02  0.00000000000E+00 0. -1.
</event>
<event>
 7    1  0.2812635E-010  0.4778727E+02  0.7816164E-02  0.1312668E+00
        -11   -1    0    0    0    0  0.00000000000E+00  0.00000000000E+00  0.45593999997E+02  0.45594000000E+02  0.51100000000E-03 0. -1.
         11   -1    0    0    0    0 -0.00000000000E+00 -0.00000000000E+00 -0.45593999997E+02  0.45594000000E+02  0.51100000000E-03 0.  1.
    9900012    2    1    2    0    0 -0.40673646545E+02  0.71353600474E+01 -0.13355321357E+02  0.47787268498E+02  0.19999988392E+02 0.  0.
         12    1    1    2    0    0  0.40673646545E+02 -0.71353600474E+01  0.13355321357E+02  0.43400731502E+02  0.00000000000E+00 0. -1.
         11    1    3    3    0    0 -0.27133750647E+02  0.94160934226E+01 -0.14099212033E+01  0.28755714521E+02  0.51100000000E-03 0. -1.
        -11    1    3    3    0    0 -0.11441801613E+02 -0.25468754685E+01 -0.69999509224E+01  0.13652864607E+02  0.51100000000E-03 0.  1.
         12    1    3    3    0    0 -0.20980942854E+01  0.26614209333E+00 -0.49454492318E+01  0.53786893709E+01  0.00000000000E+00 0. -1.
</event>
<event>
 7    1  0.2812635E-010  0.4778727E+02  0.7816164E-02  0.1312668E+00
        -11   -1    0    0    0    0  0.00000000000E+00  0.00000000000E+00  0.45593999997E+02  0.45594000000E+02  0.51100000000E-03 0.  1.
         11   -1    0    0    0    0 -0.00000000000E+00 -0.00000000000E+00 -0.45593999997E+02  0.45594000000E+02  0.51100000000E-03 0. -1.
    9900012    2    1    2    0    0  0.24577719755E+02  0.19589939518E+02  0.29929805238E+02  0.47787270971E+02  0.19999999665E+02 0.  0.
         12    1    1    2    0    0 -0.24577719755E+02 -0.19589939518E+02 -0.29929805238E+02  0.43400729029E+02  0.00000000000E+00 0. -1.
         11    1    3    3    0    0 -0.22375038124E+01  0.44987015494E+01  0.57986276727E+01  0.76726020416E+01  0.51100000000E-03 0. -1.
        -11    1    3    3    0    0  0.24952407332E+02  0.13497186388E+02  0.18221928794E+02  0.33716989209E+02  0.51100000000E-03 0.  1.
        -12    1    3    3    0    0  0.18628162353E+01  0.15940515803E+01  0.59092487715E+01  0.63976797209E+01  0.00000000000E+00 0.  1.
</event>
<event>
 7    1  0.2812635E-010  0.4778727E+02  0.7816164E-02  0.1312668E+00
        -11   -1    0    0    0    0  0.00000000000E+00  0.00000000000E+00  0.45593999997E+02  0.45594000000E+02  0.51100000000E-03 0. -1.
         11   -1    0    0    0    0 -0.00000000000E+00 -0.00000000000E+00 -0.45593999997E+02  0.45594000000E+02  0.51100000000E-03 0.  1.
    9900012    2    1    2    0    0 -0.40496710006E+02 -0.11720201043E+02  0.10309060586E+02  0.47787270007E+02  0.19999995268E+02 0.  0.
         12    1    1    2    0    0  0.40496710006E+02  0.11720201043E+02 -0.10309060586E+02  0.43400729993E+02  0.00000000000E+00 0. -1.
         11    1    3    3    0    0 -0.12004315839E+02  0.58646795903E+00  0.11239181607E+02  0.16454991549E+02  0.51100000000E-03 0. -1.
        -11    1    3    3    0    0 -0.15654137198E+02 -0.46320469261E+01  0.26597775847E+00  0.16327235362E+02  0.51100000000E-03 0.  1.
         12    1    3    3    0    0 -0.12838256969E+02 -0.76746220764E+01 -0.11960987785E+01  0.15005043096E+02  0.00000000000E+00 0. -1.
</event>
<event>
 7    1  0.2812635E-010  0.4778727E+02  0.7816164E-02  0.1312668E+00
        -11   -1    0    0    0    0  0.00000000000E+00  0.00000000000E+00  0.45593999997E+02  0.45594000000E+02  0.51100000000E-03 0. -1.
         11   -1    0    0    0    0 -0.00000000000E+00 -0.00000000000E+00 -0.45593999997E+02  0.45594000000E+02  0.51100000000E-03 0.  1.
    9900012    2    1    2    0    0 -0.28847373893E+02 -0.74311427958E-01 -0.32426016075E+02  0.47787273956E+02  0.20000013273E+02 0.  0.
         12    1    1    2    0    0  0.28847373893E+02  0.74311427958E-01  0.32426016075E+02  0.43400726044E+02  0.00000000000E+00 0. -1.
         11    1    3    3    0    0 -0.23895247970E+02  0.62651114201E+00 -0.12911269801E+02  0.27167559329E+02  0.51100000000E-03 0. -1.
        -11    1    3    3    0    0 -0.33610046649E+01 -0.16548193578E+01 -0.67419416336E+01  0.77128825167E+01  0.51100000000E-03 0.  1.
         12    1    3    3    0    0 -0.15911212574E+01  0.95399678785E+00 -0.12772804640E+02  0.12906832110E+02  0.00000000000E+00 0. -1.
</event>
<event>
 7    1  0.2812635E-010  0.4778727E+02  0.7816164E-02  0.1312668E+00
        -11   -1    0    0    0    0  0.00000000000E+00  0.00000000000E+00  0.45593999997E+02  0.45594000000E+02  0.51100000000E-03 0.  1.
         11   -1    0    0    0    0 -0.00000000000E+00 -0.00000000000E+00 -0.45593999997E+02  0.45594000000E+02  0.51100000000E-03 0. -1.
    9900012    2    1    2    0    0 -0.10606713415E+02 -0.40376188583E+02  0.11869473957E+02  0.47787269753E+02  0.19999994111E+02 0.  0.
         12    1    1    2    0    0  0.10606713415E+02  0.40376188583E+02 -0.11869473957E+02  0.43400730247E+02  0.00000000000E+00 0. -1.
         11    1    3    3    0    0 -0.75663286997E+01 -0.71312378054E+01 -0.27455420721E+01  0.10753691653E+02  0.51100000000E-03 0. -1.
        -11    1    3    3    0    0 -0.19108154847E+01 -0.25003925688E+02  0.77460160178E+01  0.26245919303E+02  0.51100000000E-03 0.  1.
         12    1    3    3    0    0 -0.11295692311E+01 -0.82410250898E+01  0.68690000111E+01  0.10787658797E+02  0.00000000000E+00 0. -1.
</event>
<event>
 7    1  0.2812635E-010  0.4778727E+02  0.7816164E-02  0.1312668E+00
        -11   -1    0    0    0    0  0.00000000000E+00  0.00000000000E+00  0.45593999997E+02  0.45594000000E+02  0.51100000000E-03 0. -1.
         11   -1    0    0    0    0 -0.00000000000E+00 -0.00000000000E+00 -0.45593999997E+02  0.45594000000E+02  0.51100000000E-03 0.  1.
    9900012    2    1    2    0    0  0.90526460201E+01  0.16349470743E+02 -0.39171004499E+02  0.47787272045E+02  0.20000004560E+02 0.  0.
         12    1    1    2    0    0 -0.90526460201E+01 -0.16349470743E+02  0.39171004499E+02  0.43400727955E+02  0.00000000000E+00 0. -1.
         11    1    3    3    0    0  0.93843679744E+00  0.35678639297E+01 -0.18127183715E+02  0.18498786618E+02  0.51100000000E-03 0. -1.
        -11    1    3    3    0    0  0.79518871703E+01  0.58059710249E+01 -0.19920802730E+02  0.22221165379E+02  0.51100000000E-03 0.  1.
         12    1    3    3    0    0  0.16232205245E+00  0.69756357889E+01 -0.11230180542E+01  0.70673200478E+01  0.00000000000E+00 0. -1.
</event>
<event>
 7    1  0.2812635E-010  0.4778728E+02  0.7816164E-02  0.1312668E+00
        -11   -1    0    0    0    0  0.00000000000E+00  0.00000000000E+00  0.45593999997E+02  0.45594000000E+02  0.51100000000E-03 0.  1.
         11   -1    0    0    0    0 -0.00000000000E+00 -0.00000000000E+00 -0.45593999997E+02  0.45594000000E+02  0.51100000000E-03 0. -1.
    9900012    2    1    2    0    0  0.13524980088E+02 -0.21359046716E+02  0.35277314291E+02  0.47787275737E+02  0.20000021394E+02 0.  0.
         12    1    1    2    0    0 -0.13524980088E+02  0.21359046716E+02 -0.35277314291E+02  0.43400724263E+02  0.00000000000E+00 0. -1.
         11    1    3    3    0    0 -0.23977214243E+01 -0.34918347414E+01  0.14764593093E+02  0.15360181879E+02  0.51100000000E-03 0. -1.
        -11    1    3    3    0    0  0.14109753410E+02 -0.15344455702E+02  0.13713878138E+02  0.24952112454E+02  0.51100000000E-03 0.  1.
        -12    1    3    3    0    0  0.18129481032E+01 -0.25227562722E+01  0.67988430603E+01  0.74749814042E+01  0.00000000000E+00 0.  1.
</event>
<event>
 7    1  0.2812635E-010  0.4778727E+02  0.7816164E-02  0.1312668E+00
        -11   -1    0    0    0    0  0.00000000000E+00  0.00000000000E+00  0.45593999997E+02  0.45594000000E+02  0.51100000000E-03 0. -1.
         11   -1    0    0    0    0 -0.00000000000E+00 -0.00000000000E+00 -0.45593999997E+02  0.45594000000E+02  0.51100000000E-03 0.  1.
    9900012    2    1    2    0    0 -0.13618057133E+02  0.38266813234E+02 -0.15291273078E+02  0.47787268353E+02  0.19999987729E+02 0.  0.
         12    1    1    2    0    0  0.13618057133E+02 -0.38266813234E+02  0.15291273078E+02  0.43400731647E+02  0.00000000000E+00 0. -1.
         11    1    3    3    0    0 -0.63405952746E+01  0.10472307410E+01 -0.16363038052E+01  0.66315406253E+01  0.51100000000E-03 0. -1.
        -11    1    3    3    0    0 -0.78697007618E+01  0.20893638186E+02 -0.97270317197E+01  0.24353469015E+02  0.51100000000E-03 0.  1.
         12    1    3    3    0    0  0.59223890306E+00  0.16325944307E+02 -0.39279375531E+01  0.16802258713E+02  0.00000000000E+00 0. -1.
</event>
<event>
 7    1  0.2812635E-010  0.4778727E+02  0.7816164E-02  0.1312668E+00
        -11   -1    0    0    0    0  0.00000000000E+00  0.00000000000E+00  0.45593999997E+02  0.45594000000E+02  0.51100000000E-03 0.  1.
         11   -1    0    0    0    0 -0.00000000000E+00 -0.00000000000E+00 -0.45593999997E+02  0.45594000000E+02  0.51100000000E-03 0. -1.
    9900012    2    1    2    0    0 -0.19039699671E+02 -0.26053035795E+02  0.29023306450E+02  0.47787272414E+02  0.20000006243E+02 0.  0.
         12    1    1    2    0    0  0.19039699671E+02  0.26053035795E+02 -0.29023306450E+02  0.43400727586E+02  0.00000000000E+00 0. -1.
         11    1    3    3    0    0 -0.14431526102E+02 -0.14288066351E+02  0.11713176535E+02  0.23443896657E+02  0.51100000000E-03 0. -1.
        -11    1    3    3    0    0 -0.31287875103E+01 -0.10686281239E+02  0.55496717623E+01  0.12441252949E+02  0.51100000000E-03 0.  1.
         12    1    3    3    0    0 -0.14793860584E+01 -0.10786882056E+01  0.11760458153E+02  0.11902122808E+02  0.00000000000E+00 0. -1.
</event>
<event>
 7    1  0.2812635E-010  0.4778728E+02  0.7816164E-02  0.1312668E+00
        -11   -1    0    0    0    0  0.00000000000E+00  0.00000000000E+00  0.45593999997E+02  0.45594000000E+02  0.51100000000E-03 0.  1.
         11   -1    0    0    0    0 -0.00000000000E+00 -0.00000000000E+00 -0.45593999997E+02  0.45594000000E+02  0.51100000000E-03 0. -1.
    9900012    2    1    2    0    0  0.22219135990E+02 -0.30752837846E+02  0.21075949075E+02  0.47787278011E+02  0.20000031763E+02 0.  0.
         12    1    1    2    0    0 -0.22219135990E+02  0.30752837846E+02 -0.21075949075E+02  0.43400721989E+02  0.00000000000E+00 0. -1.
         11    1    3    3    0    0  0.63966669885E+01 -0.16441849092E+01 -0.12177366835E+00  0.66057188605E+01  0.51100000000E-03 0. -1.
        -11    1    3    3    0    0  0.11812879489E+02 -0.28072255754E+02  0.15602351300E+02  0.34220301450E+02  0.51100000000E-03 0.  1.
         12    1    3    3    0    0  0.40095895127E+01 -0.10363971826E+01  0.55953714437E+01  0.69612577006E+01  0.00000000000E+00 0. -1.
</event>
<event>
 7    1  0.2812635E-010  0.4778727E+02  0.7816164E-02  0.1312668E+00
        -11   -1    0    0    0    0  0.00000000000E+00  0.00000000000E+00  0.45593999997E+02  0.45594000000E+02  0.51100000000E-03 0. -1.
         11   -1    0    0    0    0 -0.00000000000E+00 -0.00000000000E+00 -0.45593999997E+02  0.45594000000E+02  0.51100000000E-03 0.  1.
    9900012    2    1    2    0    0 -0.30645030926E+02  0.30070416513E+02 -0.63462903228E+01  0.47787271083E+02  0.20000000174E+02 0.  0.
         12    1    1    2    0    0  0.30645030926E+02 -0.30070416513E+02  0.63462903228E+01  0.43400728917E+02  0.00000000000E+00 0. -1.
         11    1    3    3    0    0 -0.24599290617E+02  0.11097043327E+02 -0.67580214535E+01  0.27819782956E+02  0.51100000000E-03 0. -1.
        -11    1    3    3    0    0 -0.30998810945E+01  0.87041336551E+01 -0.44039181990E+00  0.92501432801E+01  0.51100000000E-03 0.  1.
         12    1    3    3    0    0 -0.29458592141E+01  0.10269239530E+02  0.85212295061E+00  0.10717344847E+02  0.00000000000E+00 0. -1.
</event>
<event>
 7    1  0.2812635E-010  0.4778726E+02  0.7816164E-02  0.1312668E+00
        -11   -1    0    0    0    0  0.00000000000E+00  0.00000000000E+00  0.45593999997E+02  0.45594000000E+02  0.51100000000E-03 0.  1.
         11   -1    0    0    0    0 -0.00000000000E+00 -0.00000000000E+00 -0.45593999997E+02  0.45594000000E+02  0.51100000000E-03 0. -1.
    9900012    2    1    2    0    0 -0.24763399503E+02  0.43635329455E+01  0.35374534681E+02  0.47787261774E+02  0.19999957731E+02 0.  0.
         12    1    1    2    0    0  0.24763399503E+02 -0.43635329455E+01 -0.35374534681E+02  0.43400738226E+02  0.00000000000E+00 0. -1.
         11    1    3    3    0    0 -0.10129943535E+02 -0.46160692251E+01  0.24387437906E+02  0.26808039447E+02  0.51100000000E-03 0. -1.
        -11    1    3    3    0    0 -0.58646070561E+01  0.19265867652E+01  0.62030674095E+01  0.87511940919E+01  0.51100000000E-03 0.  1.
         12    1    3    3    0    0 -0.87688489120E+01  0.70530154054E+01  0.47840293658E+01  0.12228028235E+02  0.00000000000E+00 0. -1.
</event>
<event>
 7    1  0.2812635E-010  0.4778727E+02  0.7816164E-02  0.1312668E+00
        -11   -1    0    0    0    0  0.00000000000E+00  0.00000000000E+00  0.45593999997E+02  0.45594000000E+02  0.51100000000E-03 0. -1.
         11   -1    0    0    0    0 -0.00000000000E+00 -0.00000000000E+00 -0.45593999997E+02  0.45594000000E+02  0.51100000000E-03 0.  1.
    9900012    2    1    2    0    0  0.39971340852E+02 -0.15204719456E+02 -0.73980822428E+01  0.47787271848E+02  0.20000003666E+02 0.  0.
         12    1    1    2    0    0 -0.39971340852E+02  0.15204719456E+02  0.73980822428E+01  0.43400728152E+02  0.00000000000E+00 0. -1.
         11    1    3    3    0    0  0.25935704434E+02 -0.35959116066E+01 -0.88993194495E+01  0.27654822938E+02  0.51100000000E-03 0.  1.
        -11    1    3    3    0    0  0.73815371964E+00 -0.29366175046E+01  0.29036069403E+01  0.41951789958E+01  0.51100000000E-03 0. -1.
        -12    1    3    3    0    0  0.13297482698E+02 -0.86721903446E+01 -0.14023697336E+01  0.15937269915E+02  0.00000000000E+00 0.  1.
</event>
<event>
 7    1  0.2812635E-010  0.4778728E+02  0.7816164E-02  0.1312668E+00
        -11   -1    0    0    0    0  0.00000000000E+00  0.00000000000E+00  0.45593999997E+02  0.45594000000E+02  0.51100000000E-03 0.  1.
         11   -1    0    0    0    0 -0.00000000000E+00 -0.00000000000E+00 -0.45593999997E+02  0.45594000000E+02  0.51100000000E-03 0. -1.
    9900012    2    1    2    0    0 -0.19823281736E+02  0.57188683395E+00  0.38604832055E+02  0.47787278677E+02  0.20000034801E+02 0.  0.
         12    1    1    2    0    0  0.19823281736E+02 -0.57188683395E+00 -0.38604832055E+02  0.43400721323E+02  0.00000000000E+00 0. -1.
         11    1    3    3    0    0 -0.31913602701E-01 -0.48659901137E+01  0.37793805983E+01  0.61613794099E+01  0.51100000000E-03 0. -1.
        -11    1    3    3    0    0 -0.17637014974E+02  0.29094871394E+01  0.33648426808E+02  0.38101785253E+02  0.51100000000E-03 0.  1.
        -12    1    3    3    0    0 -0.21543531595E+01  0.25283898083E+01  0.11770246491E+01  0.35241140139E+01  0.00000000000E+00 0.  1.
</event>
<event>
 7    1  0.2812635E-010  0.4778727E+02  0.7816164E-02  0.1312668E+00
        -11   -1    0    0    0    0  0.00000000000E+00  0.00000000000E+00  0.45593999997E+02  0.45594000000E+02  0.51100000000E-03 0. -1.
         11   -1    0    0    0    0 -0.00000000000E+00 -0.00000000000E+00 -0.45593999997E+02  0.45594000000E+02  0.51100000000E-03 0.  1.
    9900012    2    1    2    0    0  0.37290887023E+02 -0.15436533389E+02  0.15960154353E+02  0.47787270225E+02  0.19999996262E+02 0.  0.
         12    1    1    2    0    0 -0.37290887023E+02  0.15436533389E+02 -0.15960154353E+02  0.43400729775E+02  0.00000000000E+00 0. -1.
         11    1    3    3    0    0  0.26032414912E+02 -0.25862593327E+01  0.11237075080E+02  0.28471867169E+02  0.51100000000E-03 0. -1.
        -11    1    3    3    0    0  0.46749064596E+01 -0.18146607411E+01 -0.12145159861E+01  0.51597280309E+01  0.51100000000E-03 0.  1.
         12    1    3    3    0    0  0.65835656517E+01 -0.11035613315E+02  0.59375952590E+01  0.14155675024E+02  0.00000000000E+00 0. -1.
</event>
<event>
 7    1  0.2812635E-010  0.4778727E+02  0.7816164E-02  0.1312668E+00
        -11   -1    0    0    0    0  0.00000000000E+00  0.00000000000E+00  0.45593999997E+02  0.45594000000E+02  0.51100000000E-03 0.  1.
         11   -1    0    0    0    0 -0.00000000000E+00 -0.00000000000E+00 -0.45593999997E+02  0.45594000000E+02  0.51100000000E-03 0. -1.
    9900012    2    1    2    0    0  0.16909179649E+02 -0.29610851700E+02  0.26849593918E+02  0.47787267422E+02  0.19999983482E+02 0.  0.
         12    1    1    2    0    0 -0.16909179649E+02  0.29610851700E+02 -0.26849593918E+02  0.43400732578E+02  0.00000000000E+00 0. -1.
         11    1    3    3    0    0 -0.38279683319E+01 -0.38080914513E+01  0.84940442733E+00  0.54659299478E+01  0.51100000000E-03 0. -1.
        -11    1    3    3    0    0  0.10843853332E+02 -0.16915679452E+02  0.15813546456E+02  0.25569466521E+02  0.51100000000E-03 0.  1.
         12    1    3    3    0    0  0.98932946486E+01 -0.88870807967E+01  0.10186643034E+02  0.16751870952E+02  0.00000000000E+00 0. -1.
</event>
<event>
 7    1  0.2812635E-010  0.4778727E+02  0.7816164E-02  0.1312668E+00
        -11   -1    0    0    0    0  0.00000000000E+00  0.00000000000E+00  0.45593999997E+02  0.45594000000E+02  0.51100000000E-03 0.  1.
         11   -1    0    0    0    0 -0.00000000000E+00 -0.00000000000E+00 -0.45593999997E+02  0.45594000000E+02  0.51100000000E-03 0. -1.
    9900012    2    1    2    0    0  0.17700943444E+01 -0.18996429583E+02  0.38982374464E+02  0.47787273166E+02  0.20000009672E+02 0.  0.
         12    1    1    2    0    0 -0.17700943444E+01  0.18996429583E+02 -0.38982374464E+02  0.43400726834E+02  0.00000000000E+00 0. -1.
         11    1    3    3    0    0 -0.14667390255E+01 -0.17369805272E+02  0.29431931625E+02  0.34206725333E+02  0.51100000000E-03 0. -1.
        -11    1    3    3    0    0 -0.17230068589E+01 -0.34871609749E-01  0.79449935554E+01  0.81297534724E+01  0.51100000000E-03 0.  1.
         12    1    3    3    0    0  0.49598402288E+01 -0.15917527021E+01  0.16054492830E+01  0.54507943605E+01  0.00000000000E+00 0. -1.
</event>
<event>
 7    1  0.2812635E-010  0.4778727E+02  0.7816164E-02  0.1312668E+00
        -11   -1    0    0    0    0  0.00000000000E+00  0.00000000000E+00  0.45593999997E+02  0.45594000000E+02  0.51100000000E-03 0. -1.
         11   -1    0    0    0    0 -0.00000000000E+00 -0.00000000000E+00 -0.45593999997E+02  0.45594000000E+02  0.51100000000E-03 0.  1.
    9900012    2    1    2    0    0 -0.13304236016E+02 -0.40687411204E+02 -0.71522769504E+01  0.47787271988E+02  0.20000004300E+02 0.  0.
         12    1    1    2    0    0  0.13304236016E+02  0.40687411204E+02  0.71522769504E+01  0.43400728012E+02  0.00000000000E+00 0. -1.
         11    1    3    3    0    0 -0.56096529760E+01 -0.41912862790E+01 -0.13761559408E+01  0.71364481794E+01  0.51100000000E-03 0.  1.
        -11    1    3    3    0    0  0.34034752142E+01 -0.27537512894E+01 -0.23407441477E+01  0.49644610104E+01  0.51100000000E-03 0. -1.
        -12    1    3    3    0    0 -0.11098058255E+02 -0.33742373635E+02 -0.34353768620E+01  0.35686362798E+02  0.00000000000E+00 0.  1.
</event>
<event>
 7    1  0.2812635E-010  0.4778726E+02  0.7816164E-02  0.1312668E+00
        -11   -1    0    0    0    0  0.00000000000E+00  0.00000000000E+00  0.45593999997E+02  0.45594000000E+02  0.51100000000E-03 0.  1.
         11   -1    0    0    0    0 -0.00000000000E+00 -0.00000000000E+00 -0.45593999997E+02  0.45594000000E+02  0.51100000000E-03 0. -1.
    9900012    2    1    2    0    0 -0.22684743557E+02  0.36010391916E+02  0.85016582529E+01  0.47787261420E+02  0.19999956119E+02 0.  0.
         12    1    1    2    0    0  0.22684743557E+02 -0.36010391916E+02 -0.85016582529E+01  0.43400738580E+02  0.00000000000E+00 0. -1.
         11    1    3    3    0    0  0.11013845252E+01  0.47601119352E+01 -0.25425970998E+01  0.55078592739E+01  0.51100000000E-03 0. -1.
        -11    1    3    3    0    0 -0.18781969342E+02  0.28418324335E+02  0.59143737727E+01  0.34573737834E+02  0.51100000000E-03 0.  1.
         12    1    3    3    0    0 -0.50041587401E+01  0.28319556459E+01  0.51298815800E+01  0.77056643128E+01  0.00000000000E+00 0. -1.
</event>
<event>
 7    1  0.2812635E-010  0.4778727E+02  0.7816164E-02  0.1312668E+00
        -11   -1    0    0    0    0  0.00000000000E+00  0.00000000000E+00  0.45593999997E+02  0.45594000000E+02  0.51100000000E-03 0.  1.
         11   -1    0    0    0    0 -0.00000000000E+00 -0.00000000000E+00 -0.45593999997E+02  0.45594000000E+02  0.51100000000E-03 0. -1.
    9900012    2    1    2    0    0  0.56754350451E+01  0.27954968608E+02  0.32709820953E+02  0.47787271670E+02  0.20000002851E+02 0.  0.
         12    1    1    2    0    0 -0.56754350451E+01 -0.27954968608E+02 -0.32709820953E+02  0.43400728330E+02  0.00000000000E+00 0. -1.
         11    1    3    3    0    0  0.73432623700E+01  0.62344017450E+01  0.12686236814E+02  0.15928963310E+02  0.51100000000E-03 0. -1.
        -11    1    3    3    0    0 -0.34269127074E+01  0.22165845068E+02  0.16333477845E+02  0.27746187432E+02  0.51100000000E-03 0.  1.
        -12    1    3    3    0    0  0.17590853826E+01 -0.44527820485E+00  0.36901062942E+01  0.41121209278E+01  0.00000000000E+00 0.  1.
</event>
<event>
 7    1  0.2812635E-010  0.4778727E+02  0.7816164E-02  0.1312668E+00
        -11   -1    0    0    0    0  0.00000000000E+00  0.00000000000E+00  0.45593999997E+02  0.45594000000E+02  0.51100000000E-03 0. -1.
         11   -1    0    0    0    0 -0.00000000000E+00 -0.00000000000E+00 -0.45593999997E+02  0.45594000000E+02  0.51100000000E-03 0.  1.
    9900012    2    1    2    0    0  0.36886733986E+02 -0.97218491963E+00 -0.22848344544E+02  0.47787272632E+02  0.20000007237E+02 0.  0.
         12    1    1    2    0    0 -0.36886733986E+02  0.97218491963E+00  0.22848344544E+02  0.43400727368E+02  0.00000000000E+00 0. -1.
         11    1    3    3    0    0 -0.20885753845E+01  0.73854997875E+00 -0.14463072312E+01  0.26456394455E+01  0.51100000000E-03 0. -1.
        -11    1    3    3    0    0  0.39099364385E+02 -0.11396430982E+01 -0.21327592563E+02  0.44552500339E+02  0.51100000000E-03 0.  1.
        -12    1    3    3    0    0 -0.12405501375E+00 -0.57109180017E+00 -0.74444750097E-01  0.58913284705E+00  0.00000000000E+00 0.  1.
</event>
<event>
 7    1  0.2812635E-010  0.4778727E+02  0.7816164E-02  0.1312668E+00
        -11   -1    0    0    0    0  0.00000000000E+00  0.00000000000E+00  0.45593999997E+02  0.45594000000E+02  0.51100000000E-03 0.  1.
         11   -1    0    0    0    0 -0.00000000000E+00 -0.00000000000E+00 -0.45593999997E+02  0.45594000000E+02  0.51100000000E-03 0. -1.
    9900012    2    1    2    0    0  0.29046329222E+01 -0.36881961093E+02  0.22691567870E+02  0.47787271908E+02  0.20000003938E+02 0.  0.
         12    1    1    2    0    0 -0.29046329222E+01  0.36881961093E+02 -0.22691567870E+02  0.43400728092E+02  0.00000000000E+00 0. -1.
         11    1    3    3    0    0 -0.10312082678E+01 -0.24027770508E+01  0.51995619129E+01  0.58199804462E+01  0.51100000000E-03 0. -1.
        -11    1    3    3    0    0  0.79754746038E+01 -0.28735883456E+02  0.94330132344E+01  0.31278441970E+02  0.51100000000E-03 0.  1.
        -12    1    3    3    0    0 -0.40396334138E+01 -0.57433005867E+01  0.80589927229E+01  0.10688849492E+02  0.00000000000E+00 0.  1.
</event>
<event>
 7    1  0.2812635E-010  0.4778727E+02  0.7816164E-02  0.1312668E+00
        -11   -1    0    0    0    0  0.00000000000E+00  0.00000000000E+00  0.45593999997E+02  0.45594000000E+02  0.51100000000E-03 0.  1.
         11   -1    0    0    0    0 -0.00000000000E+00 -0.00000000000E+00 -0.45593999997E+02  0.45594000000E+02  0.51100000000E-03 0. -1.
    9900012    2    1    2    0    0 -0.20883485191E+02 -0.62064050319E+01  0.37536434749E+02  0.47787270158E+02  0.19999995959E+02 0.  0.
         12    1    1    2    0    0  0.20883485191E+02  0.62064050319E+01 -0.37536434749E+02  0.43400729842E+02  0.00000000000E+00 0. -1.
         11    1    3    3    0    0  0.23204556715E+01 -0.17315935377E+00  0.23150702946E+01  0.32823847146E+01  0.51100000000E-03 0. -1.
        -11    1    3    3    0    0 -0.16415719701E+02  0.11987928409E+01  0.27001983718E+02  0.31623094133E+02  0.51100000000E-03 0.  1.
        -12    1    3    3    0    0 -0.67882211610E+01 -0.72320385191E+01  0.82193807372E+01  0.12881791311E+02  0.00000000000E+00 0.  1.
</event>
<event>
 7    1  0.2812635E-010  0.4778727E+02  0.7816164E-02  0.1312668E+00
        -11   -1    0    0    0    0  0.00000000000E+00  0.00000000000E+00  0.45593999997E+02  0.45594000000E+02  0.51100000000E-03 0. -1.
         11   -1    0    0    0    0 -0.00000000000E+00 -0.00000000000E+00 -0.45593999997E+02  0.45594000000E+02  0.51100000000E-03 0.  1.
    9900012    2    1    2    0    0  0.38505806017E+02 -0.19972998574E+02  0.14162515288E+01  0.47787268008E+02  0.19999986156E+02 0.  0.
         12    1    1    2    0    0 -0.38505806017E+02  0.19972998574E+02 -0.14162515288E+01  0.43400731992E+02  0.00000000000E+00 0. -1.
         11    1    3    3    0    0  0.16911619339E+02 -0.12313253559E+02 -0.52035251564E+01  0.21556803014E+02  0.51100000000E-03 0. -1.
        -11    1    3    3    0    0  0.15634419592E+02 -0.87923543545E+01  0.10063340759E+01  0.17965335500E+02  0.51100000000E-03 0.  1.
         12    1    3    3    0    0  0.59597670861E+01  0.11326093398E+01  0.56134426093E+01  0.82651294947E+01  0.00000000000E+00 0. -1.
</event>
<event>
 7    1  0.2812635E-010  0.4778727E+02  0.7816164E-02  0.1312668E+00
        -11   -1    0    0    0    0  0.00000000000E+00  0.00000000000E+00  0.45593999997E+02  0.45594000000E+02  0.51100000000E-03 0.  1.
         11   -1    0    0    0    0 -0.00000000000E+00 -0.00000000000E+00 -0.45593999997E+02  0.45594000000E+02  0.51100000000E-03 0. -1.
    9900012    2    1    2    0    0 -0.26823476178E+02  0.31637465878E+02  0.12774787625E+02  0.47787270509E+02  0.19999997561E+02 0.  0.
         12    1    1    2    0    0  0.26823476178E+02 -0.31637465878E+02 -0.12774787625E+02  0.43400729491E+02  0.00000000000E+00 0. -1.
         11    1    3    3    0    0 -0.52249643603E+01  0.63549766293E+01  0.11432964756E+02  0.14085406061E+02  0.51100000000E-03 0. -1.
        -11    1    3    3    0    0 -0.19437774881E+02  0.20387497301E+02 -0.67078889164E-01  0.28168806123E+02  0.51100000000E-03 0.  1.
        -12    1    3    3    0    0 -0.21607369364E+01  0.48949919473E+01  0.14089017582E+01  0.55330583258E+01  0.00000000000E+00 0.  1.
</event>
<event>
 7    1  0.2812635E-010  0.4778727E+02  0.7816164E-02  0.1312668E+00
        -11   -1    0    0    0    0  0.00000000000E+00  0.00000000000E+00  0.45593999997E+02  0.45594000000E+02  0.51100000000E-03 0. -1.
         11   -1    0    0    0    0 -0.00000000000E+00 -0.00000000000E+00 -0.45593999997E+02  0.45594000000E+02  0.51100000000E-03 0.  1.
    9900012    2    1    2    0    0 -0.17476913174E+02  0.37036051669E+02 -0.14370510226E+02  0.47787272108E+02  0.20000004851E+02 0.  0.
         12    1    1    2    0    0  0.17476913174E+02 -0.37036051669E+02  0.14370510226E+02  0.43400727892E+02  0.00000000000E+00 0. -1.
         11    1    3    3    0    0 -0.78907948383E+01  0.23431137028E+02  0.66736045587E-01  0.24724224550E+02  0.51100000000E-03 0. -1.
        -11    1    3    3    0    0 -0.92987595839E+01  0.12005506333E+02 -0.14998619010E+02  0.21343797333E+02  0.51100000000E-03 0.  1.
        -12    1    3    3    0    0 -0.28735875173E+00  0.15994083079E+01  0.56137273832E+00  0.17192502258E+01  0.00000000000E+00 0.  1.
</event>
<event>
 7    1  0.2812635E-010  0.4778727E+02  0.7816164E-02  0.1312668E+00
        -11   -1    0    0    0    0  0.00000000000E+00  0.00000000000E+00  0.45593999997E+02  0.45594000000E+02  0.51100000000E-03 0. -1.
         11   -1    0    0    0    0 -0.00000000000E+00 -0.00000000000E+00 -0.45593999997E+02  0.45594000000E+02  0.51100000000E-03 0.  1.
    9900012    2    1    2    0    0  0.20641451104E+02 -0.31621734045E+02 -0.21392046748E+02  0.47787271529E+02  0.20000002211E+02 0.  0.
         12    1    1    2    0    0 -0.20641451104E+02  0.31621734045E+02  0.21392046748E+02  0.43400728471E+02  0.00000000000E+00 0. -1.
         11    1    3    3    0    0  0.11378085861E+02 -0.84253985638E+01 -0.79360704472E+00  0.14180197151E+02  0.51100000000E-03 0. -1.
        -11    1    3    3    0    0  0.98513742794E+01 -0.15786817981E+02 -0.11567533641E+02  0.21910751515E+02  0.51100000000E-03 0.  1.
         12    1    3    3    0    0 -0.58800903693E+00 -0.74095175003E+01 -0.90309060631E+01  0.11696322864E+02  0.00000000000E+00 0. -1.
</event>
<event>
 7    1  0.2812635E-010  0.4778727E+02  0.7816164E-02  0.1312668E+00
        -11   -1    0    0    0    0  0.00000000000E+00  0.00000000000E+00  0.45593999997E+02  0.45594000000E+02  0.51100000000E-03 0.  1.
         11   -1    0    0    0    0 -0.00000000000E+00 -0.00000000000E+00 -0.45593999997E+02  0.45594000000E+02  0.51100000000E-03 0. -1.
    9900012    2    1    2    0    0  0.98416444703E+01  0.19341950863E+02  0.37585293361E+02  0.47787270673E+02  0.19999998305E+02 0.  0.
         12    1    1    2    0    0 -0.98416444703E+01 -0.19341950863E+02 -0.37585293361E+02  0.43400729327E+02  0.00000000000E+00 0. -1.
         11    1    3    3    0    0 -0.21980404693E+01  0.98045629028E+01  0.86585204436E+01  0.13263891290E+02  0.51100000000E-03 0. -1.
        -11    1    3    3    0    0  0.73558554961E+01  0.10186444351E+02  0.26219488440E+02  0.29074625241E+02  0.51100000000E-03 0.  1.
         12    1    3    3    0    0  0.46838294435E+01 -0.64905639009E+00  0.27072844778E+01  0.54487541418E+01  0.00000000000E+00 0. -1.
</event>
<event>
 7    1  0.2812635E-010  0.4778727E+02  0.7816164E-02  0.1312668E+00
        -11   -1    0    0    0    0  0.00000000000E+00  0.00000000000E+00  0.45593999997E+02  0.45594000000E+02  0.51100000000E-03 0. -1.
         11   -1    0    0    0    0 -0.00000000000E+00 -0.00000000000E+00 -0.45593999997E+02  0.45594000000E+02  0.51100000000E-03 0.  1.
    9900012    2    1    2    0    0 -0.36391520208E+01 -0.43178580679E+02 -0.24474533849E+01  0.47787270917E+02  0.19999999420E+02 0.  0.
         12    1    1    2    0    0  0.36391520208E+01  0.43178580679E+02  0.24474533849E+01  0.43400729083E+02  0.00000000000E+00 0. -1.
         11    1    3    3    0    0  0.25894116258E+01 -0.25569149690E+01 -0.32519758435E+01  0.48803907502E+01  0.51100000000E-03 0. -1.
        -11    1    3    3    0    0 -0.47828711941E+01 -0.40970271239E+02  0.14766281055E+01  0.41274924750E+02  0.51100000000E-03 0.  1.
        -12    1    3    3    0    0 -0.14456924525E+01  0.34860552982E+00 -0.67210564692E+00  0.16319554171E+01  0.00000000000E+00 0.  1.
</event>
<event>
 7    1  0.2812635E-010  0.4778727E+02  0.7816164E-02  0.1312668E+00
        -11   -1    0    0    0    0  0.00000000000E+00  0.00000000000E+00  0.45593999997E+02  0.45594000000E+02  0.51100000000E-03 0.  1.
         11   -1    0    0    0    0 -0.00000000000E+00 -0.00000000000E+00 -0.45593999997E+02  0.45594000000E+02  0.51100000000E-03 0. -1.
    9900012    2    1    2    0    0  0.32999519550E+02 -0.28178260605E+02 -0.80040284606E+00  0.47787270675E+02  0.19999998315E+02 0.  0.
         12    1    1    2    0    0 -0.32999519550E+02  0.28178260605E+02  0.80040284606E+00  0.43400729325E+02  0.00000000000E+00 0. -1.
         11    1    3    3    0    0  0.25894999029E+02 -0.17875552203E+02 -0.74134237940E+00  0.31474369415E+02  0.51100000000E-03 0. -1.
        -11    1    3    3    0    0  0.95395685134E+01 -0.98926030190E+01  0.60378149270E+00  0.13756144600E+02  0.51100000000E-03 0.  1.
         12    1    3    3    0    0 -0.24350479928E+01 -0.41010538265E+00 -0.66284195935E+00  0.25567566594E+01  0.00000000000E+00 0. -1.
</event>
<event>
 7    1  0.2812635E-010  0.4778727E+02  0.7816164E-02  0.1312668E+00
        -11   -1    0    0    0    0  0.00000000000E+00  0.00000000000E+00  0.45593999997E+02  0.45594000000E+02  0.51100000000E-03 0. -1.
         11   -1    0    0    0    0 -0.00000000000E+00 -0.00000000000E+00 -0.45593999997E+02  0.45594000000E+02  0.51100000000E-03 0.  1.
    9900012    2    1    2    0    0  0.98642368847E+01  0.40327290468E+02  0.12650295558E+02  0.47787268399E+02  0.19999987936E+02 0.  0.
         12    1    1    2    0    0 -0.98642368847E+01 -0.40327290468E+02 -0.12650295558E+02  0.43400731601E+02  0.00000000000E+00 0. -1.
         11    1    3    3    0    0  0.97790248468E-01  0.16287397051E+01  0.59432197804E+01  0.61631337467E+01  0.51100000000E-03 0. -1.
        -11    1    3    3    0    0  0.24956189308E+01  0.28104819975E+02  0.40689926428E+01  0.28507292419E+02  0.51100000000E-03 0.  1.
         12    1    3    3    0    0  0.72708277054E+01  0.10593730788E+02  0.26380831351E+01  0.13116842233E+02  0.00000000000E+00 0. -1.
</event>
<event>
 7    1  0.2812635E-010  0.4778728E+02  0.7816164E-02  0.1312668E+00
        -11   -1    0    0    0    0  0.00000000000E+00  0.00000000000E+00  0.45593999997E+02  0.45594000000E+02  0.51100000000E-03 0. -1.
         11   -1    0    0    0    0 -0.00000000000E+00 -0.00000000000E+00 -0.45593999997E+02  0.45594000000E+02  0.51100000000E-03 0.  1.
    9900012    2    1    2    0    0  0.10362907468E+02  0.67368282949E+01 -0.41603462453E+02  0.47787276565E+02  0.20000025169E+02 0.  0.
         12    1    1    2    0    0 -0.10362907468E+02 -0.67368282949E+01  0.41603462453E+02  0.43400723435E+02  0.00000000000E+00 0. -1.
         11    1    3    3    0    0  0.48591009015E+01 -0.62890856696E+01 -0.11540405670E+02  0.14012295437E+02  0.51100000000E-03 0. -1.
        -11    1    3    3    0    0  0.32966731090E+01  0.31023505311E+01 -0.50889046808E+01  0.68109899072E+01  0.51100000000E-03 0.  1.
         12    1    3    3    0    0  0.22071334577E+01  0.99235634335E+01 -0.24974152102E+02  0.26963991220E+02  0.00000000000E+00 0. -1.
</event>
<event>
 7    1  0.2812635E-010  0.4778727E+02  0.7816164E-02  0.1312668E+00
        -11   -1    0    0    0    0  0.00000000000E+00  0.00000000000E+00  0.45593999997E+02  0.45594000000E+02  0.51100000000E-03 0.  1.
         11   -1    0    0    0    0 -0.00000000000E+00 -0.00000000000E+00 -0.45593999997E+02  0.45594000000E+02  0.51100000000E-03 0. -1.
    9900012    2    1    2    0    0 -0.69978912909E+01 -0.89311304801E+01  0.41891379691E+02  0.47787271128E+02  0.20000000381E+02 0.  0.
         12    1    1    2    0    0  0.69978912909E+01  0.89311304801E+01 -0.41891379691E+02  0.43400728872E+02  0.00000000000E+00 0. -1.
         11    1    3    3    0    0 -0.69849204355E+01 -0.20815884018E+01  0.66359453325E+01  0.98568704203E+01  0.51100000000E-03 0. -1.
        -11    1    3    3    0    0  0.33154633536E+01 -0.68438775494E+01  0.33106148566E+02  0.33968338645E+02  0.51100000000E-03 0.  1.
        -12    1    3    3    0    0 -0.33284342090E+01 -0.56645289861E-02  0.21492857928E+01  0.39620620629E+01  0.00000000000E+00 0.  1.
</event>
<event>
 7    1  0.2812635E-010  0.4778728E+02  0.7816164E-02  0.1312668E+00
        -11   -1    0    0    0    0  0.00000000000E+00  0.00000000000E+00  0.45593999997E+02  0.45594000000E+02  0.51100000000E-03 0. -1.
         11   -1    0    0    0    0 -0.00000000000E+00 -0.00000000000E+00 -0.45593999997E+02  0.45594000000E+02  0.51100000000E-03 0.  1.
    9900012    2    1    2    0    0 -0.20570793458E+02  0.31859596975E+02 -0.21105246621E+02  0.47787275377E+02  0.20000019753E+02 0.  0.
         12    1    1    2    0    0  0.20570793458E+02 -0.31859596975E+02  0.21105246621E+02  0.43400724623E+02  0.00000000000E+00 0. -1.
         11    1    3    3    0    0  0.33829053749E+01  0.33179523466E+01 -0.50631987022E+01  0.69346115903E+01  0.51100000000E-03 0. -1.
        -11    1    3    3    0    0 -0.19153774256E+02  0.20144569618E+02 -0.13198013280E+02  0.30771062837E+02  0.51100000000E-03 0.  1.
         12    1    3    3    0    0 -0.47999245768E+01  0.83970750102E+01 -0.28440346393E+01  0.10081600949E+02  0.00000000000E+00 0. -1.
</event>
<event>
 7    1  0.2812635E-010  0.4778727E+02  0.7816164E-02  0.1312668E+00
        -11   -1    0    0    0    0  0.00000000000E+00  0.00000000000E+00  0.45593999997E+02  0.45594000000E+02  0.51100000000E-03 0.  1.
         11   -1    0    0    0    0 -0.00000000000E+00 -0.00000000000E+00 -0.45593999997E+02  0.45594000000E+02  0.51100000000E-03 0. -1.
    9900012    2    1    2    0    0 -0.17008451301E+01  0.36885299221E+02  0.22808001093E+02  0.47787273202E+02  0.20000009835E+02 0.  0.
         12    1    1    2    0    0  0.17008451301E+01 -0.36885299221E+02 -0.22808001093E+02  0.43400726798E+02  0.00000000000E+00 0. -1.
         11    1    3    3    0    0 -0.91074714091E+01  0.11511060643E+02  0.80602105049E+01  0.16745672463E+02  0.51100000000E-03 0.  1.
        -11    1    3    3    0    0  0.55454174326E+01  0.20745208424E+02  0.86188892419E+01  0.23138724664E+02  0.51100000000E-03 0. -1.
        -12    1    3    3    0    0  0.18612088465E+01  0.46290301542E+01  0.61289013464E+01  0.79028760747E+01  0.00000000000E+00 0.  1.
</event>
<event>
 7    1  0.2812635E-010  0.4778726E+02  0.7816164E-02  0.1312668E+00
        -11   -1    0    0    0    0  0.00000000000E+00  0.00000000000E+00  0.45593999997E+02  0.45594000000E+02  0.51100000000E-03 0. -1.
         11   -1    0    0    0    0 -0.00000000000E+00 -0.00000000000E+00 -0.45593999997E+02  0.45594000000E+02  0.51100000000E-03 0.  1.
    9900012    2    1    2    0    0 -0.68019587736E+01 -0.12959861426E+01 -0.42844811208E+02  0.47787261865E+02  0.19999958146E+02 0.  0.
         12    1    1    2    0    0  0.68019587736E+01  0.12959861426E+01  0.42844811208E+02  0.43400738135E+02  0.00000000000E+00 0. -1.
         11    1    3    3    0    0  0.32074825608E+01  0.57386226314E+00 -0.30330603035E+02  0.30505126504E+02  0.51100000000E-03 0. -1.
        -11    1    3    3    0    0 -0.62888482313E+01  0.15358813423E+01 -0.91902156189E+01  0.11241379228E+02  0.51100000000E-03 0.  1.
         12    1    3    3    0    0 -0.37205931031E+01 -0.34057297480E+01 -0.33239925541E+01  0.60407561327E+01  0.00000000000E+00 0. -1.
</event>
<event>
 7    1  0.2812635E-010  0.4778727E+02  0.7816164E-02  0.1312668E+00
        -11   -1    0    0    0    0  0.00000000000E+00  0.00000000000E+00  0.45593999997E+02  0.45594000000E+02  0.51100000000E-03 0.  1.
         11   -1    0    0    0    0 -0.00000000000E+00 -0.00000000000E+00 -0.45593999997E+02  0.45594000000E+02  0.51100000000E-03 0. -1.
    9900012    2    1    2    0    0  0.35227631864E+01 -0.35241018414E+02  0.25085531365E+02  0.47787272780E+02  0.20000007913E+02 0.  0.
         12    1    1    2    0    0 -0.35227631864E+01  0.35241018414E+02 -0.25085531365E+02  0.43400727220E+02  0.00000000000E+00 0. -1.
         11    1    3    3    0    0 -0.21538176206E+01 -0.27417846063E+02  0.20996851237E+02  0.34601227944E+02  0.51100000000E-03 0. -1.
        -11    1    3    3    0    0  0.32052912831E+01 -0.91111785051E+01  0.24944049620E+01  0.99754459718E+01  0.51100000000E-03 0.  1.
         12    1    3    3    0    0  0.24712895239E+01  0.12880061536E+01  0.15942751663E+01  0.32105988645E+01  0.00000000000E+00 0. -1.
</event>
<event>
 7    1  0.2812635E-010  0.4778727E+02  0.7816164E-02  0.1312668E+00
        -11   -1    0    0    0    0  0.00000000000E+00  0.00000000000E+00  0.45593999997E+02  0.45594000000E+02  0.51100000000E-03 0.  1.
         11   -1    0    0    0    0 -0.00000000000E+00 -0.00000000000E+00 -0.45593999997E+02  0.45594000000E+02  0.51100000000E-03 0. -1.
    9900012    2    1    2    0    0  0.29071111535E+02 -0.32019145756E+02 -0.36425239837E+01  0.47787271874E+02  0.20000003784E+02 0.  0.
         12    1    1    2    0    0 -0.29071111535E+02  0.32019145756E+02  0.36425239837E+01  0.43400728126E+02  0.00000000000E+00 0. -1.
         11    1    3    3    0    0  0.47962160107E+01 -0.26765354003E+00  0.28779226789E+01  0.55998005005E+01  0.51100000000E-03 0. -1.
        -11    1    3    3    0    0  0.17273978487E+02 -0.27052558127E+02 -0.10066251196E+01  0.32112996254E+02  0.51100000000E-03 0.  1.
        -12    1    3    3    0    0  0.70009170371E+01 -0.46989340891E+01 -0.55138215430E+01  0.10074475120E+02  0.00000000000E+00 0.  1.
</event>
<event>
 7    1  0.2812635E-010  0.4778727E+02  0.7816164E-02  0.1312668E+00
        -11   -1    0    0    0    0  0.00000000000E+00  0.00000000000E+00  0.45593999997E+02  0.45594000000E+02  0.51100000000E-03 0.  1.
         11   -1    0    0    0    0 -0.00000000000E+00 -0.00000000000E+00 -0.45593999997E+02  0.45594000000E+02  0.51100000000E-03 0. -1.
    9900012    2    1    2    0    0 -0.20269159167E+02  0.22388402836E+02  0.31169598744E+02  0.47787270965E+02  0.19999999639E+02 0.  0.
         12    1    1    2    0    0  0.20269159167E+02 -0.22388402836E+02 -0.31169598744E+02  0.43400729035E+02  0.00000000000E+00 0. -1.
         11    1    3    3    0    0 -0.18329094281E+02  0.89597588638E+01  0.18452235807E+02  0.27508507458E+02  0.51100000000E-03 0. -1.
        -11    1    3    3    0    0 -0.26103543410E+01  0.26641662877E+01  0.73263505542E+01  0.82211400973E+01  0.51100000000E-03 0.  1.
         12    1    3    3    0    0  0.67028945508E+00  0.10764477685E+02  0.53910123828E+01  0.12057623410E+02  0.00000000000E+00 0. -1.
</event>
<event>
 7    1  0.2812635E-010  0.4778726E+02  0.7816164E-02  0.1312668E+00
        -11   -1    0    0    0    0  0.00000000000E+00  0.00000000000E+00  0.45593999997E+02  0.45594000000E+02  0.51100000000E-03 0.  1.
         11   -1    0    0    0    0 -0.00000000000E+00 -0.00000000000E+00 -0.45593999997E+02  0.45594000000E+02  0.51100000000E-03 0. -1.
    9900012    2    1    2    0    0  0.19729235615E+02 -0.27116586029E+02  0.27551273435E+02  0.47787255263E+02  0.19999928045E+02 0.  0.
         12    1    1    2    0    0 -0.19729235615E+02  0.27116586029E+02 -0.27551273435E+02  0.43400744737E+02  0.00000000000E+00 0. -1.
         11    1    3    3    0    0  0.44438777569E+00  0.18905076953E+01  0.56940967106E+01  0.60161646796E+01  0.51100000000E-03 0.  1.
        -11    1    3    3    0    0  0.19234093576E+02 -0.26842408083E+02  0.21866716601E+02  0.39605789003E+02  0.51100000000E-03 0. -1.
        -12    1    3    3    0    0  0.50754262611E-01 -0.21646856419E+01 -0.95398762928E-02  0.21653015801E+01  0.00000000000E+00 0.  1.
</event>
<event>
 7    1  0.2812635E-010  0.4778728E+02  0.7816164E-02  0.1312668E+00
        -11   -1    0    0    0    0  0.00000000000E+00  0.00000000000E+00  0.45593999997E+02  0.45594000000E+02  0.51100000000E-03 0.  1.
         11   -1    0    0    0    0 -0.00000000000E+00 -0.00000000000E+00 -0.45593999997E+02  0.45594000000E+02  0.51100000000E-03 0. -1.
    9900012    2    1    2    0    0 -0.98772804651E+01 -0.34414706962E+02  0.24529357250E+02  0.47787284663E+02  0.20000062092E+02 0.  0.
         12    1    1    2    0    0  0.98772804651E+01  0.34414706962E+02 -0.24529357250E+02  0.43400715337E+02  0.00000000000E+00 0. -1.
         11    1    3    3    0    0 -0.58817614755E+01 -0.13477582205E+01  0.11317622999E+01  0.61394182493E+01  0.51100000000E-03 0. -1.
        -11    1    3    3    0    0 -0.61620858113E+01 -0.29470993022E+02  0.21728572738E+02  0.37130063355E+02  0.51100000000E-03 0.  1.
        -12    1    3    3    0    0  0.21665668217E+01 -0.35959557202E+01  0.16690222116E+01  0.45178030588E+01  0.00000000000E+00 0.  1.
</event>
<event>
 7    1  0.2812635E-010  0.4778727E+02  0.7816164E-02  0.1312668E+00
        -11   -1    0    0    0    0  0.00000000000E+00  0.00000000000E+00  0.45593999997E+02  0.45594000000E+02  0.51100000000E-03 0.  1.
         11   -1    0    0    0    0 -0.00000000000E+00 -0.00000000000E+00 -0.45593999997E+02  0.45594000000E+02  0.51100000000E-03 0. -1.
    9900012    2    1    2    0    0  0.30903546435E+02 -0.10718610368E+02  0.28525527092E+02  0.47787268597E+02  0.19999988841E+02 0.  0.
         12    1    1    2    0    0 -0.30903546435E+02  0.10718610368E+02 -0.28525527092E+02  0.43400731403E+02  0.00000000000E+00 0. -1.
         11    1    3    3    0    0  0.15744288898E+02 -0.15267467804E+01  0.64831660254E+01  0.17095175653E+02  0.51100000000E-03 0. -1.
        -11    1    3    3    0    0  0.86935014359E+01  0.12894341020E+01  0.68973488326E+01  0.11171975148E+02  0.51100000000E-03 0.  1.
         12    1    3    3    0    0  0.64657561003E+01 -0.10481297690E+02  0.15145012234E+02  0.19520117796E+02  0.00000000000E+00 0. -1.
</event>
<event>
 7    1  0.2812635E-010  0.4778727E+02  0.7816164E-02  0.1312668E+00
        -11   -1    0    0    0    0  0.00000000000E+00  0.00000000000E+00  0.45593999997E+02  0.45594000000E+02  0.51100000000E-03 0.  1.
         11   -1    0    0    0    0 -0.00000000000E+00 -0.00000000000E+00 -0.45593999997E+02  0.45594000000E+02  0.51100000000E-03 0. -1.
    9900012    2    1    2    0    0 -0.34790467182E+00 -0.10504300487E+02  0.42108934954E+02  0.47787265336E+02  0.19999973975E+02 0.  0.
         12    1    1    2    0    0  0.34790467182E+00  0.10504300487E+02 -0.42108934954E+02  0.43400734664E+02  0.00000000000E+00 0. -1.
         11    1    3    3    0    0  0.30045285781E+01  0.48026451747E+01  0.55349670691E+01  0.79201296307E+01  0.51100000000E-03 0. -1.
        -11    1    3    3    0    0 -0.12817335140E+01 -0.10537995260E+02  0.26015916355E+02  0.28098400114E+02  0.51100000000E-03 0.  1.
         12    1    3    3    0    0 -0.20706997360E+01 -0.47689504010E+01  0.10558051530E+02  0.11768735592E+02  0.00000000000E+00 0. -1.
</event>
<event>
 7    1  0.2812635E-010  0.4778728E+02  0.7816164E-02  0.1312668E+00
        -11   -1    0    0    0    0  0.00000000000E+00  0.00000000000E+00  0.45593999997E+02  0.45594000000E+02  0.51100000000E-03 0.  1.
         11   -1    0    0    0    0 -0.00000000000E+00 -0.00000000000E+00 -0.45593999997E+02  0.45594000000E+02  0.51100000000E-03 0. -1.
    9900012    2    1    2    0    0  0.21108668659E+02  0.37914054467E+01  0.37731576632E+02  0.47787279696E+02  0.20000039446E+02 0.  0.
         12    1    1    2    0    0 -0.21108668659E+02 -0.37914054467E+01 -0.37731576632E+02  0.43400720304E+02  0.00000000000E+00 0. -1.
         11    1    3    3    0    0 -0.25516307733E+01  0.94860458800E+00  0.72911916251E+00  0.28182060397E+01  0.51100000000E-03 0. -1.
        -11    1    3    3    0    0  0.22881784011E+02  0.30720311573E+00  0.33657762996E+02  0.40700312326E+02  0.51100000000E-03 0.  1.
        -12    1    3    3    0    0  0.77851542069E+00  0.25355977430E+01  0.33446944731E+01  0.42687613300E+01  0.00000000000E+00 0.  1.
</event>
<event>
 7    1  0.2812635E-010  0.4778727E+02  0.7816164E-02  0.1312668E+00
        -11   -1    0    0    0    0  0.00000000000E+00  0.00000000000E+00  0.45593999997E+02  0.45594000000E+02  0.51100000000E-03 0.  1.
         11   -1    0    0    0    0 -0.00000000000E+00 -0.00000000000E+00 -0.45593999997E+02  0.45594000000E+02  0.51100000000E-03 0. -1.
    9900012    2    1    2    0    0 -0.27691802209E+02  0.13138587860E+02  0.30727266764E+02  0.47787270475E+02  0.19999997403E+02 0.  0.
         12    1    1    2    0    0  0.27691802209E+02 -0.13138587860E+02 -0.30727266764E+02  0.43400729525E+02  0.00000000000E+00 0. -1.
         11    1    3    3    0    0 -0.11335547372E+01 -0.57052396343E-01 -0.22502099171E+01  0.25202472598E+01  0.51100000000E-03 0. -1.
        -11    1    3    3    0    0 -0.11591722473E+02  0.68615998534E+01  0.86430731576E+01  0.16004758552E+02  0.51100000000E-03 0.  1.
         12    1    3    3    0    0 -0.14966524998E+02  0.63340404025E+01  0.24334403524E+02  0.29262264663E+02  0.00000000000E+00 0. -1.
</event>
<event>
 7    1  0.2812635E-010  0.4778730E+02  0.7816164E-02  0.1312668E+00
        -11   -1    0    0    0    0  0.00000000000E+00  0.00000000000E+00  0.45593999997E+02  0.45594000000E+02  0.51100000000E-03 0. -1.
         11   -1    0    0    0    0 -0.00000000000E+00 -0.00000000000E+00 -0.45593999997E+02  0.45594000000E+02  0.51100000000E-03 0.  1.
    9900012    2    1    2    0    0 -0.10831139406E+02 -0.11231490673E+02 -0.40498897653E+02  0.47787300988E+02  0.20000136526E+02 0.  0.
         12    1    1    2    0    0  0.10831139406E+02  0.11231490673E+02  0.40498897653E+02  0.43400699012E+02  0.00000000000E+00 0. -1.
         11    1    3    3    0    0 -0.41091297330E+01 -0.58475647981E+01 -0.31662716757E+02  0.32459306738E+02  0.51100000000E-03 0. -1.
        -11    1    3    3    0    0 -0.11372253265E+01 -0.33566968895E+01 -0.86899293744E+01  0.93848584563E+01  0.51100000000E-03 0.  1.
         12    1    3    3    0    0 -0.55847843461E+01 -0.20272289858E+01 -0.14625152163E+00  0.59431357936E+01  0.00000000000E+00 0. -1.
</event>
<event>
 7    1  0.2812635E-010  0.4778727E+02  0.7816164E-02  0.1312668E+00
        -11   -1    0    0    0    0  0.00000000000E+00  0.00000000000E+00  0.45593999997E+02  0.45594000000E+02  0.51100000000E-03 0.  1.
         11   -1    0    0    0    0 -0.00000000000E+00 -0.00000000000E+00 -0.45593999997E+02  0.45594000000E+02  0.51100000000E-03 0. -1.
    9900012    2    1    2    0    0  0.77371732746E+01 -0.41729065609E+02  0.90799132777E+01  0.47787267380E+02  0.19999983290E+02 0.  0.
         12    1    1    2    0    0 -0.77371732746E+01  0.41729065609E+02 -0.90799132777E+01  0.43400732620E+02  0.00000000000E+00 0. -1.
         11    1    3    3    0    0 -0.67948316521E+00  0.19148463790E+01 -0.31606226934E+00  0.20562659473E+01  0.51100000000E-03 0. -1.
        -11    1    3    3    0    0  0.45054689880E+01 -0.32136734840E+02  0.84918755593E+01  0.33543716666E+02  0.51100000000E-03 0.  1.
         12    1    3    3    0    0  0.39111874517E+01 -0.11507177148E+02  0.90409998774E+00  0.12187284766E+02  0.00000000000E+00 0. -1.
</event>
<event>
 7    1  0.2812635E-010  0.4778727E+02  0.7816164E-02  0.1312668E+00
        -11   -1    0    0    0    0  0.00000000000E+00  0.00000000000E+00  0.45593999997E+02  0.45594000000E+02  0.51100000000E-03 0. -1.
         11   -1    0    0    0    0 -0.00000000000E+00 -0.00000000000E+00 -0.45593999997E+02  0.45594000000E+02  0.51100000000E-03 0.  1.
    9900012    2    1    2    0    0  0.36703048221E+02 -0.21673396101E+02  0.81715071125E+01  0.47787269870E+02  0.19999994646E+02 0.  0.
         12    1    1    2    0    0 -0.36703048221E+02  0.21673396101E+02 -0.81715071125E+01  0.43400730130E+02  0.00000000000E+00 0. -1.
         11    1    3    3    0    0  0.23655645985E+02 -0.70779896116E+01 -0.10827923871E+01  0.24715581392E+02  0.51100000000E-03 0. -1.
        -11    1    3    3    0    0  0.25655753215E+01 -0.32851659568E+01 -0.13218976167E+01  0.43728601240E+01  0.51100000000E-03 0.  1.
         12    1    3    3    0    0  0.10481826915E+02 -0.11310240533E+02  0.10576197116E+02  0.18698828355E+02  0.00000000000E+00 0. -1.
</event>
<event>
 7    1  0.2812635E-010  0.4778727E+02  0.7816164E-02  0.1312668E+00
        -11   -1    0    0    0    0  0.00000000000E+00  0.00000000000E+00  0.45593999997E+02  0.45594000000E+02  0.51100000000E-03 0.  1.
         11   -1    0    0    0    0 -0.00000000000E+00 -0.00000000000E+00 -0.45593999997E+02  0.45594000000E+02  0.51100000000E-03 0. -1.
    9900012    2    1    2    0    0  0.33928566164E+02 -0.12428172488E+02  0.24041968687E+02  0.47787270379E+02  0.19999996966E+02 0.  0.
         12    1    1    2    0    0 -0.33928566164E+02  0.12428172488E+02 -0.24041968687E+02  0.43400729621E+02  0.00000000000E+00 0. -1.
         11    1    3    3    0    0  0.24254630755E+01 -0.60007616871E+00  0.97895096302E+01  0.10103339131E+02  0.51100000000E-03 0. -1.
        -11    1    3    3    0    0  0.15542990197E+02 -0.60302405623E+01  0.12029121915E+02  0.20558407521E+02  0.51100000000E-03 0.  1.
         12    1    3    3    0    0  0.15960112891E+02 -0.57978557567E+01  0.22233371417E+01  0.17125523726E+02  0.00000000000E+00 0. -1.
</event>
<event>
 7    1  0.2812635E-010  0.4778727E+02  0.7816164E-02  0.1312668E+00
        -11   -1    0    0    0    0  0.00000000000E+00  0.00000000000E+00  0.45593999997E+02  0.45594000000E+02  0.51100000000E-03 0. -1.
         11   -1    0    0    0    0 -0.00000000000E+00 -0.00000000000E+00 -0.45593999997E+02  0.45594000000E+02  0.51100000000E-03 0.  1.
    9900012    2    1    2    0    0 -0.29065471505E+02  0.18020389137E+02 -0.26722412625E+02  0.47787269650E+02  0.19999993640E+02 0.  0.
         12    1    1    2    0    0  0.29065471505E+02 -0.18020389137E+02  0.26722412625E+02  0.43400730350E+02  0.00000000000E+00 0. -1.
         11    1    3    3    0    0  0.18476447404E+01  0.17640533993E+01 -0.47859019046E+01  0.54249915008E+01  0.51100000000E-03 0. -1.
        -11    1    3    3    0    0 -0.22015904610E+02  0.15558836872E+02 -0.18944668606E+02  0.32949627152E+02  0.51100000000E-03 0.  1.
         12    1    3    3    0    0 -0.88972116350E+01  0.69749886595E+00 -0.29918421141E+01  0.94126509965E+01  0.00000000000E+00 0. -1.
</event>
<event>
 7    1  0.2812635E-010  0.4778727E+02  0.7816164E-02  0.1312668E+00
        -11   -1    0    0    0    0  0.00000000000E+00  0.00000000000E+00  0.45593999997E+02  0.45594000000E+02  0.51100000000E-03 0. -1.
         11   -1    0    0    0    0 -0.00000000000E+00 -0.00000000000E+00 -0.45593999997E+02  0.45594000000E+02  0.51100000000E-03 0.  1.
    9900012    2    1    2    0    0  0.36712728208E+02 -0.56253144555E+01 -0.22453393132E+02  0.47787269150E+02  0.19999991364E+02 0.  0.
         12    1    1    2    0    0 -0.36712728208E+02  0.56253144555E+01  0.22453393132E+02  0.43400730850E+02  0.00000000000E+00 0. -1.
         11    1    3    3    0    0  0.13215660601E+02  0.32550726985E+01 -0.26043883346E+01  0.13857561915E+02  0.51100000000E-03 0. -1.
        -11    1    3    3    0    0  0.10727498743E+02 -0.10030866886E+02 -0.11055460617E+02  0.18382620310E+02  0.51100000000E-03 0.  1.
        -12    1    3    3    0    0  0.12769568864E+02  0.11504797317E+01 -0.87935441797E+01  0.15547086924E+02  0.00000000000E+00 0.  1.
</event>
<event>
 7    1  0.2812635E-010  0.4778727E+02  0.7816164E-02  0.1312668E+00
        -11   -1    0    0    0    0  0.00000000000E+00  0.00000000000E+00  0.45593999997E+02  0.45594000000E+02  0.51100000000E-03 0.  1.
         11   -1    0    0    0    0 -0.00000000000E+00 -0.00000000000E+00 -0.45593999997E+02  0.45594000000E+02  0.51100000000E-03 0. -1.
    9900012    2    1    2    0    0 -0.11407232229E+02  0.29194527498E+02  0.30019627394E+02  0.47787269455E+02  0.19999992754E+02 0.  0.
         12    1    1    2    0    0  0.11407232229E+02 -0.29194527498E+02 -0.30019627394E+02  0.43400730545E+02  0.00000000000E+00 0. -1.
         11    1    3    3    0    0 -0.16005453097E+01 -0.21155294234E+01  0.40268433775E+00  0.26831632389E+01  0.51100000000E-03 0. -1.
        -11    1    3    3    0    0 -0.66703230938E+01  0.26748400044E+02  0.28098856804E+02  0.39363890421E+02  0.51100000000E-03 0.  1.
         12    1    3    3    0    0 -0.31363638255E+01  0.45616568765E+01  0.15180862521E+01  0.57402157951E+01  0.00000000000E+00 0. -1.
</event>
<event>
 7    1  0.2812635E-010  0.4778727E+02  0.7816164E-02  0.1312668E+00
        -11   -1    0    0    0    0  0.00000000000E+00  0.00000000000E+00  0.45593999997E+02  0.45594000000E+02  0.51100000000E-03 0.  1.
         11   -1    0    0    0    0 -0.00000000000E+00 -0.00000000000E+00 -0.45593999997E+02  0.45594000000E+02  0.51100000000E-03 0. -1.
    9900012    2    1    2    0    0  0.67326622584E+01 -0.41103949590E+02  0.12196717357E+02  0.47787270429E+02  0.19999997195E+02 0.  0.
         12    1    1    2    0    0 -0.67326622584E+01  0.41103949590E+02 -0.12196717357E+02  0.43400729571E+02  0.00000000000E+00 0. -1.
         11    1    3    3    0    0 -0.30159381327E+01 -0.24596497581E+01  0.70036159772E+00  0.39542719154E+01  0.51100000000E-03 0. -1.
        -11    1    3    3    0    0  0.98005873729E+01 -0.19597840494E+02  0.66459360522E+00  0.21921873775E+02  0.51100000000E-03 0.  1.
        -12    1    3    3    0    0 -0.51986981851E-01 -0.19046459338E+02  0.10831762155E+02  0.21911124739E+02  0.00000000000E+00 0.  1.
</event>
<event>
 7    1  0.2812635E-010  0.4778727E+02  0.7816164E-02  0.1312668E+00
        -11   -1    0    0    0    0  0.00000000000E+00  0.00000000000E+00  0.45593999997E+02  0.45594000000E+02  0.51100000000E-03 0.  1.
         11   -1    0    0    0    0 -0.00000000000E+00 -0.00000000000E+00 -0.45593999997E+02  0.45594000000E+02  0.51100000000E-03 0. -1.
    9900012    2    1    2    0    0 -0.38076541071E+02  0.20371714275E+02  0.43351543358E+01  0.47787270909E+02  0.19999999385E+02 0.  0.
         12    1    1    2    0    0  0.38076541071E+02 -0.20371714275E+02 -0.43351543358E+01  0.43400729091E+02  0.00000000000E+00 0. -1.
         11    1    3    3    0    0 -0.29507106492E+00  0.25069349213E+01  0.32293557378E-01  0.25244470222E+01  0.51100000000E-03 0. -1.
        -11    1    3    3    0    0 -0.15068724850E+02  0.13553970375E+02  0.81160430528E+01  0.21832240760E+02  0.51100000000E-03 0.  1.
        -12    1    3    3    0    0 -0.22712745157E+02  0.43108089788E+01 -0.38131822744E+01  0.23430583127E+02  0.00000000000E+00 0.  1.
</event>
<event>
 7    1  0.2812635E-010  0.4778727E+02  0.7816164E-02  0.1312668E+00
        -11   -1    0    0    0    0  0.00000000000E+00  0.00000000000E+00  0.45593999997E+02  0.45594000000E+02  0.51100000000E-03 0.  1.
         11   -1    0    0    0    0 -0.00000000000E+00 -0.00000000000E+00 -0.45593999997E+02  0.45594000000E+02  0.51100000000E-03 0. -1.
    9900012    2    1    2    0    0  0.12680091149E+02  0.34970819675E+02  0.22357997735E+02  0.47787274165E+02  0.20000014228E+02 0.  0.
         12    1    1    2    0    0 -0.12680091149E+02 -0.34970819675E+02 -0.22357997735E+02  0.43400725835E+02  0.00000000000E+00 0. -1.
         11    1    3    3    0    0  0.16045882935E+01  0.12748721638E+01  0.25550321896E+01  0.32753919424E+01  0.51100000000E-03 0. -1.
        -11    1    3    3    0    0  0.12353394538E+02  0.17891185998E+02  0.18596038890E+02  0.28609675910E+02  0.51100000000E-03 0.  1.
        -12    1    3    3    0    0 -0.12778916827E+01  0.15804761513E+02  0.12069266553E+01  0.15902206312E+02  0.00000000000E+00 0.  1.
</event>
<event>
 7    1  0.2812635E-010  0.4778727E+02  0.7816164E-02  0.1312668E+00
        -11   -1    0    0    0    0  0.00000000000E+00  0.00000000000E+00  0.45593999997E+02  0.45594000000E+02  0.51100000000E-03 0.  1.
         11   -1    0    0    0    0 -0.00000000000E+00 -0.00000000000E+00 -0.45593999997E+02  0.45594000000E+02  0.51100000000E-03 0. -1.
    9900012    2    1    2    0    0 -0.11834564180E+02 -0.15090617560E+02  0.38933790721E+02  0.47787266048E+02  0.19999977218E+02 0.  0.
         12    1    1    2    0    0  0.11834564180E+02  0.15090617560E+02 -0.38933790721E+02  0.43400733952E+02  0.00000000000E+00 0. -1.
         11    1    3    3    0    0 -0.48482295326E+01 -0.35365603175E+01  0.19943322657E+01  0.63237607424E+01  0.51100000000E-03 0. -1.
        -11    1    3    3    0    0 -0.10083749042E+02 -0.93719426999E+01  0.33957644167E+02  0.36642010076E+02  0.51100000000E-03 0.  1.
        -12    1    3    3    0    0  0.30974143940E+01 -0.21821145428E+01  0.29818142877E+01  0.48214952299E+01  0.00000000000E+00 0.  1.
</event>
<event>
 7    1  0.2812635E-010  0.4778727E+02  0.7816164E-02  0.1312668E+00
        -11   -1    0    0    0    0  0.00000000000E+00  0.00000000000E+00  0.45593999997E+02  0.45594000000E+02  0.51100000000E-03 0.  1.
         11   -1    0    0    0    0 -0.00000000000E+00 -0.00000000000E+00 -0.45593999997E+02  0.45594000000E+02  0.51100000000E-03 0. -1.
    9900012    2    1    2    0    0  0.42865351619E+01  0.33876522482E+02  0.26788618056E+02  0.47787271706E+02  0.20000003016E+02 0.  0.
         12    1    1    2    0    0 -0.42865351619E+01 -0.33876522482E+02 -0.26788618056E+02  0.43400728294E+02  0.00000000000E+00 0. -1.
         11    1    3    3    0    0 -0.13952610931E+01  0.82923689197E+00 -0.39303880580E+00  0.16699901511E+01  0.51100000000E-03 0. -1.
        -11    1    3    3    0    0 -0.23886757543E+01  0.15683383836E+02  0.20315096358E+02  0.25775520183E+02  0.51100000000E-03 0.  1.
        -12    1    3    3    0    0  0.80704720093E+01  0.17363901754E+02  0.68665605036E+01  0.20341761372E+02  0.00000000000E+00 0.  1.
</event>
<event>
 7    1  0.2812635E-010  0.4778727E+02  0.7816164E-02  0.1312668E+00
        -11   -1    0    0    0    0  0.00000000000E+00  0.00000000000E+00  0.45593999997E+02  0.45594000000E+02  0.51100000000E-03 0.  1.
         11   -1    0    0    0    0 -0.00000000000E+00 -0.00000000000E+00 -0.45593999997E+02  0.45594000000E+02  0.51100000000E-03 0. -1.
    9900012    2    1    2    0    0 -0.11717372652E+02  0.55012247019E+01  0.41425393530E+02  0.47787268160E+02  0.19999986850E+02 0.  0.
         12    1    1    2    0    0  0.11717372652E+02 -0.55012247019E+01 -0.41425393530E+02  0.43400731840E+02  0.00000000000E+00 0. -1.
         11    1    3    3    0    0  0.35856214459E+01  0.36948877790E+01  0.41403845861E+01  0.66069404140E+01  0.51100000000E-03 0. -1.
        -11    1    3    3    0    0 -0.12543826517E+02 -0.16337576192E+01  0.31187322119E+02  0.33655100785E+02  0.51100000000E-03 0.  1.
        -12    1    3    3    0    0 -0.27591675810E+01  0.34400945420E+01  0.60976868249E+01  0.75252269609E+01  0.00000000000E+00 0.  1.
</event>
<event>
 7    1  0.2812635E-010  0.4778727E+02  0.7816164E-02  0.1312668E+00
        -11   -1    0    0    0    0  0.00000000000E+00  0.00000000000E+00  0.45593999997E+02  0.45594000000E+02  0.51100000000E-03 0.  1.
         11   -1    0    0    0    0 -0.00000000000E+00 -0.00000000000E+00 -0.45593999997E+02  0.45594000000E+02  0.51100000000E-03 0. -1.
    9900012    2    1    2    0    0 -0.26691956434E+02 -0.33801239476E+02 -0.53515579565E+01  0.47787268428E+02  0.19999988070E+02 0.  0.
         12    1    1    2    0    0  0.26691956434E+02  0.33801239476E+02  0.53515579565E+01  0.43400731572E+02  0.00000000000E+00 0. -1.
         11    1    3    3    0    0 -0.18300666184E+02 -0.25929315318E+02 -0.54231358171E+01  0.32197114436E+02  0.51100000000E-03 0. -1.
        -11    1    3    3    0    0 -0.94604529900E+01 -0.81279432726E+01 -0.25650135432E+01  0.12733535540E+02  0.51100000000E-03 0.  1.
         12    1    3    3    0    0  0.10691627394E+01  0.25601911420E+00  0.26365914038E+01  0.28566184520E+01  0.00000000000E+00 0. -1.
</event>
<event>
 7    1  0.2812635E-010  0.4778727E+02  0.7816164E-02  0.1312668E+00
        -11   -1    0    0    0    0  0.00000000000E+00  0.00000000000E+00  0.45593999997E+02  0.45594000000E+02  0.51100000000E-03 0.  1.
         11   -1    0    0    0    0 -0.00000000000E+00 -0.00000000000E+00 -0.45593999997E+02  0.45594000000E+02  0.51100000000E-03 0. -1.
    9900012    2    1    2    0    0 -0.26930018798E+02 -0.24350928857E+02  0.23778772653E+02  0.47787266394E+02  0.19999978796E+02 0.  0.
         12    1    1    2    0    0  0.26930018798E+02  0.24350928857E+02 -0.23778772653E+02  0.43400733606E+02  0.00000000000E+00 0. -1.
         11    1    3    3    0    0 -0.87108654767E+01 -0.16846879696E+02  0.61746406970E+01  0.19945493748E+02  0.51100000000E-03 0. -1.
        -11    1    3    3    0    0 -0.94557825417E+01 -0.53164869311E+01  0.14866890979E+02  0.18403839393E+02  0.51100000000E-03 0.  1.
         12    1    3    3    0    0 -0.87633707792E+01 -0.21875622301E+01  0.27372409777E+01  0.94379332533E+01  0.00000000000E+00 0. -1.
</event>
<event>
 7    1  0.2812635E-010  0.4778727E+02  0.7816164E-02  0.1312668E+00
        -11   -1    0    0    0    0  0.00000000000E+00  0.00000000000E+00  0.45593999997E+02  0.45594000000E+02  0.51100000000E-03 0. -1.
         11   -1    0    0    0    0 -0.00000000000E+00 -0.00000000000E+00 -0.45593999997E+02  0.45594000000E+02  0.51100000000E-03 0.  1.
    9900012    2    1    2    0    0 -0.94597336374E+01  0.22499595121E+02 -0.35887392899E+02  0.47787270626E+02  0.19999998093E+02 0.  0.
         12    1    1    2    0    0  0.94597336374E+01 -0.22499595121E+02  0.35887392899E+02  0.43400729374E+02  0.00000000000E+00 0. -1.
         11    1    3    3    0    0 -0.80916037876E+01  0.42630422906E+01 -0.23552120255E+01  0.94442895642E+01  0.51100000000E-03 0. -1.
        -11    1    3    3    0    0 -0.12801889257E+01  0.10991022928E+02 -0.23422075210E+02  0.25904344734E+02  0.51100000000E-03 0.  1.
         12    1    3    3    0    0 -0.87940924110E-01  0.72455299031E+01 -0.10110105663E+02  0.12438636328E+02  0.00000000000E+00 0. -1.
</event>
<event>
 7    1  0.2812635E-010  0.4778727E+02  0.7816164E-02  0.1312668E+00
        -11   -1    0    0    0    0  0.00000000000E+00  0.00000000000E+00  0.45593999997E+02  0.45594000000E+02  0.51100000000E-03 0.  1.
         11   -1    0    0    0    0 -0.00000000000E+00 -0.00000000000E+00 -0.45593999997E+02  0.45594000000E+02  0.51100000000E-03 0. -1.
    9900012    2    1    2    0    0 -0.12940382398E+02  0.37487609979E+02  0.17630900512E+02  0.47787273607E+02  0.20000011683E+02 0.  0.
         12    1    1    2    0    0  0.12940382398E+02 -0.37487609979E+02 -0.17630900512E+02  0.43400726393E+02  0.00000000000E+00 0. -1.
         11    1    3    3    0    0 -0.67276092300E+00 -0.12005654067E+01  0.57873093986E+00  0.14929481964E+01  0.51100000000E-03 0. -1.
        -11    1    3    3    0    0 -0.75050939032E+00  0.20640691767E+02  0.34796673492E+01  0.20945393434E+02  0.51100000000E-03 0.  1.
        -12    1    3    3    0    0 -0.11517112085E+02  0.18047483619E+02  0.13572502223E+02  0.25348931977E+02  0.00000000000E+00 0.  1.
</event>
<event>
 7    1  0.2812635E-010  0.4778726E+02  0.7816164E-02  0.1312668E+00
        -11   -1    0    0    0    0  0.00000000000E+00  0.00000000000E+00  0.45593999997E+02  0.45594000000E+02  0.51100000000E-03 0.  1.
         11   -1    0    0    0    0 -0.00000000000E+00 -0.00000000000E+00 -0.45593999997E+02  0.45594000000E+02  0.51100000000E-03 0. -1.
    9900012    2    1    2    0    0 -0.43174688345E+02  0.42398088064E+01 -0.12626739560E+01  0.47787262242E+02  0.19999959867E+02 0.  0.
         12    1    1    2    0    0  0.43174688345E+02 -0.42398088064E+01  0.12626739560E+01  0.43400737758E+02  0.00000000000E+00 0. -1.
         11    1    3    3    0    0 -0.14504362649E+02  0.59905370070E+01 -0.47674180841E+01  0.16400955611E+02  0.51100000000E-03 0. -1.
        -11    1    3    3    0    0 -0.25115307285E+02 -0.36653655507E+01  0.66844305602E+01  0.26246812698E+02  0.51100000000E-03 0.  1.
        -12    1    3    3    0    0 -0.35550184107E+01  0.19146373502E+01 -0.31796864320E+01  0.51394939332E+01  0.00000000000E+00 0.  1.
</event>
<event>
 7    1  0.2812635E-010  0.4778728E+02  0.7816164E-02  0.1312668E+00
        -11   -1    0    0    0    0  0.00000000000E+00  0.00000000000E+00  0.45593999997E+02  0.45594000000E+02  0.51100000000E-03 0. -1.
         11   -1    0    0    0    0 -0.00000000000E+00 -0.00000000000E+00 -0.45593999997E+02  0.45594000000E+02  0.51100000000E-03 0.  1.
    9900012    2    1    2    0    0 -0.37485034501E+02 -0.14707825000E+02 -0.16191817644E+02  0.47787275508E+02  0.20000020353E+02 0.  0.
         12    1    1    2    0    0  0.37485034501E+02  0.14707825000E+02  0.16191817644E+02  0.43400724492E+02  0.00000000000E+00 0. -1.
         11    1    3    3    0    0 -0.22539167001E+02 -0.17496036306E+02 -0.72651306114E+01  0.29443292251E+02  0.51100000000E-03 0. -1.
        -11    1    3    3    0    0 -0.11140170805E+02  0.18125243716E+01 -0.89668055904E+01  0.14415000968E+02  0.51100000000E-03 0.  1.
         12    1    3    3    0    0 -0.38056966952E+01  0.97568693422E+00  0.40118557811E-01  0.39289822891E+01  0.00000000000E+00 0. -1.
</event>
<event>
 7    1  0.2812635E-010  0.4778727E+02  0.7816164E-02  0.1312668E+00
        -11   -1    0    0    0    0  0.00000000000E+00  0.00000000000E+00  0.45593999997E+02  0.45594000000E+02  0.51100000000E-03 0. -1.
         11   -1    0    0    0    0 -0.00000000000E+00 -0.00000000000E+00 -0.45593999997E+02  0.45594000000E+02  0.51100000000E-03 0.  1.
    9900012    2    1    2    0    0  0.27085650579E+01  0.25144367287E+02 -0.35271064323E+02  0.47787268331E+02  0.19999987627E+02 0.  0.
         12    1    1    2    0    0 -0.27085650579E+01 -0.25144367287E+02  0.35271064323E+02  0.43400731669E+02  0.00000000000E+00 0. -1.
         11    1    3    3    0    0  0.12448501169E+01 -0.19616843025E+01  0.37348091809E+00  0.23531564703E+01  0.51100000000E-03 0. -1.
        -11    1    3    3    0    0  0.13909976246E+01  0.26091958306E+02 -0.35884539281E+02  0.44389473103E+02  0.51100000000E-03 0.  1.
        -12    1    3    3    0    0  0.72717316399E-01  0.10140932831E+01  0.23999403967E+00  0.10446387576E+01  0.00000000000E+00 0.  1.
</event>
<event>
 7    1  0.2812635E-010  0.4778728E+02  0.7816164E-02  0.1312668E+00
        -11   -1    0    0    0    0  0.00000000000E+00  0.00000000000E+00  0.45593999997E+02  0.45594000000E+02  0.51100000000E-03 0.  1.
         11   -1    0    0    0    0 -0.00000000000E+00 -0.00000000000E+00 -0.45593999997E+02  0.45594000000E+02  0.51100000000E-03 0. -1.
    9900012    2    1    2    0    0 -0.37535655362E+02 -0.17121641415E+02  0.13473933251E+02  0.47787275289E+02  0.20000019353E+02 0.  0.
         12    1    1    2    0    0  0.37535655362E+02  0.17121641415E+02 -0.13473933251E+02  0.43400724711E+02  0.00000000000E+00 0. -1.
         11    1    3    3    0    0 -0.13206561356E+02 -0.10324323823E+02 -0.24253684114E+01  0.16937748890E+02  0.51100000000E-03 0. -1.
        -11    1    3    3    0    0 -0.18452321867E+02 -0.63958831190E+01  0.82634131642E+01  0.21205647846E+02  0.51100000000E-03 0.  1.
         12    1    3    3    0    0 -0.58767721387E+01 -0.40143447242E+00  0.76358884983E+01  0.96438785540E+01  0.00000000000E+00 0. -1.
</event>
<event>
 7    1  0.2812635E-010  0.4778727E+02  0.7816164E-02  0.1312668E+00
        -11   -1    0    0    0    0  0.00000000000E+00  0.00000000000E+00  0.45593999997E+02  0.45594000000E+02  0.51100000000E-03 0. -1.
         11   -1    0    0    0    0 -0.00000000000E+00 -0.00000000000E+00 -0.45593999997E+02  0.45594000000E+02  0.51100000000E-03 0.  1.
    9900012    2    1    2    0    0 -0.41378796932E+02 -0.43521428152E+01 -0.12348167011E+02  0.47787271767E+02  0.20000003296E+02 0.  0.
         12    1    1    2    0    0  0.41378796932E+02  0.43521428152E+01  0.12348167011E+02  0.43400728233E+02  0.00000000000E+00 0. -1.
         11    1    3    3    0    0  0.24075435092E+00 -0.24905390423E+01 -0.25044421065E+01  0.35401946139E+01  0.51100000000E-03 0. -1.
        -11    1    3    3    0    0 -0.36685956752E+02 -0.50344505347E+01 -0.68373020146E+01  0.37655727507E+02  0.51100000000E-03 0.  1.
        -12    1    3    3    0    0 -0.49335945308E+01  0.31728467618E+01 -0.30064228896E+01  0.65913496463E+01  0.00000000000E+00 0.  1.
</event>
<event>
 7    1  0.2812635E-010  0.4778727E+02  0.7816164E-02  0.1312668E+00
        -11   -1    0    0    0    0  0.00000000000E+00  0.00000000000E+00  0.45593999997E+02  0.45594000000E+02  0.51100000000E-03 0.  1.
         11   -1    0    0    0    0 -0.00000000000E+00 -0.00000000000E+00 -0.45593999997E+02  0.45594000000E+02  0.51100000000E-03 0. -1.
    9900012    2    1    2    0    0  0.20614582038E+02 -0.26246834094E+02  0.27744661628E+02  0.47787267962E+02  0.19999985947E+02 0.  0.
         12    1    1    2    0    0 -0.20614582038E+02  0.26246834094E+02 -0.27744661628E+02  0.43400732038E+02  0.00000000000E+00 0. -1.
         11    1    3    3    0    0  0.10982631769E+02 -0.53023196400E+01  0.19205815745E+02  0.22750739611E+02  0.51100000000E-03 0. -1.
        -11    1    3    3    0    0  0.93152993030E+01 -0.18225603835E+02  0.88143206740E+01  0.22285414186E+02  0.51100000000E-03 0.  1.
         12    1    3    3    0    0  0.31665096549E+00 -0.27189106194E+01 -0.27547479067E+00  0.27511141653E+01  0.00000000000E+00 0. -1.
</event>
<event>
 7    1  0.2812635E-010  0.4778733E+02  0.7816164E-02  0.1312668E+00
        -11   -1    0    0    0    0  0.00000000000E+00  0.00000000000E+00  0.45593999997E+02  0.45594000000E+02  0.51100000000E-03 0. -1.
         11   -1    0    0    0    0 -0.00000000000E+00 -0.00000000000E+00 -0.45593999997E+02  0.45594000000E+02  0.51100000000E-03 0.  1.
    9900012    2    1    2    0    0 -0.16802326514E+01 -0.42074769516E+02 -0.10512332725E+02  0.47787325455E+02  0.20000248079E+02 0.  0.
         12    1    1    2    0    0  0.16802326514E+01  0.42074769516E+02  0.10512332725E+02  0.43400674545E+02  0.00000000000E+00 0. -1.
         11    1    3    3    0    0 -0.12627731837E+01 -0.24735449397E+01 -0.39752919500E+01  0.48493264513E+01  0.51100000000E-03 0. -1.
        -11    1    3    3    0    0  0.62827095193E+01 -0.15714138740E+02  0.11577554759E+01  0.16963106828E+02  0.51100000000E-03 0.  1.
        -12    1    3    3    0    0 -0.67001689870E+01 -0.23887085837E+02 -0.76947962511E+01  0.25974892176E+02  0.00000000000E+00 0.  1.
</event>
<event>
 7    1  0.2812635E-010  0.4778727E+02  0.7816164E-02  0.1312668E+00
        -11   -1    0    0    0    0  0.00000000000E+00  0.00000000000E+00  0.45593999997E+02  0.45594000000E+02  0.51100000000E-03 0. -1.
         11   -1    0    0    0    0 -0.00000000000E+00 -0.00000000000E+00 -0.45593999997E+02  0.45594000000E+02  0.51100000000E-03 0.  1.
    9900012    2    1    2    0    0 -0.14128815478E+02  0.12305498624E+02 -0.39148116288E+02  0.47787265766E+02  0.19999975932E+02 0.  0.
         12    1    1    2    0    0  0.14128815478E+02 -0.12305498624E+02  0.39148116288E+02  0.43400734234E+02  0.00000000000E+00 0. -1.
         11    1    3    3    0    0 -0.16111219198E+02  0.13084963163E+02 -0.22487071587E+02  0.30601569141E+02  0.51100000000E-03 0. -1.
        -11    1    3    3    0    0  0.84342656867E+00 -0.19712901269E+01 -0.12931430249E+02  0.13107983891E+02  0.51100000000E-03 0.  1.
         12    1    3    3    0    0  0.11389771520E+01  0.11918255878E+01 -0.37296144518E+01  0.40777127344E+01  0.00000000000E+00 0. -1.
</event>
<event>
 7    1  0.2812635E-010  0.4778727E+02  0.7816164E-02  0.1312668E+00
        -11   -1    0    0    0    0  0.00000000000E+00  0.00000000000E+00  0.45593999997E+02  0.45594000000E+02  0.51100000000E-03 0.  1.
         11   -1    0    0    0    0 -0.00000000000E+00 -0.00000000000E+00 -0.45593999997E+02  0.45594000000E+02  0.51100000000E-03 0. -1.
    9900012    2    1    2    0    0 -0.17991738433E+02 -0.92775059392E+01  0.38390732730E+02  0.47787272727E+02  0.20000007671E+02 0.  0.
         12    1    1    2    0    0  0.17991738433E+02  0.92775059392E+01 -0.38390732730E+02  0.43400727273E+02  0.00000000000E+00 0. -1.
         11    1    3    3    0    0 -0.13016200705E+02 -0.18657875670E+01  0.30137754600E+02  0.32881406549E+02  0.51100000000E-03 0. -1.
        -11    1    3    3    0    0 -0.48414462107E+01  0.57085383282E-03  0.21238383296E+01  0.52868035001E+01  0.51100000000E-03 0.  1.
         12    1    3    3    0    0 -0.13409151707E+00 -0.74122892261E+01  0.61291398005E+01  0.96190626779E+01  0.00000000000E+00 0. -1.
</event>
<event>
 7    1  0.2812635E-010  0.4778727E+02  0.7816164E-02  0.1312668E+00
        -11   -1    0    0    0    0  0.00000000000E+00  0.00000000000E+00  0.45593999997E+02  0.45594000000E+02  0.51100000000E-03 0. -1.
         11   -1    0    0    0    0 -0.00000000000E+00 -0.00000000000E+00 -0.45593999997E+02  0.45594000000E+02  0.51100000000E-03 0.  1.
    9900012    2    1    2    0    0  0.28224631686E+02  0.20501729621E+02 -0.25820007461E+02  0.47787268018E+02  0.19999986200E+02 0.  0.
         12    1    1    2    0    0 -0.28224631686E+02 -0.20501729621E+02  0.25820007461E+02  0.43400731982E+02  0.00000000000E+00 0. -1.
         11    1    3    3    0    0  0.41860441546E+01  0.64296016019E+01 -0.30328360695E+01  0.82498992303E+01  0.51100000000E-03 0. -1.
        -11    1    3    3    0    0  0.57411028228E+01  0.22002877315E+00  0.16855980685E+01  0.59874798866E+01  0.51100000000E-03 0.  1.
        -12    1    3    3    0    0  0.18297484709E+02  0.13852099246E+02 -0.24472769460E+02  0.33549888901E+02  0.00000000000E+00 0.  1.
</event>
<event>
 7    1  0.2812635E-010  0.4778727E+02  0.7816164E-02  0.1312668E+00
        -11   -1    0    0    0    0  0.00000000000E+00  0.00000000000E+00  0.45593999997E+02  0.45594000000E+02  0.51100000000E-03 0. -1.
         11   -1    0    0    0    0 -0.00000000000E+00 -0.00000000000E+00 -0.45593999997E+02  0.45594000000E+02  0.51100000000E-03 0.  1.
    9900012    2    1    2    0    0 -0.16862829685E+02  0.19891017194E+02 -0.34693164346E+02  0.47787271408E+02  0.20000001658E+02 0.  0.
         12    1    1    2    0    0  0.16862829685E+02 -0.19891017194E+02  0.34693164346E+02  0.43400728592E+02  0.00000000000E+00 0. -1.
         11    1    3    3    0    0 -0.15371188684E+02  0.18758511320E+02 -0.31252081005E+02  0.39558156629E+02  0.51100000000E-03 0. -1.
        -11    1    3    3    0    0 -0.24672268078E+01  0.26061896455E+01 -0.48045673520E+01  0.59969409111E+01  0.51100000000E-03 0.  1.
         12    1    3    3    0    0  0.97558580652E+00 -0.14736837722E+01  0.13634840114E+01  0.22321738677E+01  0.00000000000E+00 0. -1.
</event>
<event>
 7    1  0.2812635E-010  0.4778727E+02  0.7816164E-02  0.1312668E+00
        -11   -1    0    0    0    0  0.00000000000E+00  0.00000000000E+00  0.45593999997E+02  0.45594000000E+02  0.51100000000E-03 0. -1.
         11   -1    0    0    0    0 -0.00000000000E+00 -0.00000000000E+00 -0.45593999997E+02  0.45594000000E+02  0.51100000000E-03 0.  1.
    9900012    2    1    2    0    0  0.11731019129E+02 -0.23847017932E+02 -0.34312190081E+02  0.47787268874E+02  0.19999990105E+02 0.  0.
         12    1    1    2    0    0 -0.11731019129E+02  0.23847017932E+02  0.34312190081E+02  0.43400731126E+02  0.00000000000E+00 0. -1.
         11    1    3    3    0    0  0.10304061902E+02 -0.18345196188E+02 -0.21180500267E+02  0.29855209037E+02  0.51100000000E-03 0. -1.
        -11    1    3    3    0    0 -0.15801277476E+01  0.15144256679E+01 -0.89794363227E+01  0.92423246933E+01  0.51100000000E-03 0.  1.
         12    1    3    3    0    0  0.30070849752E+01 -0.70162474127E+01 -0.41522534915E+01  0.86897351434E+01  0.00000000000E+00 0. -1.
</event>
<event>
 7    1 -0.2812635E-010  0.4778727E+02  0.7816164E-02  0.1312668E+00
        -11   -1    0    0    0    0  0.00000000000E+00  0.00000000000E+00  0.45593999997E+02  0.45594000000E+02  0.51100000000E-03 0.  1.
         11   -1    0    0    0    0 -0.00000000000E+00 -0.00000000000E+00 -0.45593999997E+02  0.45594000000E+02  0.51100000000E-03 0. -1.
    9900012    2    1    2    0    0 -0.26769475807E+02  0.25062642626E+02  0.23213837101E+02  0.47787272778E+02  0.20000007906E+02 0.  0.
         12    1    1    2    0    0  0.26769475807E+02 -0.25062642626E+02 -0.23213837101E+02  0.43400727222E+02  0.00000000000E+00 0. -1.
         11    1    3    3    0    0 -0.61491840074E+01  0.30591129128E+01  0.13848493399E+00  0.68694842680E+01  0.51100000000E-03 0. -1.
        -11    1    3    3    0    0 -0.75280109746E+01  0.15937990876E+01  0.12011627287E+02  0.14265003860E+02  0.51100000000E-03 0.  1.
        -12    1    3    3    0    0 -0.13092280825E+02  0.20409730626E+02  0.11063724880E+02  0.26652784651E+02  0.00000000000E+00 0.  1.
</event>
<event>
 7    1  0.2812635E-010  0.4778729E+02  0.7816164E-02  0.1312668E+00
        -11   -1    0    0    0    0  0.00000000000E+00  0.00000000000E+00  0.45593999997E+02  0.45594000000E+02  0.51100000000E-03 0.  1.
         11   -1    0    0    0    0 -0.00000000000E+00 -0.00000000000E+00 -0.45593999997E+02  0.45594000000E+02  0.51100000000E-03 0. -1.
    9900012    2    1    2    0    0 -0.42975204424E+02  0.58058259245E+01  0.17452477502E+01  0.47787289180E+02  0.20000082688E+02 0.  0.
         12    1    1    2    0    0  0.42975204424E+02 -0.58058259245E+01 -0.17452477502E+01  0.43400710820E+02  0.00000000000E+00 0. -1.
         11    1    3    3    0    0 -0.54586937594E+01  0.24930372796E+01 -0.64471354412E+01  0.88078446907E+01  0.51100000000E-03 0. -1.
        -11    1    3    3    0    0 -0.16288961381E+02  0.12761919904E+01  0.65104287007E+01  0.17588195217E+02  0.51100000000E-03 0.  1.
         12    1    3    3    0    0 -0.21227549283E+02  0.20365966545E+01  0.16819544906E+01  0.21391249272E+02  0.00000000000E+00 0. -1.
</event>
<event>
 7    1  0.2812635E-010  0.4778727E+02  0.7816164E-02  0.1312668E+00
        -11   -1    0    0    0    0  0.00000000000E+00  0.00000000000E+00  0.45593999997E+02  0.45594000000E+02  0.51100000000E-03 0. -1.
         11   -1    0    0    0    0 -0.00000000000E+00 -0.00000000000E+00 -0.45593999997E+02  0.45594000000E+02  0.51100000000E-03 0.  1.
    9900012    2    1    2    0    0 -0.24312251208E+02 -0.35923036928E+02  0.14398156164E+01  0.47787271781E+02  0.20000003359E+02 0.  0.
         12    1    1    2    0    0  0.24312251208E+02  0.35923036928E+02 -0.14398156164E+01  0.43400728219E+02  0.00000000000E+00 0. -1.
         11    1    3    3    0    0 -0.81373065343E+00  0.12342686229E+01  0.66085463723E+00  0.16193534891E+01  0.51100000000E-03 0. -1.
        -11    1    3    3    0    0 -0.82833173777E+01 -0.23334351391E+02 -0.39507383234E+01  0.25074162701E+02  0.51100000000E-03 0.  1.
        -12    1    3    3    0    0 -0.15215203177E+02 -0.13822954160E+02  0.47296993026E+01  0.21093755591E+02  0.00000000000E+00 0.  1.
</event>
<event>
 7    1  0.2812635E-010  0.4778726E+02  0.7816164E-02  0.1312668E+00
        -11   -1    0    0    0    0  0.00000000000E+00  0.00000000000E+00  0.45593999997E+02  0.45594000000E+02  0.51100000000E-03 0. -1.
         11   -1    0    0    0    0 -0.00000000000E+00 -0.00000000000E+00 -0.45593999997E+02  0.45594000000E+02  0.51100000000E-03 0.  1.
    9900012    2    1    2    0    0  0.39788198176E+02 -0.89993512697E+01 -0.14816710643E+02  0.47787263236E+02  0.19999964398E+02 0.  0.
         12    1    1    2    0    0 -0.39788198176E+02  0.89993512697E+01  0.14816710643E+02  0.43400736764E+02  0.00000000000E+00 0. -1.
         11    1    3    3    0    0  0.87299778009E+01 -0.17378558371E+01 -0.12067750587E+02  0.14995441301E+02  0.51100000000E-03 0. -1.
        -11    1    3    3    0    0  0.24694389187E+02 -0.66494973770E+01  0.58678163114E+00  0.25580715112E+02  0.51100000000E-03 0.  1.
        -12    1    3    3    0    0  0.63638311878E+01 -0.61199805555E+00 -0.33357416873E+01  0.72111068230E+01  0.00000000000E+00 0.  1.
</event>
<event>
 7    1  0.2812635E-010  0.4778727E+02  0.7816164E-02  0.1312668E+00
        -11   -1    0    0    0    0  0.00000000000E+00  0.00000000000E+00  0.45593999997E+02  0.45594000000E+02  0.51100000000E-03 0.  1.
         11   -1    0    0    0    0 -0.00000000000E+00 -0.00000000000E+00 -0.45593999997E+02  0.45594000000E+02  0.51100000000E-03 0. -1.
    9900012    2    1    2    0    0 -0.19401662405E+02  0.24114018593E+02  0.30425527240E+02  0.47787272995E+02  0.20000008891E+02 0.  0.
         12    1    1    2    0    0  0.19401662405E+02 -0.24114018593E+02 -0.30425527240E+02  0.43400727005E+02  0.00000000000E+00 0. -1.
         11    1    3    3    0    0 -0.37465059390E+01  0.35845379880E+01 -0.34359403484E+00  0.51964676907E+01  0.51100000000E-03 0. -1.
        -11    1    3    3    0    0 -0.16841203798E+02  0.18753967022E+02  0.31491470988E+02  0.40336709950E+02  0.51100000000E-03 0.  1.
        -12    1    3    3    0    0  0.11860473311E+01  0.17755135828E+01 -0.72234971296E+00  0.22540953534E+01  0.00000000000E+00 0.  1.
</event>
<event>
 7    1  0.2812635E-010  0.4778727E+02  0.7816164E-02  0.1312668E+00
        -11   -1    0    0    0    0  0.00000000000E+00  0.00000000000E+00  0.45593999997E+02  0.45594000000E+02  0.51100000000E-03 0.  1.
         11   -1    0    0    0    0 -0.00000000000E+00 -0.00000000000E+00 -0.45593999997E+02  0.45594000000E+02  0.51100000000E-03 0. -1.
    9900012    2    1    2    0    0 -0.37982055883E+02 -0.10036251729E+02  0.18446150451E+02  0.47787269772E+02  0.19999994196E+02 0.  0.
         12    1    1    2    0    0  0.37982055883E+02  0.10036251729E+02 -0.18446150451E+02  0.43400730228E+02  0.00000000000E+00 0. -1.
         11    1    3    3    0    0 -0.13980382778E+02  0.26799278453E+01  0.59321667171E+01  0.15421534233E+02  0.51100000000E-03 0. -1.
        -11    1    3    3    0    0 -0.77041385907E+01 -0.69971995635E+01 -0.97174769501E+00  0.10452695681E+02  0.51100000000E-03 0.  1.
        -12    1    3    3    0    0 -0.16297534514E+02 -0.57189800109E+01  0.13485731429E+02  0.21913039857E+02  0.00000000000E+00 0.  1.
</event>
<event>
 7    1  0.2812635E-010  0.4778727E+02  0.7816164E-02  0.1312668E+00
        -11   -1    0    0    0    0  0.00000000000E+00  0.00000000000E+00  0.45593999997E+02  0.45594000000E+02  0.51100000000E-03 0.  1.
         11   -1    0    0    0    0 -0.00000000000E+00 -0.00000000000E+00 -0.45593999997E+02  0.45594000000E+02  0.51100000000E-03 0. -1.
    9900012    2    1    2    0    0 -0.64494899939E+01 -0.98937226960E+01  0.41762921427E+02  0.47787271019E+02  0.19999999884E+02 0.  0.
         12    1    1    2    0    0  0.64494899939E+01  0.98937226960E+01 -0.41762921427E+02  0.43400728981E+02  0.00000000000E+00 0. -1.
         11    1    3    3    0    0  0.61229334130E+00  0.14599645422E+01  0.21634672087E+02  0.21692520282E+02  0.51100000000E-03 0. -1.
        -11    1    3    3    0    0 -0.60770008151E+01 -0.11528531216E+02  0.11415721914E+02  0.17325001529E+02  0.51100000000E-03 0.  1.
        -12    1    3    3    0    0 -0.98478252016E+00  0.17484397786E+00  0.87125274258E+01  0.87697492082E+01  0.00000000000E+00 0.  1.
</event>
<event>
 7    1  0.2812635E-010  0.4778726E+02  0.7816164E-02  0.1312668E+00
        -11   -1    0    0    0    0  0.00000000000E+00  0.00000000000E+00  0.45593999997E+02  0.45594000000E+02  0.51100000000E-03 0.  1.
         11   -1    0    0    0    0 -0.00000000000E+00 -0.00000000000E+00 -0.45593999997E+02  0.45594000000E+02  0.51100000000E-03 0. -1.
    9900012    2    1    2    0    0  0.17964785519E+02  0.12799223899E+02  0.37377404432E+02  0.47787262526E+02  0.19999961163E+02 0.  0.
         12    1    1    2    0    0 -0.17964785519E+02 -0.12799223899E+02 -0.37377404432E+02  0.43400737474E+02  0.00000000000E+00 0. -1.
         11    1    3    3    0    0  0.55024753540E+01  0.38862674671E+01  0.25963929612E+01  0.72195267516E+01  0.51100000000E-03 0. -1.
        -11    1    3    3    0    0  0.10929840005E+02 -0.69324165071E+00  0.21207669265E+02  0.23868540434E+02  0.51100000000E-03 0.  1.
        -12    1    3    3    0    0  0.15324701602E+01  0.96061980826E+01  0.13573342206E+02  0.16699195341E+02  0.00000000000E+00 0.  1.
</event>
<event>
 7    1  0.2812635E-010  0.4778727E+02  0.7816164E-02  0.1312668E+00
        -11   -1    0    0    0    0  0.00000000000E+00  0.00000000000E+00  0.45593999997E+02  0.45594000000E+02  0.51100000000E-03 0.  1.
         11   -1    0    0    0    0 -0.00000000000E+00 -0.00000000000E+00 -0.45593999997E+02  0.45594000000E+02  0.51100000000E-03 0. -1.
    9900012    2    1    2    0    0 -0.99287199592E+01 -0.27118040946E+02  0.32398390753E+02  0.47787270188E+02  0.19999996097E+02 0.  0.
         12    1    1    2    0    0  0.99287199592E+01  0.27118040946E+02 -0.32398390753E+02  0.43400729812E+02  0.00000000000E+00 0. -1.
         11    1    3    3    0    0 -0.11147225029E+02 -0.94776254126E+01  0.60278833726E+01  0.15824708134E+02  0.51100000000E-03 0. -1.
        -11    1    3    3    0    0  0.14858523647E+01 -0.14260314586E+02  0.23458810100E+02  0.27493273739E+02  0.51100000000E-03 0.  1.
        -12    1    3    3    0    0 -0.26734729534E+00 -0.33801009479E+01  0.29116972806E+01  0.44692883157E+01  0.00000000000E+00 0.  1.
</event>
<event>
 7    1  0.2812635E-010  0.4778727E+02  0.7816164E-02  0.1312668E+00
        -11   -1    0    0    0    0  0.00000000000E+00  0.00000000000E+00  0.45593999997E+02  0.45594000000E+02  0.51100000000E-03 0. -1.
         11   -1    0    0    0    0 -0.00000000000E+00 -0.00000000000E+00 -0.45593999997E+02  0.45594000000E+02  0.51100000000E-03 0.  1.
    9900012    2    1    2    0    0 -0.19392361192E+02 -0.38705583894E+02  0.30720067251E+01  0.47787272789E+02  0.20000007954E+02 0.  0.
         12    1    1    2    0    0  0.19392361192E+02  0.38705583894E+02 -0.30720067251E+01  0.43400727211E+02  0.00000000000E+00 0. -1.
         11    1    3    3    0    0 -0.12066270377E+02 -0.26485359169E+02 -0.56485385093E+01  0.29647514544E+02  0.51100000000E-03 0.  1.
        -11    1    3    3    0    0 -0.50689114663E+01 -0.36450024804E+01  0.88358585938E+00  0.63056031248E+01  0.51100000000E-03 0. -1.
         12    1    3    3    0    0 -0.22571793484E+01 -0.85752222448E+01  0.78369593749E+01  0.11834155120E+02  0.00000000000E+00 0. -1.
</event>
<event>
 7    1  0.2812635E-010  0.4778727E+02  0.7816164E-02  0.1312668E+00
        -11   -1    0    0    0    0  0.00000000000E+00  0.00000000000E+00  0.45593999997E+02  0.45594000000E+02  0.51100000000E-03 0. -1.
         11   -1    0    0    0    0 -0.00000000000E+00 -0.00000000000E+00 -0.45593999997E+02  0.45594000000E+02  0.51100000000E-03 0.  1.
    9900012    2    1    2    0    0 -0.35147251695E+02  0.25460124151E+02  0.27628944286E+00  0.47787267755E+02  0.19999985004E+02 0.  0.
         12    1    1    2    0    0  0.35147251695E+02 -0.25460124151E+02 -0.27628944286E+00  0.43400732245E+02  0.00000000000E+00 0. -1.
         11    1    3    3    0    0 -0.23302146087E+02  0.19402983377E+02  0.54821081881E+01  0.30814270827E+02  0.51100000000E-03 0. -1.
        -11    1    3    3    0    0 -0.11769893428E+02  0.25836833776E+01 -0.59204301257E+01  0.13425993603E+02  0.51100000000E-03 0.  1.
        -12    1    3    3    0    0 -0.75212179995E-01  0.34734573969E+01  0.71461138047E+00  0.35470033247E+01  0.00000000000E+00 0.  1.
</event>
<event>
 7    1  0.2812635E-010  0.4778727E+02  0.7816164E-02  0.1312668E+00
        -11   -1    0    0    0    0  0.00000000000E+00  0.00000000000E+00  0.45593999997E+02  0.45594000000E+02  0.51100000000E-03 0. -1.
         11   -1    0    0    0    0 -0.00000000000E+00 -0.00000000000E+00 -0.45593999997E+02  0.45594000000E+02  0.51100000000E-03 0.  1.
    9900012    2    1    2    0    0 -0.18407165131E+02  0.31767755420E+02 -0.23143232903E+02  0.47787271414E+02  0.20000001684E+02 0.  0.
         12    1    1    2    0    0  0.18407165131E+02 -0.31767755420E+02  0.23143232903E+02  0.43400728586E+02  0.00000000000E+00 0. -1.
         11    1    3    3    0    0  0.30146827075E+01  0.22195524846E+01 -0.68088537950E+00  0.38050401075E+01  0.51100000000E-03 0. -1.
        -11    1    3    3    0    0 -0.15710654028E+02  0.19047347050E+02 -0.97871174832E+01  0.26559626287E+02  0.51100000000E-03 0.  1.
         12    1    3    3    0    0 -0.57111938104E+01  0.10500855885E+02 -0.12675230041E+02  0.17422605019E+02  0.00000000000E+00 0. -1.
</event>
<event>
 7    1  0.2812635E-010  0.4778729E+02  0.7816164E-02  0.1312668E+00
        -11   -1    0    0    0    0  0.00000000000E+00  0.00000000000E+00  0.45593999997E+02  0.45594000000E+02  0.51100000000E-03 0.  1.
         11   -1    0    0    0    0 -0.00000000000E+00 -0.00000000000E+00 -0.45593999997E+02  0.45594000000E+02  0.51100000000E-03 0. -1.
    9900012    2    1    2    0    0 -0.35060328960E+02  0.25508191915E+02  0.19306712195E+01  0.47787285571E+02  0.20000066231E+02 0.  0.
         12    1    1    2    0    0  0.35060328960E+02 -0.25508191915E+02 -0.19306712195E+01  0.43400714429E+02  0.00000000000E+00 0. -1.
         11    1    3    3    0    0 -0.45273370687E+01  0.70737640323E+01  0.67022740988E+01  0.10745017305E+02  0.51100000000E-03 0. -1.
        -11    1    3    3    0    0 -0.22397627512E+02  0.17705580425E+02 -0.41497943049E+01  0.28850686116E+02  0.51100000000E-03 0.  1.
         12    1    3    3    0    0 -0.81353643803E+01  0.72884745759E+00 -0.62180857441E+00  0.81915821499E+01  0.00000000000E+00 0. -1.
</event>
<event>
 7    1  0.2812635E-010  0.4778727E+02  0.7816164E-02  0.1312668E+00
        -11   -1    0    0    0    0  0.00000000000E+00  0.00000000000E+00  0.45593999997E+02  0.45594000000E+02  0.51100000000E-03 0. -1.
         11   -1    0    0    0    0 -0.00000000000E+00 -0.00000000000E+00 -0.45593999997E+02  0.45594000000E+02  0.51100000000E-03 0.  1.
    9900012    2    1    2    0    0 -0.10008354790E+01  0.40528781624E+02 -0.15493222220E+02  0.47787265601E+02  0.19999975182E+02 0.  0.
         12    1    1    2    0    0  0.10008354790E+01 -0.40528781624E+02  0.15493222220E+02  0.43400734399E+02  0.00000000000E+00 0. -1.
         11    1    3    3    0    0  0.50246749945E+01  0.17685235242E+02 -0.81994270047E+01  0.20130710565E+02  0.51100000000E-03 0. -1.
        -11    1    3    3    0    0  0.14240886107E+01  0.60532006482E+01 -0.68929085255E+01  0.92833967200E+01  0.51100000000E-03 0.  1.
         12    1    3    3    0    0 -0.74495990841E+01  0.16790345734E+02 -0.40088668934E+00  0.18373158316E+02  0.00000000000E+00 0. -1.
</event>
<event>
 7    1  0.2812635E-010  0.4778727E+02  0.7816164E-02  0.1312668E+00
        -11   -1    0    0    0    0  0.00000000000E+00  0.00000000000E+00  0.45593999997E+02  0.45594000000E+02  0.51100000000E-03 0.  1.
         11   -1    0    0    0    0 -0.00000000000E+00 -0.00000000000E+00 -0.45593999997E+02  0.45594000000E+02  0.51100000000E-03 0. -1.
    9900012    2    1    2    0    0 -0.39102125636E+02  0.56127915149E+01  0.17976202765E+02  0.47787268167E+02  0.19999986879E+02 0.  0.
         12    1    1    2    0    0  0.39102125636E+02 -0.56127915149E+01 -0.17976202765E+02  0.43400731833E+02  0.00000000000E+00 0. -1.
         11    1    3    3    0    0 -0.11645978920E+02  0.79337782936E+01  0.43569313862E+01  0.14749797096E+02  0.51100000000E-03 0. -1.
        -11    1    3    3    0    0 -0.15282538272E+02 -0.73103023833E+01  0.78696010924E+01  0.18679590964E+02  0.51100000000E-03 0.  1.
        -12    1    3    3    0    0 -0.12173608444E+02  0.49893156046E+01  0.57496702860E+01  0.14357880107E+02  0.00000000000E+00 0.  1.
</event>
<event>
 7    1  0.2812635E-010  0.4778728E+02  0.7816164E-02  0.1312668E+00
        -11   -1    0    0    0    0  0.00000000000E+00  0.00000000000E+00  0.45593999997E+02  0.45594000000E+02  0.51100000000E-03 0.  1.
         11   -1    0    0    0    0 -0.00000000000E+00 -0.00000000000E+00 -0.45593999997E+02  0.45594000000E+02  0.51100000000E-03 0. -1.
    9900012    2    1    2    0    0 -0.12774979065E+02  0.39101995730E+02  0.13836779575E+02  0.47787278472E+02  0.20000033865E+02 0.  0.
         12    1    1    2    0    0  0.12774979065E+02 -0.39101995730E+02 -0.13836779575E+02  0.43400721528E+02  0.00000000000E+00 0. -1.
         11    1    3    3    0    0  0.47664270043E+01  0.72901857439E+01  0.30535301868E+01  0.92298256446E+01  0.51100000000E-03 0. -1.
        -11    1    3    3    0    0 -0.15519471613E+02  0.27867282942E+02  0.68349324411E+01  0.32621400329E+02  0.51100000000E-03 0.  1.
         12    1    3    3    0    0 -0.20219344560E+01  0.39445270439E+01  0.39483169472E+01  0.59360524981E+01  0.00000000000E+00 0. -1.
</event>
<event>
 7    1  0.2812635E-010  0.4778727E+02  0.7816164E-02  0.1312668E+00
        -11   -1    0    0    0    0  0.00000000000E+00  0.00000000000E+00  0.45593999997E+02  0.45594000000E+02  0.51100000000E-03 0.  1.
         11   -1    0    0    0    0 -0.00000000000E+00 -0.00000000000E+00 -0.45593999997E+02  0.45594000000E+02  0.51100000000E-03 0. -1.
    9900012    2    1    2    0    0 -0.20388435086E+02  0.15272200184E+02  0.35138225005E+02  0.47787271432E+02  0.20000001769E+02 0.  0.
         12    1    1    2    0    0  0.20388435086E+02 -0.15272200184E+02 -0.35138225005E+02  0.43400728568E+02  0.00000000000E+00 0. -1.
         11    1    3    3    0    0  0.11095191055E+01  0.22153847754E+01 -0.14680337244E+01  0.28799454206E+01  0.51100000000E-03 0. -1.
        -11    1    3    3    0    0 -0.13158216973E+02  0.11108513798E+02  0.27137235974E+02  0.32139809104E+02  0.51100000000E-03 0.  1.
         12    1    3    3    0    0 -0.83397372187E+01  0.19483016109E+01  0.94690227552E+01  0.12767516907E+02  0.00000000000E+00 0. -1.
</event>
<event>
 7    1  0.2812635E-010  0.4778727E+02  0.7816164E-02  0.1312668E+00
        -11   -1    0    0    0    0  0.00000000000E+00  0.00000000000E+00  0.45593999997E+02  0.45594000000E+02  0.51100000000E-03 0.  1.
         11   -1    0    0    0    0 -0.00000000000E+00 -0.00000000000E+00 -0.45593999997E+02  0.45594000000E+02  0.51100000000E-03 0. -1.
    9900012    2    1    2    0    0  0.11995018732E+02  0.23099702816E+02  0.34729618834E+02  0.47787272253E+02  0.20000005512E+02 0.  0.
         12    1    1    2    0    0 -0.11995018732E+02 -0.23099702816E+02 -0.34729618834E+02  0.43400727747E+02  0.00000000000E+00 0. -1.
         11    1    3    3    0    0  0.44941257269E+01  0.20563654515E+02  0.14050518561E+02  0.25307669296E+02  0.51100000000E-03 0. -1.
        -11    1    3    3    0    0  0.60969457633E+01  0.34653409285E+01  0.17969996885E+02  0.19289948774E+02  0.51100000000E-03 0.  1.
         12    1    3    3    0    0  0.14039472420E+01 -0.92929262791E+00  0.27091033883E+01  0.31896541842E+01  0.00000000000E+00 0. -1.
</event>
<event>
 7    1  0.2812635E-010  0.4778728E+02  0.7816164E-02  0.1312668E+00
        -11   -1    0    0    0    0  0.00000000000E+00  0.00000000000E+00  0.45593999997E+02  0.45594000000E+02  0.51100000000E-03 0.  1.
         11   -1    0    0    0    0 -0.00000000000E+00 -0.00000000000E+00 -0.45593999997E+02  0.45594000000E+02  0.51100000000E-03 0. -1.
    9900012    2    1    2    0    0  0.35187454625E+02 -0.25173663275E+02 -0.34282019435E+01  0.47787275879E+02  0.20000022044E+02 0.  0.
         12    1    1    2    0    0 -0.35187454625E+02  0.25173663275E+02  0.34282019435E+01  0.43400724121E+02  0.00000000000E+00 0. -1.
         11    1    3    3    0    0  0.13441323289E+02 -0.19180141552E+02 -0.24135078560E+01  0.23545106118E+02  0.51100000000E-03 0. -1.
        -11    1    3    3    0    0  0.12154783773E+02 -0.72835891541E+01  0.14827878458E+01  0.14247389220E+02  0.51100000000E-03 0.  1.
         12    1    3    3    0    0  0.95913475633E+01  0.12900674312E+01 -0.24974819334E+01  0.99947805411E+01  0.00000000000E+00 0. -1.
</event>
<event>
 7    1  0.2812635E-010  0.4778727E+02  0.7816164E-02  0.1312668E+00
        -11   -1    0    0    0    0  0.00000000000E+00  0.00000000000E+00  0.45593999997E+02  0.45594000000E+02  0.51100000000E-03 0.  1.
         11   -1    0    0    0    0 -0.00000000000E+00 -0.00000000000E+00 -0.45593999997E+02  0.45594000000E+02  0.51100000000E-03 0. -1.
    9900012    2    1    2    0    0 -0.19357299572E+02 -0.38776192145E+02 -0.23076601244E+01  0.47787269370E+02  0.19999992365E+02 0.  0.
         12    1    1    2    0    0  0.19357299572E+02  0.38776192145E+02  0.23076601244E+01  0.43400730630E+02  0.00000000000E+00 0. -1.
         11    1    3    3    0    0  0.25010346129E+00 -0.44836103773E+00  0.94167279709E+00  0.10725331134E+01  0.51100000000E-03 0. -1.
        -11    1    3    3    0    0 -0.11142933962E+01  0.18515058218E+01 -0.11166948369E+01  0.24324331853E+01  0.51100000000E-03 0.  1.
        -12    1    3    3    0    0 -0.18493109637E+02 -0.40179336929E+02 -0.21326380846E+01  0.44282303071E+02  0.00000000000E+00 0.  1.
</event>
<event>
 7    1  0.2812635E-010  0.4778727E+02  0.7816164E-02  0.1312668E+00
        -11   -1    0    0    0    0  0.00000000000E+00  0.00000000000E+00  0.45593999997E+02  0.45594000000E+02  0.51100000000E-03 0.  1.
         11   -1    0    0    0    0 -0.00000000000E+00 -0.00000000000E+00 -0.45593999997E+02  0.45594000000E+02  0.51100000000E-03 0. -1.
    9900012    2    1    2    0    0 -0.63115973026E+00  0.37584203786E+02  0.21694521317E+02  0.47787274291E+02  0.20000014804E+02 0.  0.
         12    1    1    2    0    0  0.63115973026E+00 -0.37584203786E+02 -0.21694521317E+02  0.43400725709E+02  0.00000000000E+00 0. -1.
         11    1    3    3    0    0 -0.52006870266E+01  0.81337572343E+01 -0.29588878600E+00  0.96588147684E+01  0.51100000000E-03 0. -1.
        -11    1    3    3    0    0  0.50328768627E+01  0.19196905007E+02  0.96200585092E+01  0.22054399501E+02  0.51100000000E-03 0.  1.
         12    1    3    3    0    0 -0.46334956632E+00  0.10253541545E+02  0.12370351594E+02  0.16074060022E+02  0.00000000000E+00 0. -1.
</event>
<event>
 7    1  0.2812635E-010  0.4778727E+02  0.7816164E-02  0.1312668E+00
        -11   -1    0    0    0    0  0.00000000000E+00  0.00000000000E+00  0.45593999997E+02  0.45594000000E+02  0.51100000000E-03 0.  1.
         11   -1    0    0    0    0 -0.00000000000E+00 -0.00000000000E+00 -0.45593999997E+02  0.45594000000E+02  0.51100000000E-03 0. -1.
    9900012    2    1    2    0    0 -0.34072569901E+02 -0.40798333907E+01  0.26571378903E+02  0.47787271470E+02  0.20000001940E+02 0.  0.
         12    1    1    2    0    0  0.34072569901E+02  0.40798333907E+01 -0.26571378903E+02  0.43400728530E+02  0.00000000000E+00 0. -1.
         11    1    3    3    0    0 -0.60387848222E+01  0.14413707542E+01  0.19668927315E+01  0.65125370677E+01  0.51100000000E-03 0.  1.
        -11    1    3    3    0    0 -0.72609769100E+01  0.26379542657E+01  0.15211738676E+02  0.17060995932E+02  0.51100000000E-03 0. -1.
        -12    1    3    3    0    0 -0.20772808169E+02 -0.81591584105E+01  0.93927474950E+01  0.24213738470E+02  0.00000000000E+00 0.  1.
</event>
<event>
 7    1  0.2812635E-010  0.4778727E+02  0.7816164E-02  0.1312668E+00
        -11   -1    0    0    0    0  0.00000000000E+00  0.00000000000E+00  0.45593999997E+02  0.45594000000E+02  0.51100000000E-03 0. -1.
         11   -1    0    0    0    0 -0.00000000000E+00 -0.00000000000E+00 -0.45593999997E+02  0.45594000000E+02  0.51100000000E-03 0.  1.
    9900012    2    1    2    0    0 -0.95905549474E+01 -0.38760615469E+02 -0.17007621496E+02  0.47787271381E+02  0.20000001532E+02 0.  0.
         12    1    1    2    0    0  0.95905549474E+01  0.38760615469E+02  0.17007621496E+02  0.43400728619E+02  0.00000000000E+00 0. -1.
         11    1    3    3    0    0  0.41682297299E+01 -0.52680405210E+01 -0.34660641496E+01  0.75590998778E+01  0.51100000000E-03 0. -1.
        -11    1    3    3    0    0 -0.11772690091E+02 -0.33605368811E+02 -0.11603156311E+02  0.37450637932E+02  0.51100000000E-03 0.  1.
        -12    1    3    3    0    0 -0.19860945861E+01  0.11279386260E+00 -0.19384010359E+01  0.27775335707E+01  0.00000000000E+00 0.  1.
</event>
<event>
 7    1  0.2812635E-010  0.4778727E+02  0.7816164E-02  0.1312668E+00
        -11   -1    0    0    0    0  0.00000000000E+00  0.00000000000E+00  0.45593999997E+02  0.45594000000E+02  0.51100000000E-03 0.  1.
         11   -1    0    0    0    0 -0.00000000000E+00 -0.00000000000E+00 -0.45593999997E+02  0.45594000000E+02  0.51100000000E-03 0. -1.
    9900012    2    1    2    0    0 -0.16591335739E+01  0.18300321918E+02  0.39318809342E+02  0.47787271036E+02  0.19999999961E+02 0.  0.
         12    1    1    2    0    0  0.16591335739E+01 -0.18300321918E+02 -0.39318809342E+02  0.43400728964E+02  0.00000000000E+00 0. -1.
         11    1    3    3    0    0 -0.79309046718E+01  0.34197147899E+01  0.66121575480E+01  0.10877238889E+02  0.51100000000E-03 0. -1.
        -11    1    3    3    0    0  0.39114777322E+01  0.30224212586E+01  0.11089597398E+02  0.12141410916E+02  0.51100000000E-03 0.  1.
         12    1    3    3    0    0  0.23602933657E+01  0.11858185870E+02  0.21617054396E+02  0.24768621231E+02  0.00000000000E+00 0. -1.
</event>
<event>
 7    1  0.2812635E-010  0.4778728E+02  0.7816164E-02  0.1312668E+00
        -11   -1    0    0    0    0  0.00000000000E+00  0.00000000000E+00  0.45593999997E+02  0.45594000000E+02  0.51100000000E-03 0.  1.
         11   -1    0    0    0    0 -0.00000000000E+00 -0.00000000000E+00 -0.45593999997E+02  0.45594000000E+02  0.51100000000E-03 0. -1.
    9900012    2    1    2    0    0  0.10574028949E+02  0.38417434125E+02  0.17202135126E+02  0.47787276667E+02  0.20000025635E+02 0.  0.
         12    1    1    2    0    0 -0.10574028949E+02 -0.38417434125E+02 -0.17202135126E+02  0.43400723333E+02  0.00000000000E+00 0. -1.
         11    1    3    3    0    0  0.11983325060E+02  0.14315658667E+02  0.88853559520E+01  0.20675776000E+02  0.51100000000E-03 0. -1.
        -11    1    3    3    0    0  0.31980955495E+01  0.17211076452E+02  0.59872236993E+01  0.18501238220E+02  0.51100000000E-03 0.  1.
         12    1    3    3    0    0 -0.46073916601E+01  0.68906990056E+01  0.23295554750E+01  0.86102624470E+01  0.00000000000E+00 0. -1.
</event>
<event>
 7    1  0.2812635E-010  0.4778727E+02  0.7816164E-02  0.1312668E+00
        -11   -1    0    0    0    0  0.00000000000E+00  0.00000000000E+00  0.45593999997E+02  0.45594000000E+02  0.51100000000E-03 0.  1.
         11   -1    0    0    0    0 -0.00000000000E+00 -0.00000000000E+00 -0.45593999997E+02  0.45594000000E+02  0.51100000000E-03 0. -1.
    9900012    2    1    2    0    0 -0.21422633583E+02 -0.59926785664E+01  0.37266362839E+02  0.47787271604E+02  0.20000002552E+02 0.  0.
         12    1    1    2    0    0  0.21422633583E+02  0.59926785664E+01 -0.37266362839E+02  0.43400728396E+02  0.00000000000E+00 0. -1.
         11    1    3    3    0    0 -0.59292927028E+01  0.38385928535E+01  0.29948270885E+01  0.76720464416E+01  0.51100000000E-03 0. -1.
        -11    1    3    3    0    0 -0.15134418486E+02 -0.67745626606E+01  0.32690108612E+02  0.36654993159E+02  0.51100000000E-03 0.  1.
        -12    1    3    3    0    0 -0.35892239447E+00 -0.30567087593E+01  0.15814271379E+01  0.34602320033E+01  0.00000000000E+00 0.  1.
</event>
<event>
 7    1  0.2812635E-010  0.4778727E+02  0.7816164E-02  0.1312668E+00
        -11   -1    0    0    0    0  0.00000000000E+00  0.00000000000E+00  0.45593999997E+02  0.45594000000E+02  0.51100000000E-03 0.  1.
         11   -1    0    0    0    0 -0.00000000000E+00 -0.00000000000E+00 -0.45593999997E+02  0.45594000000E+02  0.51100000000E-03 0. -1.
    9900012    2    1    2    0    0  0.48065200601E+01  0.14383105288E+02  0.40665058255E+02  0.47787270562E+02  0.19999997802E+02 0.  0.
         12    1    1    2    0    0 -0.48065200601E+01 -0.14383105288E+02 -0.40665058255E+02  0.43400729438E+02  0.00000000000E+00 0. -1.
         11    1    3    3    0    0  0.86613146285E+01  0.63187295361E+01  0.95391518204E+01  0.14350614334E+02  0.51100000000E-03 0. -1.
        -11    1    3    3    0    0 -0.55812903266E+01  0.24378168470E+01  0.19104876182E+02  0.20052183095E+02  0.51100000000E-03 0.  1.
        -12    1    3    3    0    0  0.17264957582E+01  0.56265589048E+01  0.12021030253E+02  0.13384473133E+02  0.00000000000E+00 0.  1.
</event>
<event>
 7    1  0.2812635E-010  0.4778727E+02  0.7816164E-02  0.1312668E+00
        -11   -1    0    0    0    0  0.00000000000E+00  0.00000000000E+00  0.45593999997E+02  0.45594000000E+02  0.51100000000E-03 0.  1.
         11   -1    0    0    0    0 -0.00000000000E+00 -0.00000000000E+00 -0.45593999997E+02  0.45594000000E+02  0.51100000000E-03 0. -1.
    9900012    2    1    2    0    0 -0.42510138951E+02  0.69961294213E+01  0.52503282420E+01  0.47787266283E+02  0.19999978290E+02 0.  0.
         12    1    1    2    0    0  0.42510138951E+02 -0.69961294213E+01 -0.52503282420E+01  0.43400733717E+02  0.00000000000E+00 0. -1.
         11    1    3    3    0    0 -0.12855166988E+02 -0.11003795482E+01 -0.69704619996E+01  0.14664702322E+02  0.51100000000E-03 0. -1.
        -11    1    3    3    0    0 -0.11187539887E+02  0.27406461539E+01  0.53879343543E+01  0.12716211187E+02  0.51100000000E-03 0.  1.
         12    1    3    3    0    0 -0.18467432076E+02  0.53558628156E+01  0.68328558872E+01  0.20406352774E+02  0.00000000000E+00 0. -1.
</event>
<event>
 7    1  0.2812635E-010  0.4778727E+02  0.7816164E-02  0.1312668E+00
        -11   -1    0    0    0    0  0.00000000000E+00  0.00000000000E+00  0.45593999997E+02  0.45594000000E+02  0.51100000000E-03 0.  1.
         11   -1    0    0    0    0 -0.00000000000E+00 -0.00000000000E+00 -0.45593999997E+02  0.45594000000E+02  0.51100000000E-03 0. -1.
    9900012    2    1    2    0    0 -0.47890472545E+01  0.14461310201E+02  0.40639376665E+02  0.47787269568E+02  0.19999993267E+02 0.  0.
         12    1    1    2    0    0  0.47890472545E+01 -0.14461310201E+02 -0.40639376665E+02  0.43400730432E+02  0.00000000000E+00 0. -1.
         11    1    3    3    0    0 -0.99237366828E+01  0.14384586863E+02  0.23470398978E+02  0.29261861140E+02  0.51100000000E-03 0. -1.
        -11    1    3    3    0    0 -0.38577078348E+00  0.11888643077E+01  0.21714312518E+01  0.25054603134E+01  0.51100000000E-03 0.  1.
         12    1    3    3    0    0  0.55204602117E+01 -0.11121409695E+01  0.14997546435E+02  0.16019948114E+02  0.00000000000E+00 0. -1.
</event>
<event>
 7    1  0.2812635E-010  0.4778727E+02  0.7816164E-02  0.1312668E+00
        -11   -1    0    0    0    0  0.00000000000E+00  0.00000000000E+00  0.45593999997E+02  0.45594000000E+02  0.51100000000E-03 0.  1.
         11   -1    0    0    0    0 -0.00000000000E+00 -0.00000000000E+00 -0.45593999997E+02  0.45594000000E+02  0.51100000000E-03 0. -1.
    9900012    2    1    2    0    0  0.38755731935E+02  0.10387526974E+02  0.16544354730E+02  0.47787272496E+02  0.20000006617E+02 0.  0.
         12    1    1    2    0    0 -0.38755731935E+02 -0.10387526974E+02 -0.16544354730E+02  0.43400727504E+02  0.00000000000E+00 0. -1.
         11    1    3    3    0    0  0.63424937376E+01  0.26928891259E+01  0.91179532592E+01  0.11428733550E+02  0.51100000000E-03 0. -1.
        -11    1    3    3    0    0  0.14875479005E+02  0.16115343268E+01  0.94326975203E+01  0.17687642615E+02  0.51100000000E-03 0.  1.
         12    1    3    3    0    0  0.17537759193E+02  0.60831035218E+01 -0.20062960498E+01  0.18670896331E+02  0.00000000000E+00 0. -1.
</event>
<event>
 7    1  0.2812635E-010  0.4778727E+02  0.7816164E-02  0.1312668E+00
        -11   -1    0    0    0    0  0.00000000000E+00  0.00000000000E+00  0.45593999997E+02  0.45594000000E+02  0.51100000000E-03 0. -1.
         11   -1    0    0    0    0 -0.00000000000E+00 -0.00000000000E+00 -0.45593999997E+02  0.45594000000E+02  0.51100000000E-03 0.  1.
    9900012    2    1    2    0    0  0.62370072115E+01 -0.24313892099E+02 -0.35405616886E+02  0.47787270570E+02  0.19999997839E+02 0.  0.
         12    1    1    2    0    0 -0.62370072115E+01  0.24313892099E+02  0.35405616886E+02  0.43400729430E+02  0.00000000000E+00 0. -1.
         11    1    3    3    0    0 -0.41707277615E+01 -0.96839535811E+01 -0.19802197396E+02  0.22434369815E+02  0.51100000000E-03 0. -1.
        -11    1    3    3    0    0  0.80885728671E+01 -0.38543005876E+01 -0.70578398234E+01  0.11405864600E+02  0.51100000000E-03 0.  1.
         12    1    3    3    0    0  0.23191621059E+01 -0.10775637931E+02 -0.85455796662E+01  0.13947036155E+02  0.00000000000E+00 0. -1.
</event>
<event>
 7    1  0.2888318E-010  0.4778726E+02  0.7816164E-02  0.1312668E+00
        -11   -1    0    0    0    0  0.00000000000E+00  0.00000000000E+00  0.45593999997E+02  0.45594000000E+02  0.51100000000E-03 0.  1.
         11   -1    0    0    0    0 -0.00000000000E+00 -0.00000000000E+00 -0.45593999997E+02  0.45594000000E+02  0.51100000000E-03 0. -1.
    9900012    2    1    2    0    0  0.36054809205E+02  0.85767099069E+01  0.22585716779E+02  0.47787264729E+02  0.19999971207E+02 0.  0.
         12    1    1    2    0    0 -0.36054809205E+02 -0.85767099069E+01 -0.22585716779E+02  0.43400735271E+02  0.00000000000E+00 0. -1.
         11    1    3    3    0    0  0.15202389771E+02 -0.55336241478E+01  0.93253954620E+01  0.18673420998E+02  0.51100000000E-03 0. -1.
        -11    1    3    3    0    0  0.16309213760E+02  0.77834981137E+01  0.83587027419E+01  0.19910831427E+02  0.51100000000E-03 0.  1.
         12    1    3    3    0    0  0.45432056740E+01  0.63268359410E+01  0.49016185749E+01  0.92030123044E+01  0.00000000000E+00 0. -1.
</event>
<event>
 7    1  0.2812635E-010  0.4778726E+02  0.7816164E-02  0.1312668E+00
        -11   -1    0    0    0    0  0.00000000000E+00  0.00000000000E+00  0.45593999997E+02  0.45594000000E+02  0.51100000000E-03 0. -1.
         11   -1    0    0    0    0 -0.00000000000E+00 -0.00000000000E+00 -0.45593999997E+02  0.45594000000E+02  0.51100000000E-03 0.  1.
    9900012    2    1    2    0    0  0.31216549842E+02 -0.26911396873E+02 -0.13598834962E+02  0.47787256020E+02  0.19999931497E+02 0.  0.
         12    1    1    2    0    0 -0.31216549842E+02  0.26911396873E+02  0.13598834962E+02  0.43400743980E+02  0.00000000000E+00 0. -1.
         11    1    3    3    0    0  0.29272448066E+02 -0.19495181173E+02 -0.12862569116E+02  0.37448417714E+02  0.51100000000E-03 0.  1.
        -11    1    3    3    0    0 -0.38665664747E+00 -0.73812776889E+01 -0.20403334684E+01  0.76678370227E+01  0.51100000000E-03 0. -1.
         12    1    3    3    0    0  0.23307584231E+01 -0.34938011616E-01  0.13040676224E+01  0.26710012833E+01  0.00000000000E+00 0. -1.
</event>
<event>
 7    1  0.2812635E-010  0.4778727E+02  0.7816164E-02  0.1312668E+00
        -11   -1    0    0    0    0  0.00000000000E+00  0.00000000000E+00  0.45593999997E+02  0.45594000000E+02  0.51100000000E-03 0. -1.
         11   -1    0    0    0    0 -0.00000000000E+00 -0.00000000000E+00 -0.45593999997E+02  0.45594000000E+02  0.51100000000E-03 0.  1.
    9900012    2    1    2    0    0  0.20792286401E+02  0.36553445646E+02  0.10730784072E+02  0.47787270868E+02  0.19999999196E+02 0.  0.
         12    1    1    2    0    0 -0.20792286401E+02 -0.36553445646E+02 -0.10730784072E+02  0.43400729132E+02  0.00000000000E+00 0. -1.
         11    1    3    3    0    0  0.28410599397E+01  0.13195024461E+02  0.68682072707E+01  0.15144390496E+02  0.51100000000E-03 0. -1.
        -11    1    3    3    0    0  0.16902661853E+02  0.16990638621E+02 -0.18319153289E+01  0.24036174665E+02  0.51100000000E-03 0.  1.
        -12    1    3    3    0    0  0.10485646079E+01  0.63677825632E+01  0.56944921305E+01  0.86067057074E+01  0.00000000000E+00 0.  1.
</event>
<event>
 7    1  0.2812635E-010  0.4778727E+02  0.7816164E-02  0.1312668E+00
        -11   -1    0    0    0    0  0.00000000000E+00  0.00000000000E+00  0.45593999997E+02  0.45594000000E+02  0.51100000000E-03 0.  1.
         11   -1    0    0    0    0 -0.00000000000E+00 -0.00000000000E+00 -0.45593999997E+02  0.45594000000E+02  0.51100000000E-03 0. -1.
    9900012    2    1    2    0    0  0.69669960870E+01 -0.27500940399E+02  0.32844826871E+02  0.47787269482E+02  0.19999992875E+02 0.  0.
         12    1    1    2    0    0 -0.69669960870E+01  0.27500940399E+02 -0.32844826871E+02  0.43400730518E+02  0.00000000000E+00 0. -1.
         11    1    3    3    0    0  0.43866093678E+01 -0.18951817442E+02  0.97876967917E+01  0.21776426127E+02  0.51100000000E-03 0. -1.
        -11    1    3    3    0    0  0.51683260432E+01 -0.60822181485E+01  0.18969238131E+02  0.20580013781E+02  0.51100000000E-03 0.  1.
         12    1    3    3    0    0 -0.25879393240E+01 -0.24669048084E+01  0.40878919482E+01  0.54308295737E+01  0.00000000000E+00 0. -1.
</event>
<event>
 7    1  0.2812635E-010  0.4778728E+02  0.7816164E-02  0.1312668E+00
        -11   -1    0    0    0    0  0.00000000000E+00  0.00000000000E+00  0.45593999997E+02  0.45594000000E+02  0.51100000000E-03 0.  1.
         11   -1    0    0    0    0 -0.00000000000E+00 -0.00000000000E+00 -0.45593999997E+02  0.45594000000E+02  0.51100000000E-03 0. -1.
    9900012    2    1    2    0    0  0.41821435670E+02 -0.97632917095E+01  0.62664603124E+01  0.47787275682E+02  0.20000021143E+02 0.  0.
         12    1    1    2    0    0 -0.41821435670E+02  0.97632917095E+01 -0.62664603124E+01  0.43400724318E+02  0.00000000000E+00 0. -1.
         11    1    3    3    0    0  0.13292700130E+02 -0.11014694813E-03  0.10697963948E+02  0.17062892769E+02  0.51100000000E-03 0. -1.
        -11    1    3    3    0    0  0.14562361570E+02 -0.44710886074E+01 -0.41412914490E+01  0.15786174424E+02  0.51100000000E-03 0.  1.
         12    1    3    3    0    0  0.13966373971E+02 -0.52920929552E+01 -0.29021218664E+00  0.14938208488E+02  0.00000000000E+00 0. -1.
</event>
<event>
 7    1  0.2812635E-010  0.4778727E+02  0.7816164E-02  0.1312668E+00
        -11   -1    0    0    0    0  0.00000000000E+00  0.00000000000E+00  0.45593999997E+02  0.45594000000E+02  0.51100000000E-03 0.  1.
         11   -1    0    0    0    0 -0.00000000000E+00 -0.00000000000E+00 -0.45593999997E+02  0.45594000000E+02  0.51100000000E-03 0. -1.
    9900012    2    1    2    0    0  0.11727256577E+02 -0.10496493520E+02  0.40446491745E+02  0.47787267085E+02  0.19999981948E+02 0.  0.
         12    1    1    2    0    0 -0.11727256577E+02  0.10496493520E+02 -0.40446491745E+02  0.43400732915E+02  0.00000000000E+00 0. -1.
         11    1    3    3    0    0  0.39521759827E+01 -0.11110154174E+02  0.83524365319E+01  0.14450550753E+02  0.51100000000E-03 0. -1.
        -11    1    3    3    0    0  0.43315703757E+01  0.25734163618E+01  0.16953887719E+02  0.17686697904E+02  0.51100000000E-03 0.  1.
        -12    1    3    3    0    0  0.34435102187E+01 -0.19597557071E+01  0.15140167494E+02  0.15650018428E+02  0.00000000000E+00 0.  1.
</event>
<event>
 7    1  0.2812635E-010  0.4778727E+02  0.7816164E-02  0.1312668E+00
        -11   -1    0    0    0    0  0.00000000000E+00  0.00000000000E+00  0.45593999997E+02  0.45594000000E+02  0.51100000000E-03 0.  1.
         11   -1    0    0    0    0 -0.00000000000E+00 -0.00000000000E+00 -0.45593999997E+02  0.45594000000E+02  0.51100000000E-03 0. -1.
    9900012    2    1    2    0    0 -0.20848258972E+02 -0.13373748781E+02  0.35638695416E+02  0.47787266486E+02  0.19999979217E+02 0.  0.
         12    1    1    2    0    0  0.20848258972E+02  0.13373748781E+02 -0.35638695416E+02  0.43400733514E+02  0.00000000000E+00 0. -1.
         11    1    3    3    0    0 -0.60348588016E+01 -0.20452372712E+01  0.29398309992E+01  0.70174869302E+01  0.51100000000E-03 0. -1.
        -11    1    3    3    0    0 -0.11054736092E+02  0.12543326964E+01  0.16779753577E+02  0.20133074056E+02  0.51100000000E-03 0.  1.
        -12    1    3    3    0    0 -0.37586640782E+01 -0.12582844206E+02  0.15919110840E+02  0.20636705500E+02  0.00000000000E+00 0.  1.
</event>
<event>
 7    1  0.2812635E-010  0.4778726E+02  0.7816164E-02  0.1312668E+00
        -11   -1    0    0    0    0  0.00000000000E+00  0.00000000000E+00  0.45593999997E+02  0.45594000000E+02  0.51100000000E-03 0.  1.
         11   -1    0    0    0    0 -0.00000000000E+00 -0.00000000000E+00 -0.45593999997E+02  0.45594000000E+02  0.51100000000E-03 0. -1.
    9900012    2    1    2    0    0 -0.59098592369E+01 -0.16393028171E+02  0.39748792788E+02  0.47787258797E+02  0.19999944160E+02 0.  0.
         12    1    1    2    0    0  0.59098592369E+01  0.16393028171E+02 -0.39748792788E+02  0.43400741203E+02  0.00000000000E+00 0. -1.
         11    1    3    3    0    0  0.10386715758E+01 -0.71211160437E+01  0.10560222242E+02  0.12779179411E+02  0.51100000000E-03 0. -1.
        -11    1    3    3    0    0 -0.95514218538E+01 -0.11744531542E+02  0.19571983260E+02  0.24743205321E+02  0.51100000000E-03 0.  1.
        -12    1    3    3    0    0  0.26028910411E+01  0.24726194150E+01  0.96165872859E+01  0.10264874065E+02  0.00000000000E+00 0.  1.
</event>
<event>
 7    1  0.2812635E-010  0.4778727E+02  0.7816164E-02  0.1312668E+00
        -11   -1    0    0    0    0  0.00000000000E+00  0.00000000000E+00  0.45593999997E+02  0.45594000000E+02  0.51100000000E-03 0.  1.
         11   -1    0    0    0    0 -0.00000000000E+00 -0.00000000000E+00 -0.45593999997E+02  0.45594000000E+02  0.51100000000E-03 0. -1.
    9900012    2    1    2    0    0  0.35187599467E+02 -0.98794863624E+01  0.23406231233E+02  0.47787273421E+02  0.20000010835E+02 0.  0.
         12    1    1    2    0    0 -0.35187599467E+02  0.98794863624E+01 -0.23406231233E+02  0.43400726579E+02  0.00000000000E+00 0. -1.
         11    1    3    3    0    0  0.34216593113E-01  0.76201339085E+00  0.48577756855E+00  0.90433140513E+00  0.51100000000E-03 0. -1.
        -11    1    3    3    0    0  0.26489663598E+02 -0.23137717363E+01  0.22542298525E+02  0.34859877226E+02  0.51100000000E-03 0.  1.
        -12    1    3    3    0    0  0.86637192759E+01 -0.83277280170E+01  0.37815513991E+00  0.12023064789E+02  0.00000000000E+00 0.  1.
</event>
<event>
 7    1  0.2812635E-010  0.4778726E+02  0.7816164E-02  0.1312668E+00
        -11   -1    0    0    0    0  0.00000000000E+00  0.00000000000E+00  0.45593999997E+02  0.45594000000E+02  0.51100000000E-03 0.  1.
         11   -1    0    0    0    0 -0.00000000000E+00 -0.00000000000E+00 -0.45593999997E+02  0.45594000000E+02  0.51100000000E-03 0. -1.
    9900012    2    1    2    0    0  0.11734167280E+02  0.34177050181E+01  0.41644361621E+02  0.47787259866E+02  0.19999949033E+02 0.  0.
         12    1    1    2    0    0 -0.11734167280E+02 -0.34177050181E+01 -0.41644361621E+02  0.43400740134E+02  0.00000000000E+00 0. -1.
         11    1    3    3    0    0  0.10685978899E+01  0.20038919566E+01 -0.70023841628E+00  0.23765139437E+01  0.51100000000E-03 0. -1.
        -11    1    3    3    0    0  0.11271266310E+02  0.50851939328E+01  0.28338357346E+02  0.30918653576E+02  0.51100000000E-03 0.  1.
        -12    1    3    3    0    0 -0.60569692043E+00 -0.36713808713E+01  0.14006242691E+02  0.14492092347E+02  0.00000000000E+00 0.  1.
</event>
<event>
 7    1  0.2812635E-010  0.4778728E+02  0.7816164E-02  0.1312668E+00
        -11   -1    0    0    0    0  0.00000000000E+00  0.00000000000E+00  0.45593999997E+02  0.45594000000E+02  0.51100000000E-03 0.  1.
         11   -1    0    0    0    0 -0.00000000000E+00 -0.00000000000E+00 -0.45593999997E+02  0.45594000000E+02  0.51100000000E-03 0. -1.
    9900012    2    1    2    0    0 -0.19380469196E+02 -0.67998794974E+01  0.38233251140E+02  0.47787280650E+02  0.20000043793E+02 0.  0.
         12    1    1    2    0    0  0.19380469196E+02  0.67998794974E+01 -0.38233251140E+02  0.43400719350E+02  0.00000000000E+00 0. -1.
         11    1    3    3    0    0 -0.15324823280E+02 -0.56825894370E+01  0.34380098065E+02  0.38067481851E+02  0.51100000000E-03 0. -1.
        -11    1    3    3    0    0 -0.26124269309E+01 -0.26073793433E+01  0.58000486414E+01  0.68748647996E+01  0.51100000000E-03 0.  1.
         12    1    3    3    0    0 -0.14432189856E+01  0.14900892829E+01 -0.19468955667E+01  0.28449339990E+01  0.00000000000E+00 0. -1.
</event>
<event>
 7    1  0.2812635E-010  0.4778727E+02  0.7816164E-02  0.1312668E+00
        -11   -1    0    0    0    0  0.00000000000E+00  0.00000000000E+00  0.45593999997E+02  0.45594000000E+02  0.51100000000E-03 0.  1.
         11   -1    0    0    0    0 -0.00000000000E+00 -0.00000000000E+00 -0.45593999997E+02  0.45594000000E+02  0.51100000000E-03 0. -1.
    9900012    2    1    2    0    0 -0.10128080556E+02 -0.98096302186E+01  0.41046512878E+02  0.47787273275E+02  0.20000010172E+02 0.  0.
         12    1    1    2    0    0  0.10128080556E+02  0.98096302186E+01 -0.41046512878E+02  0.43400726725E+02  0.00000000000E+00 0. -1.
         11    1    3    3    0    0 -0.12127921140E+02 -0.27236955764E+01  0.29876914803E+02  0.32359465804E+02  0.51100000000E-03 0. -1.
        -11    1    3    3    0    0  0.15502311831E+01 -0.73960176188E+01  0.12148410068E+02  0.14306927021E+02  0.51100000000E-03 0.  1.
         12    1    3    3    0    0  0.44960940152E+00  0.31008297663E+00 -0.97881199249E+00  0.11208804499E+01  0.00000000000E+00 0. -1.
</event>
<event>
 7    1  0.2812635E-010  0.4778727E+02  0.7816164E-02  0.1312668E+00
        -11   -1    0    0    0    0  0.00000000000E+00  0.00000000000E+00  0.45593999997E+02  0.45594000000E+02  0.51100000000E-03 0. -1.
         11   -1    0    0    0    0 -0.00000000000E+00 -0.00000000000E+00 -0.45593999997E+02  0.45594000000E+02  0.51100000000E-03 0.  1.
    9900012    2    1    2    0    0 -0.35524640968E+01  0.42281111430E+02 -0.91274726259E+01  0.47787272570E+02  0.20000006956E+02 0.  0.
         12    1    1    2    0    0  0.35524640968E+01 -0.42281111430E+02  0.91274726259E+01  0.43400727430E+02  0.00000000000E+00 0. -1.
         11    1    3    3    0    0  0.84415269056E+00  0.45276257417E+01  0.46368203420E+01  0.65354488573E+01  0.51100000000E-03 0. -1.
        -11    1    3    3    0    0 -0.57392215224E+01  0.32136969785E+02 -0.92752461511E+01  0.33937496698E+02  0.51100000000E-03 0.  1.
        -12    1    3    3    0    0  0.13426047351E+01  0.56165159028E+01 -0.44890468167E+01  0.73143270151E+01  0.00000000000E+00 0.  1.
</event>
<event>
 7    1  0.2812635E-010  0.4778727E+02  0.7816164E-02  0.1312668E+00
        -11   -1    0    0    0    0  0.00000000000E+00  0.00000000000E+00  0.45593999997E+02  0.45594000000E+02  0.51100000000E-03 0. -1.
         11   -1    0    0    0    0 -0.00000000000E+00 -0.00000000000E+00 -0.45593999997E+02  0.45594000000E+02  0.51100000000E-03 0.  1.
    9900012    2    1    2    0    0  0.20150510507E+02  0.22301544807E+02 -0.31308490204E+02  0.47787268056E+02  0.19999986373E+02 0.  0.
         12    1    1    2    0    0 -0.20150510507E+02 -0.22301544807E+02  0.31308490204E+02  0.43400731944E+02  0.00000000000E+00 0. -1.
         11    1    3    3    0    0  0.41953424884E+01  0.17911658408E+02 -0.21428744263E+02  0.28242157964E+02  0.51100000000E-03 0. -1.
        -11    1    3    3    0    0  0.82388263566E+00  0.60130766274E-01 -0.15056525582E+01  0.17173782908E+01  0.51100000000E-03 0.  1.
         12    1    3    3    0    0  0.15131285383E+02  0.43297556332E+01 -0.83740933823E+01  0.17827731801E+02  0.00000000000E+00 0. -1.
</event>
<event>
 7    1  0.2812635E-010  0.4778729E+02  0.7816164E-02  0.1312668E+00
        -11   -1    0    0    0    0  0.00000000000E+00  0.00000000000E+00  0.45593999997E+02  0.45594000000E+02  0.51100000000E-03 0.  1.
         11   -1    0    0    0    0 -0.00000000000E+00 -0.00000000000E+00 -0.45593999997E+02  0.45594000000E+02  0.51100000000E-03 0. -1.
    9900012    2    1    2    0    0  0.16155565304E+02  0.77266609851E+01  0.39533762335E+02  0.47787286358E+02  0.20000069818E+02 0.  0.
         12    1    1    2    0    0 -0.16155565304E+02 -0.77266609851E+01 -0.39533762335E+02  0.43400713642E+02  0.00000000000E+00 0. -1.
         11    1    3    3    0    0  0.53675465987E+01  0.82576246048E+01  0.18189846038E+02  0.20685004708E+02  0.51100000000E-03 0. -1.
        -11    1    3    3    0    0 -0.12494142255E+01 -0.39641498661E+01  0.46527473061E+01  0.62388763270E+01  0.51100000000E-03 0.  1.
        -12    1    3    3    0    0  0.12037432931E+02  0.34331862464E+01  0.16691168991E+02  0.20863405323E+02  0.00000000000E+00 0.  1.
</event>
<event>
 7    1  0.2812635E-010  0.4778727E+02  0.7816164E-02  0.1312668E+00
        -11   -1    0    0    0    0  0.00000000000E+00  0.00000000000E+00  0.45593999997E+02  0.45594000000E+02  0.51100000000E-03 0.  1.
         11   -1    0    0    0    0 -0.00000000000E+00 -0.00000000000E+00 -0.45593999997E+02  0.45594000000E+02  0.51100000000E-03 0. -1.
    9900012    2    1    2    0    0  0.40200422786E+02  0.34063336713E+01  0.15998307109E+02  0.47787274988E+02  0.20000017980E+02 0.  0.
         12    1    1    2    0    0 -0.40200422786E+02 -0.34063336713E+01 -0.15998307109E+02  0.43400725012E+02  0.00000000000E+00 0. -1.
         11    1    3    3    0    0  0.75443436246E+01 -0.32756403945E+01 -0.19743386286E+01  0.84584250308E+01  0.51100000000E-03 0. -1.
        -11    1    3    3    0    0  0.15315513236E+02  0.43434375515E+01  0.14409067355E+02  0.21472112559E+02  0.51100000000E-03 0.  1.
        -12    1    3    3    0    0  0.17340565925E+02  0.23385365142E+01  0.35635783828E+01  0.17856737398E+02  0.00000000000E+00 0.  1.
</event>
<event>
 7    1  0.2812635E-010  0.4778727E+02  0.7816164E-02  0.1312668E+00
        -11   -1    0    0    0    0  0.00000000000E+00  0.00000000000E+00  0.45593999997E+02  0.45594000000E+02  0.51100000000E-03 0.  1.
         11   -1    0    0    0    0 -0.00000000000E+00 -0.00000000000E+00 -0.45593999997E+02  0.45594000000E+02  0.51100000000E-03 0. -1.
    9900012    2    1    2    0    0  0.14524517921E+02  0.93841364366E+01  0.39807031200E+02  0.47787269932E+02  0.19999994927E+02 0.  0.
         12    1    1    2    0    0 -0.14524517921E+02 -0.93841364366E+01 -0.39807031200E+02  0.43400730068E+02  0.00000000000E+00 0. -1.
         11    1    3    3    0    0  0.60152868823E+01 -0.50789550026E+01  0.66140265840E+01  0.10282256956E+02  0.51100000000E-03 0. -1.
        -11    1    3    3    0    0  0.26223561074E+01  0.30478068862E+01  0.12685711871E+02  0.13307635564E+02  0.51100000000E-03 0.  1.
         12    1    3    3    0    0  0.58868749310E+01  0.11415284553E+02  0.20507292745E+02  0.24197377411E+02  0.00000000000E+00 0. -1.
</event>
<event>
 7    1  0.2812635E-010  0.4778727E+02  0.7816164E-02  0.1312668E+00
        -11   -1    0    0    0    0  0.00000000000E+00  0.00000000000E+00  0.45593999997E+02  0.45594000000E+02  0.51100000000E-03 0.  1.
         11   -1    0    0    0    0 -0.00000000000E+00 -0.00000000000E+00 -0.45593999997E+02  0.45594000000E+02  0.51100000000E-03 0. -1.
    9900012    2    1    2    0    0  0.26704205640E+02 -0.23135466470E+02  0.25204342097E+02  0.47787271110E+02  0.20000000297E+02 0.  0.
         12    1    1    2    0    0 -0.26704205640E+02  0.23135466470E+02 -0.25204342097E+02  0.43400728890E+02  0.00000000000E+00 0. -1.
         11    1    3    3    0    0  0.37823270030E+01 -0.35132627207E+01  0.11203651589E+02  0.12335753795E+02  0.51100000000E-03 0. -1.
        -11    1    3    3    0    0  0.13210556670E+02 -0.17500617794E+02  0.61164499024E+01  0.22764037216E+02  0.51100000000E-03 0.  1.
        -12    1    3    3    0    0  0.97113219672E+01 -0.21215859550E+01  0.78842406062E+01  0.12687480099E+02  0.00000000000E+00 0.  1.
</event>
<event>
 7    1  0.2812635E-010  0.4778727E+02  0.7816164E-02  0.1312668E+00
        -11   -1    0    0    0    0  0.00000000000E+00  0.00000000000E+00  0.45593999997E+02  0.45594000000E+02  0.51100000000E-03 0. -1.
         11   -1    0    0    0    0 -0.00000000000E+00 -0.00000000000E+00 -0.45593999997E+02  0.45594000000E+02  0.51100000000E-03 0.  1.
    9900012    2    1    2    0    0  0.42974449124E+02 -0.28622072562E+01  0.53504790255E+01  0.47787272660E+02  0.20000007364E+02 0.  0.
         12    1    1    2    0    0 -0.42974449124E+02  0.28622072562E+01 -0.53504790255E+01  0.43400727340E+02  0.00000000000E+00 0. -1.
         11    1    3    3    0    0  0.78722736888E+00 -0.17731955947E+01 -0.24944873638E+01  0.31601292721E+01  0.51100000000E-03 0. -1.
        -11    1    3    3    0    0  0.35138449933E+02 -0.44870809216E+01  0.93984074746E+01  0.36649346819E+02  0.51100000000E-03 0.  1.
        -12    1    3    3    0    0  0.70487718217E+01  0.33980692601E+01 -0.15534410852E+01  0.79777965689E+01  0.00000000000E+00 0.  1.
</event>
<event>
 7    1  0.2812635E-010  0.4778727E+02  0.7816164E-02  0.1312668E+00
        -11   -1    0    0    0    0  0.00000000000E+00  0.00000000000E+00  0.45593999997E+02  0.45594000000E+02  0.51100000000E-03 0. -1.
         11   -1    0    0    0    0 -0.00000000000E+00 -0.00000000000E+00 -0.45593999997E+02  0.45594000000E+02  0.51100000000E-03 0.  1.
    9900012    2    1    2    0    0 -0.24708547151E+02 -0.22286343763E+02 -0.27864484968E+02  0.47787274854E+02  0.20000017371E+02 0.  0.
         12    1    1    2    0    0  0.24708547151E+02  0.22286343763E+02  0.27864484968E+02  0.43400725146E+02  0.00000000000E+00 0. -1.
         11    1    3    3    0    0 -0.55680511861E+01  0.21180971900E+00  0.63428127019E+00  0.56080629775E+01  0.51100000000E-03 0. -1.
        -11    1    3    3    0    0 -0.78592196593E+01 -0.16134039963E+02 -0.14189272244E+02  0.22878156094E+02  0.51100000000E-03 0.  1.
         12    1    3    3    0    0 -0.11281276305E+02 -0.63641135194E+01 -0.14309493994E+02  0.19301055783E+02  0.00000000000E+00 0. -1.
</event>
<event>
 7    1  0.2812635E-010  0.4778727E+02  0.7816164E-02  0.1312668E+00
        -11   -1    0    0    0    0  0.00000000000E+00  0.00000000000E+00  0.45593999997E+02  0.45594000000E+02  0.51100000000E-03 0.  1.
         11   -1    0    0    0    0 -0.00000000000E+00 -0.00000000000E+00 -0.45593999997E+02  0.45594000000E+02  0.51100000000E-03 0. -1.
    9900012    2    1    2    0    0  0.20853130480E+02  0.37847407473E+02 -0.40427302930E+01  0.47787274528E+02  0.20000015885E+02 0.  0.
         12    1    1    2    0    0 -0.20853130480E+02 -0.37847407473E+02  0.40427302930E+01  0.43400725472E+02  0.00000000000E+00 0. -1.
         11    1    3    3    0    0 -0.19370656758E+01 -0.43276008199E+00 -0.89980310062E+00  0.21792545978E+01  0.51100000000E-03 0.  1.
        -11    1    3    3    0    0  0.18589771918E+02  0.30361664958E+02 -0.62017917347E+01  0.36136858468E+02  0.51100000000E-03 0. -1.
         12    1    3    3    0    0  0.42004242378E+01  0.79185025972E+01  0.30588645423E+01  0.94711614624E+01  0.00000000000E+00 0. -1.
</event>
<event>
 7    1  0.2812635E-010  0.4778727E+02  0.7816164E-02  0.1312668E+00
        -11   -1    0    0    0    0  0.00000000000E+00  0.00000000000E+00  0.45593999997E+02  0.45594000000E+02  0.51100000000E-03 0.  1.
         11   -1    0    0    0    0 -0.00000000000E+00 -0.00000000000E+00 -0.45593999997E+02  0.45594000000E+02  0.51100000000E-03 0. -1.
    9900012    2    1    2    0    0  0.54146499953E+01 -0.40173661744E+02  0.15504252172E+02  0.47787269961E+02  0.19999995060E+02 0.  0.
         12    1    1    2    0    0 -0.54146499953E+01  0.40173661744E+02 -0.15504252172E+02  0.43400730039E+02  0.00000000000E+00 0. -1.
         11    1    3    3    0    0 -0.14712131220E+01 -0.85352886455E+01 -0.12701774278E+01  0.87537975343E+01  0.51100000000E-03 0. -1.
        -11    1    3    3    0    0  0.74980104050E+01 -0.32876288704E+02  0.15351236227E+02  0.37050384248E+02  0.51100000000E-03 0.  1.
        -12    1    3    3    0    0 -0.61214728766E+00  0.12379156050E+01  0.14231933733E+01  0.19830881787E+01  0.00000000000E+00 0.  1.
</event>
<event>
 7    1  0.2812635E-010  0.4778727E+02  0.7816164E-02  0.1312668E+00
        -11   -1    0    0    0    0  0.00000000000E+00  0.00000000000E+00  0.45593999997E+02  0.45594000000E+02  0.51100000000E-03 0.  1.
         11   -1    0    0    0    0 -0.00000000000E+00 -0.00000000000E+00 -0.45593999997E+02  0.45594000000E+02  0.51100000000E-03 0. -1.
    9900012    2    1    2    0    0  0.46593017692E+01  0.20328205145E+02  0.38061505401E+02  0.47787271771E+02  0.20000003312E+02 0.  0.
         12    1    1    2    0    0 -0.46593017692E+01 -0.20328205145E+02 -0.38061505401E+02  0.43400728229E+02  0.00000000000E+00 0. -1.
         11    1    3    3    0    0 -0.44141543643E+01  0.11319471242E+02  0.91563975544E+01  0.15213638762E+02  0.51100000000E-03 0. -1.
        -11    1    3    3    0    0  0.66066996035E+01  0.10297541139E+02  0.23527386515E+02  0.26518403980E+02  0.51100000000E-03 0.  1.
         12    1    3    3    0    0  0.24667565300E+01 -0.12888072350E+01  0.53777213320E+01  0.60552290288E+01  0.00000000000E+00 0. -1.
</event>
<event>
 7    1  0.2812635E-010  0.4778727E+02  0.7816164E-02  0.1312668E+00
        -11   -1    0    0    0    0  0.00000000000E+00  0.00000000000E+00  0.45593999997E+02  0.45594000000E+02  0.51100000000E-03 0.  1.
         11   -1    0    0    0    0 -0.00000000000E+00 -0.00000000000E+00 -0.45593999997E+02  0.45594000000E+02  0.51100000000E-03 0. -1.
    9900012    2    1    2    0    0 -0.18160550051E+02  0.19220501020E+02  0.34414968369E+02  0.47787270911E+02  0.19999999390E+02 0.  0.
         12    1    1    2    0    0  0.18160550051E+02 -0.19220501020E+02 -0.34414968369E+02  0.43400729089E+02  0.00000000000E+00 0. -1.
         11    1    3    3    0    0  0.75808444444E+00  0.98845556187E+01  0.72642837832E+01  0.12290197352E+02  0.51100000000E-03 0. -1.
        -11    1    3    3    0    0 -0.92619514020E+01  0.60033090139E+01  0.20573712553E+02  0.23347400527E+02  0.51100000000E-03 0.  1.
         12    1    3    3    0    0 -0.96566830930E+01  0.33326363878E+01  0.65769720327E+01  0.12149673031E+02  0.00000000000E+00 0. -1.
</event>
<event>
 7    1  0.2812635E-010  0.4778728E+02  0.7816164E-02  0.1312668E+00
        -11   -1    0    0    0    0  0.00000000000E+00  0.00000000000E+00  0.45593999997E+02  0.45594000000E+02  0.51100000000E-03 0.  1.
         11   -1    0    0    0    0 -0.00000000000E+00 -0.00000000000E+00 -0.45593999997E+02  0.45594000000E+02  0.51100000000E-03 0. -1.
    9900012    2    1    2    0    0 -0.21420026009E+01 -0.38472336714E+01  0.43176769005E+02  0.47787276921E+02  0.20000026796E+02 0.  0.
         12    1    1    2    0    0  0.21420026009E+01  0.38472336714E+01 -0.43176769005E+02  0.43400723079E+02  0.00000000000E+00 0. -1.
         11    1    3    3    0    0  0.42679215026E+01 -0.72496015312E+01  0.10525289031E+02  0.13474182192E+02  0.51100000000E-03 0. -1.
        -11    1    3    3    0    0  0.48293283967E+00 -0.13860459194E+01  0.17100446110E+01  0.22535749934E+01  0.51100000000E-03 0.  1.
         12    1    3    3    0    0 -0.68928569432E+01  0.47884137792E+01  0.30941435363E+02  0.32059519736E+02  0.00000000000E+00 0. -1.
</event>
<event>
 7    1  0.2812635E-010  0.4778727E+02  0.7816164E-02  0.1312668E+00
        -11   -1    0    0    0    0  0.00000000000E+00  0.00000000000E+00  0.45593999997E+02  0.45594000000E+02  0.51100000000E-03 0.  1.
         11   -1    0    0    0    0 -0.00000000000E+00 -0.00000000000E+00 -0.45593999997E+02  0.45594000000E+02  0.51100000000E-03 0. -1.
    9900012    2    1    2    0    0 -0.39127531875E+01 -0.42168678127E+02  0.94929446409E+01  0.47787273618E+02  0.20000011735E+02 0.  0.
         12    1    1    2    0    0  0.39127531875E+01  0.42168678127E+02 -0.94929446409E+01  0.43400726382E+02  0.00000000000E+00 0. -1.
         11    1    3    3    0    0 -0.56724671260E+01 -0.18181393218E+02  0.11137289585E+02  0.22063072365E+02  0.51100000000E-03 0. -1.
        -11    1    3    3    0    0 -0.28490451097E+01 -0.38933643664E+01 -0.16796801703E+01  0.51084899787E+01  0.51100000000E-03 0.  1.
         12    1    3    3    0    0  0.46087590482E+01 -0.20093920543E+02  0.35335225767E-01  0.20615711274E+02  0.00000000000E+00 0. -1.
</event>
<event>
 7    1  0.2812635E-010  0.4778727E+02  0.7816164E-02  0.1312668E+00
        -11   -1    0    0    0    0  0.00000000000E+00  0.00000000000E+00  0.45593999997E+02  0.45594000000E+02  0.51100000000E-03 0.  1.
         11   -1    0    0    0    0 -0.00000000000E+00 -0.00000000000E+00 -0.45593999997E+02  0.45594000000E+02  0.51100000000E-03 0. -1.
    9900012    2    1    2    0    0 -0.88357420677E+01  0.37870644691E+02 -0.19270884751E+02  0.47787273436E+02  0.20000010903E+02 0.  0.
         12    1    1    2    0    0  0.88357420677E+01 -0.37870644691E+02  0.19270884751E+02  0.43400726564E+02  0.00000000000E+00 0. -1.
         11    1    3    3    0    0 -0.10882115228E+02  0.24172130742E+02 -0.82616257069E+01  0.27766288841E+02  0.51100000000E-03 0. -1.
        -11    1    3    3    0    0 -0.27940157541E+01  0.87652329264E+01 -0.35739211889E+01  0.98695868816E+01  0.51100000000E-03 0.  1.
         12    1    3    3    0    0  0.48403889146E+01  0.49332810227E+01 -0.74353378557E+01  0.10151397713E+02  0.00000000000E+00 0. -1.
</event>
<event>
 7    1  0.2812635E-010  0.4778728E+02  0.7816164E-02  0.1312668E+00
        -11   -1    0    0    0    0  0.00000000000E+00  0.00000000000E+00  0.45593999997E+02  0.45594000000E+02  0.51100000000E-03 0.  1.
         11   -1    0    0    0    0 -0.00000000000E+00 -0.00000000000E+00 -0.45593999997E+02  0.45594000000E+02  0.51100000000E-03 0. -1.
    9900012    2    1    2    0    0 -0.30992292894E+01 -0.35809372316E+02  0.24325018830E+02  0.47787275249E+02  0.20000019169E+02 0.  0.
         12    1    1    2    0    0  0.30992292894E+01  0.35809372316E+02 -0.24325018830E+02  0.43400724751E+02  0.00000000000E+00 0. -1.
         11    1    3    3    0    0  0.16377957371E+01 -0.53054459362E+00  0.68556645155E+01  0.70685209664E+01  0.51100000000E-03 0. -1.
        -11    1    3    3    0    0 -0.56071084805E+01 -0.21421321435E+02  0.14649987504E+02  0.26550608499E+02  0.51100000000E-03 0.  1.
         12    1    3    3    0    0  0.87008345398E+00 -0.13857506287E+02  0.28193668104E+01  0.14168145783E+02  0.00000000000E+00 0. -1.
</event>
<event>
 7    1  0.2812635E-010  0.4778727E+02  0.7816164E-02  0.1312668E+00
        -11   -1    0    0    0    0  0.00000000000E+00  0.00000000000E+00  0.45593999997E+02  0.45594000000E+02  0.51100000000E-03 0.  1.
         11   -1    0    0    0    0 -0.00000000000E+00 -0.00000000000E+00 -0.45593999997E+02  0.45594000000E+02  0.51100000000E-03 0. -1.
    9900012    2    1    2    0    0 -0.13574157126E+02  0.36834545938E+02  0.18508969608E+02  0.47787268761E+02  0.19999989587E+02 0.  0.
         12    1    1    2    0    0  0.13574157126E+02 -0.36834545938E+02 -0.18508969608E+02  0.43400731239E+02  0.00000000000E+00 0. -1.
         11    1    3    3    0    0  0.21898273638E+01  0.64233790770E-01 -0.90857605425E+00  0.23717041490E+01  0.51100000000E-03 0. -1.
        -11    1    3    3    0    0 -0.15298483195E+02  0.37038158185E+02  0.19855488906E+02  0.44722580312E+02  0.51100000000E-03 0.  1.
        -12    1    3    3    0    0 -0.46550129460E+00 -0.26784603700E+00 -0.43794324409E+00  0.69298429986E+00  0.00000000000E+00 0.  1.
</event>
<event>
 7    1  0.2812635E-010  0.4778727E+02  0.7816164E-02  0.1312668E+00
        -11   -1    0    0    0    0  0.00000000000E+00  0.00000000000E+00  0.45593999997E+02  0.45594000000E+02  0.51100000000E-03 0.  1.
         11   -1    0    0    0    0 -0.00000000000E+00 -0.00000000000E+00 -0.45593999997E+02  0.45594000000E+02  0.51100000000E-03 0. -1.
    9900012    2    1    2    0    0  0.28429299254E+02 -0.27425189905E+02  0.17979359171E+02  0.47787268974E+02  0.19999990560E+02 0.  0.
         12    1    1    2    0    0 -0.28429299254E+02  0.27425189905E+02 -0.17979359171E+02  0.43400731026E+02  0.00000000000E+00 0. -1.
         11    1    3    3    0    0  0.10006488263E+02 -0.15843261905E+02  0.16325499959E+02  0.24852780616E+02  0.51100000000E-03 0. -1.
        -11    1    3    3    0    0  0.34440263614E+01 -0.52795483558E+01  0.21950516786E+01  0.66748183909E+01  0.51100000000E-03 0.  1.
         12    1    3    3    0    0  0.14978784630E+02 -0.63023796440E+01 -0.54119246673E+00  0.16259669968E+02  0.00000000000E+00 0. -1.
</event>
<event>
 7    1  0.2812635E-010  0.4778727E+02  0.7816164E-02  0.1312668E+00
        -11   -1    0    0    0    0  0.00000000000E+00  0.00000000000E+00  0.45593999997E+02  0.45594000000E+02  0.51100000000E-03 0.  1.
         11   -1    0    0    0    0 -0.00000000000E+00 -0.00000000000E+00 -0.45593999997E+02  0.45594000000E+02  0.51100000000E-03 0. -1.
    9900012    2    1    2    0    0  0.14629745578E+02 -0.58218320009E+01  0.40443794268E+02  0.47787266385E+02  0.19999978758E+02 0.  0.
         12    1    1    2    0    0 -0.14629745578E+02  0.58218320009E+01 -0.40443794268E+02  0.43400733615E+02  0.00000000000E+00 0. -1.
         11    1    3    3    0    0 -0.77225841220E+00 -0.43103455701E+01  0.18259262237E+02  0.18777010403E+02  0.51100000000E-03 0. -1.
        -11    1    3    3    0    0  0.14633890827E+02 -0.31666542043E+00  0.23080708026E+02  0.27330754124E+02  0.51100000000E-03 0.  1.
        -12    1    3    3    0    0  0.76811316302E+00 -0.11948210103E+01 -0.89617599541E+00  0.16795018585E+01  0.00000000000E+00 0.  1.
</event>
<event>
 7    1  0.2812635E-010  0.4778727E+02  0.7816164E-02  0.1312668E+00
        -11   -1    0    0    0    0  0.00000000000E+00  0.00000000000E+00  0.45593999997E+02  0.45594000000E+02  0.51100000000E-03 0. -1.
         11   -1    0    0    0    0 -0.00000000000E+00 -0.00000000000E+00 -0.45593999997E+02  0.45594000000E+02  0.51100000000E-03 0.  1.
    9900012    2    1    2    0    0 -0.36749036816E+02 -0.10679170724E+02 -0.20471611304E+02  0.47787271162E+02  0.20000000538E+02 0.  0.
         12    1    1    2    0    0  0.36749036816E+02  0.10679170724E+02  0.20471611304E+02  0.43400728838E+02  0.00000000000E+00 0. -1.
         11    1    3    3    0    0 -0.26914565418E+00 -0.35405660255E+01 -0.28387469736E+01  0.45460457328E+01  0.51100000000E-03 0. -1.
        -11    1    3    3    0    0 -0.30029184569E+02 -0.10820230586E+02 -0.12858962773E+02  0.34411949082E+02  0.51100000000E-03 0.  1.
        -12    1    3    3    0    0 -0.64507065931E+01  0.36816258883E+01 -0.47739015578E+01  0.88292763472E+01  0.00000000000E+00 0.  1.
</event>
<event>
 7    1  0.2812635E-010  0.4778728E+02  0.7816164E-02  0.1312668E+00
        -11   -1    0    0    0    0  0.00000000000E+00  0.00000000000E+00  0.45593999997E+02  0.45594000000E+02  0.51100000000E-03 0. -1.
         11   -1    0    0    0    0 -0.00000000000E+00 -0.00000000000E+00 -0.45593999997E+02  0.45594000000E+02  0.51100000000E-03 0.  1.
    9900012    2    1    2    0    0  0.36351248335E+02 -0.14420523373E+02 -0.18821732439E+02  0.47787281551E+02  0.20000047904E+02 0.  0.
         12    1    1    2    0    0 -0.36351248335E+02  0.14420523373E+02  0.18821732439E+02  0.43400718449E+02  0.00000000000E+00 0. -1.
         11    1    3    3    0    0  0.22503216112E+02 -0.52805599609E+00 -0.85844254132E+01  0.24090785344E+02  0.51100000000E-03 0. -1.
        -11    1    3    3    0    0 -0.90558294183E+00 -0.10298972044E+01  0.38790323796E+00  0.14252150362E+01  0.51100000000E-03 0.  1.
         12    1    3    3    0    0  0.14753615165E+02 -0.12862570173E+02 -0.10625210263E+02  0.22271281171E+02  0.00000000000E+00 0. -1.
</event>
<event>
 7    1  0.2812635E-010  0.4778727E+02  0.7816164E-02  0.1312668E+00
        -11   -1    0    0    0    0  0.00000000000E+00  0.00000000000E+00  0.45593999997E+02  0.45594000000E+02  0.51100000000E-03 0. -1.
         11   -1    0    0    0    0 -0.00000000000E+00 -0.00000000000E+00 -0.45593999997E+02  0.45594000000E+02  0.51100000000E-03 0.  1.
    9900012    2    1    2    0    0 -0.43184965209E+02 -0.43141430393E+01  0.26528696212E+00  0.47787269275E+02  0.19999991933E+02 0.  0.
         12    1    1    2    0    0  0.43184965209E+02  0.43141430393E+01 -0.26528696212E+00  0.43400730725E+02  0.00000000000E+00 0. -1.
         11    1    3    3    0    0 -0.16290773321E+02 -0.60214699310E+01  0.51211170296E+01  0.18107270237E+02  0.51100000000E-03 0. -1.
        -11    1    3    3    0    0 -0.97654623895E+01  0.60224971556E+01 -0.48560371405E+00  0.11483489840E+02  0.51100000000E-03 0.  1.
        -12    1    3    3    0    0 -0.17128729499E+02 -0.43151702639E+01 -0.43702263534E+01  0.18196509199E+02  0.00000000000E+00 0.  1.
</event>
<event>
 7    1  0.2812635E-010  0.4778727E+02  0.7816164E-02  0.1312668E+00
        -11   -1    0    0    0    0  0.00000000000E+00  0.00000000000E+00  0.45593999997E+02  0.45594000000E+02  0.51100000000E-03 0.  1.
         11   -1    0    0    0    0 -0.00000000000E+00 -0.00000000000E+00 -0.45593999997E+02  0.45594000000E+02  0.51100000000E-03 0. -1.
    9900012    2    1    2    0    0 -0.17746766978E+02  0.39381837349E+02 -0.42126507751E+01  0.47787271000E+02  0.19999999797E+02 0.  0.
         12    1    1    2    0    0  0.17746766978E+02 -0.39381837349E+02  0.42126507751E+01  0.43400729000E+02  0.00000000000E+00 0. -1.
         11    1    3    3    0    0  0.11941309351E+01  0.49898608683E+01 -0.27159358874E+01  0.58052534984E+01  0.51100000000E-03 0. -1.
        -11    1    3    3    0    0 -0.21044985363E+02  0.26834112810E+02 -0.15329141428E+01  0.34136649591E+02  0.51100000000E-03 0.  1.
        -12    1    3    3    0    0  0.21040874506E+01  0.75578636713E+01  0.36199255094E-01  0.78453679110E+01  0.00000000000E+00 0.  1.
</event>
<event>
 7    1  0.2812635E-010  0.4778727E+02  0.7816164E-02  0.1312668E+00
        -11   -1    0    0    0    0  0.00000000000E+00  0.00000000000E+00  0.45593999997E+02  0.45594000000E+02  0.51100000000E-03 0.  1.
         11   -1    0    0    0    0 -0.00000000000E+00 -0.00000000000E+00 -0.45593999997E+02  0.45594000000E+02  0.51100000000E-03 0. -1.
    9900012    2    1    2    0    0 -0.39143112690E+02  0.27993440281E+01  0.18536561290E+02  0.47787266107E+02  0.19999977487E+02 0.  0.
         12    1    1    2    0    0  0.39143112690E+02 -0.27993440281E+01 -0.18536561290E+02  0.43400733893E+02  0.00000000000E+00 0. -1.
         11    1    3    3    0    0 -0.11033137553E+02 -0.60159714672E+01  0.36517159481E+01  0.13086522326E+02  0.51100000000E-03 0. -1.
        -11    1    3    3    0    0 -0.24673644630E+02  0.34443130069E+01  0.12679512732E+02  0.27953927717E+02  0.51100000000E-03 0.  1.
         12    1    3    3    0    0 -0.34363305063E+01  0.53710024884E+01  0.22053326103E+01  0.67468160640E+01  0.00000000000E+00 0. -1.
</event>
<event>
 7    1  0.2812635E-010  0.4778727E+02  0.7816164E-02  0.1312668E+00
        -11   -1    0    0    0    0  0.00000000000E+00  0.00000000000E+00  0.45593999997E+02  0.45594000000E+02  0.51100000000E-03 0.  1.
         11   -1    0    0    0    0 -0.00000000000E+00 -0.00000000000E+00 -0.45593999997E+02  0.45594000000E+02  0.51100000000E-03 0. -1.
    9900012    2    1    2    0    0  0.68971121535E+01  0.19594969694E+02  0.38106303280E+02  0.47787270248E+02  0.19999996368E+02 0.  0.
         12    1    1    2    0    0 -0.68971121535E+01 -0.19594969694E+02 -0.38106303280E+02  0.43400729752E+02  0.00000000000E+00 0. -1.
         11    1    3    3    0    0 -0.19618123150E+01 -0.10882686216E+01  0.72056153951E+01  0.75467827341E+01  0.51100000000E-03 0. -1.
        -11    1    3    3    0    0  0.65837013680E+01  0.15233993899E+02  0.29975962433E+02  0.34263362617E+02  0.51100000000E-03 0.  1.
        -12    1    3    3    0    0  0.22752231005E+01  0.54492444162E+01  0.92472545232E+00  0.59771248964E+01  0.00000000000E+00 0.  1.
</event>
<event>
 7    1  0.2812635E-010  0.4778727E+02  0.7816164E-02  0.1312668E+00
        -11   -1    0    0    0    0  0.00000000000E+00  0.00000000000E+00  0.45593999997E+02  0.45594000000E+02  0.51100000000E-03 0. -1.
         11   -1    0    0    0    0 -0.00000000000E+00 -0.00000000000E+00 -0.45593999997E+02  0.45594000000E+02  0.51100000000E-03 0.  1.
    9900012    2    1    2    0    0  0.34592098512E+02  0.19276377436E+02 -0.17760382238E+02  0.47787272082E+02  0.20000004731E+02 0.  0.
         12    1    1    2    0    0 -0.34592098512E+02 -0.19276377436E+02  0.17760382238E+02  0.43400727918E+02  0.00000000000E+00 0. -1.
         11    1    3    3    0    0  0.19368038408E+01  0.81782989219E+01 -0.60033445243E+01  0.10328403948E+02  0.51100000000E-03 0. -1.
        -11    1    3    3    0    0  0.18815490631E+02  0.42887980200E+01 -0.10534739350E+02  0.21986295949E+02  0.51100000000E-03 0.  1.
         12    1    3    3    0    0  0.13839804040E+02  0.68092804940E+01 -0.12222983645E+01  0.15472572185E+02  0.00000000000E+00 0. -1.
</event>
<event>
 7    1  0.2812635E-010  0.4778727E+02  0.7816164E-02  0.1312668E+00
        -11   -1    0    0    0    0  0.00000000000E+00  0.00000000000E+00  0.45593999997E+02  0.45594000000E+02  0.51100000000E-03 0.  1.
         11   -1    0    0    0    0 -0.00000000000E+00 -0.00000000000E+00 -0.45593999997E+02  0.45594000000E+02  0.51100000000E-03 0. -1.
    9900012    2    1    2    0    0 -0.77073574860E+01  0.33623689407E+02 -0.26337569220E+02  0.47787269578E+02  0.19999993315E+02 0.  0.
         12    1    1    2    0    0  0.77073574860E+01 -0.33623689407E+02  0.26337569220E+02  0.43400730422E+02  0.00000000000E+00 0. -1.
         11    1    3    3    0    0 -0.61004755850E+01  0.74160137707E+01 -0.28115421252E+00  0.96068782944E+01  0.51100000000E-03 0. -1.
        -11    1    3    3    0    0  0.29992838075E+01  0.16243476719E+02 -0.18778618029E+02  0.25009652829E+02  0.51100000000E-03 0.  1.
        -12    1    3    3    0    0 -0.46061657085E+01  0.99641989170E+01 -0.72777969781E+01  0.13170738455E+02  0.00000000000E+00 0.  1.
</event>
<event>
 7    1  0.2812635E-010  0.4778727E+02  0.7816164E-02  0.1312668E+00
        -11   -1    0    0    0    0  0.00000000000E+00  0.00000000000E+00  0.45593999997E+02  0.45594000000E+02  0.51100000000E-03 0. -1.
         11   -1    0    0    0    0 -0.00000000000E+00 -0.00000000000E+00 -0.45593999997E+02  0.45594000000E+02  0.51100000000E-03 0.  1.
    9900012    2    1    2    0    0 -0.25224549456E+02 -0.32303117011E+02 -0.14277740094E+02  0.47787272747E+02  0.20000007761E+02 0.  0.
         12    1    1    2    0    0  0.25224549456E+02  0.32303117011E+02  0.14277740094E+02  0.43400727253E+02  0.00000000000E+00 0. -1.
         11    1    3    3    0    0 -0.29365473576E+00 -0.16011262327E+01 -0.36523629828E+01  0.39986990305E+01  0.51100000000E-03 0. -1.
        -11    1    3    3    0    0 -0.18792479159E+02 -0.16182119548E+02 -0.12744598408E+02  0.27882665849E+02  0.51100000000E-03 0.  1.
        -12    1    3    3    0    0 -0.61384155617E+01 -0.14519871231E+02  0.21192212972E+01  0.15905907867E+02  0.00000000000E+00 0.  1.
</event>
<event>
 7    1  0.2812635E-010  0.4778726E+02  0.7816164E-02  0.1312668E+00
        -11   -1    0    0    0    0  0.00000000000E+00  0.00000000000E+00  0.45593999997E+02  0.45594000000E+02  0.51100000000E-03 0.  1.
         11   -1    0    0    0    0 -0.00000000000E+00 -0.00000000000E+00 -0.45593999997E+02  0.45594000000E+02  0.51100000000E-03 0. -1.
    9900012    2    1    2    0    0  0.16064282889E+02  0.88976430223E+01  0.39324225645E+02  0.47787263155E+02  0.19999964030E+02 0.  0.
         12    1    1    2    0    0 -0.16064282889E+02 -0.88976430223E+01 -0.39324225645E+02  0.43400736845E+02  0.00000000000E+00 0. -1.
         11    1    3    3    0    0  0.49056272030E+01  0.54181102076E+00 -0.96195676592E-01  0.49363945655E+01  0.51100000000E-03 0. -1.
        -11    1    3    3    0    0  0.48607578776E+01  0.53496901424E+01  0.31391905897E+02  0.32213318797E+02  0.51100000000E-03 0.  1.
        -12    1    3    3    0    0  0.62978978082E+01  0.30061418592E+01  0.80285154244E+01  0.10637549793E+02  0.00000000000E+00 0.  1.
</event>
<event>
 7    1  0.2812635E-010  0.4778727E+02  0.7816164E-02  0.1312668E+00
        -11   -1    0    0    0    0  0.00000000000E+00  0.00000000000E+00  0.45593999997E+02  0.45594000000E+02  0.51100000000E-03 0.  1.
         11   -1    0    0    0    0 -0.00000000000E+00 -0.00000000000E+00 -0.45593999997E+02  0.45594000000E+02  0.51100000000E-03 0. -1.
    9900012    2    1    2    0    0 -0.20328317886E+02 -0.30438534836E+02  0.23321202827E+02  0.47787269449E+02  0.19999992728E+02 0.  0.
         12    1    1    2    0    0  0.20328317886E+02  0.30438534836E+02 -0.23321202827E+02  0.43400730551E+02  0.00000000000E+00 0. -1.
         11    1    3    3    0    0  0.24639870433E+01  0.55962536355E+00  0.86507149190E+00  0.26707230564E+01  0.51100000000E-03 0. -1.
        -11    1    3    3    0    0 -0.19773090353E+02 -0.23493730550E+02  0.15260088081E+02  0.34289951382E+02  0.51100000000E-03 0.  1.
         12    1    3    3    0    0 -0.30192145762E+01 -0.75044296493E+01  0.71960432540E+01  0.10826595011E+02  0.00000000000E+00 0. -1.
</event>
<event>
 7    1  0.2812635E-010  0.4778727E+02  0.7816164E-02  0.1312668E+00
        -11   -1    0    0    0    0  0.00000000000E+00  0.00000000000E+00  0.45593999997E+02  0.45594000000E+02  0.51100000000E-03 0.  1.
         11   -1    0    0    0    0 -0.00000000000E+00 -0.00000000000E+00 -0.45593999997E+02  0.45594000000E+02  0.51100000000E-03 0. -1.
    9900012    2    1    2    0    0  0.26363824026E+02  0.33913436420E+02 -0.62008575062E+01  0.47787273959E+02  0.20000013286E+02 0.  0.
         12    1    1    2    0    0 -0.26363824026E+02 -0.33913436420E+02  0.62008575062E+01  0.43400726041E+02  0.00000000000E+00 0. -1.
         11    1    3    3    0    0  0.18254624140E+02  0.90384209145E+01 -0.47476849077E+01  0.20915660816E+02  0.51100000000E-03 0. -1.
        -11    1    3    3    0    0  0.89547532608E+01  0.23701258673E+02 -0.17426081996E+01  0.25396337379E+02  0.51100000000E-03 0.  1.
        -12    1    3    3    0    0 -0.84555337490E+00  0.11737568327E+01  0.28943560105E+00  0.14752757638E+01  0.00000000000E+00 0.  1.
</event>
<event>
 7    1  0.2812635E-010  0.4778727E+02  0.7816164E-02  0.1312668E+00
        -11   -1    0    0    0    0  0.00000000000E+00  0.00000000000E+00  0.45593999997E+02  0.45594000000E+02  0.51100000000E-03 0.  1.
         11   -1    0    0    0    0 -0.00000000000E+00 -0.00000000000E+00 -0.45593999997E+02  0.45594000000E+02  0.51100000000E-03 0. -1.
    9900012    2    1    2    0    0  0.22571429136E+02 -0.27155192256E+02  0.25233887778E+02  0.47787274521E+02  0.20000015850E+02 0.  0.
         12    1    1    2    0    0 -0.22571429136E+02  0.27155192256E+02 -0.25233887778E+02  0.43400725479E+02  0.00000000000E+00 0. -1.
         11    1    3    3    0    0 -0.10792027395E+01 -0.90956664716E+01  0.53335039916E+01  0.10599155259E+02  0.51100000000E-03 0. -1.
        -11    1    3    3    0    0  0.19983440968E+02 -0.18629663780E+02  0.15424801099E+02  0.31373982448E+02  0.51100000000E-03 0.  1.
         12    1    3    3    0    0  0.36671909074E+01  0.57013799553E+00  0.44755826884E+01  0.58141368135E+01  0.00000000000E+00 0. -1.
</event>
<event>
 7    1  0.2812635E-010  0.4778726E+02  0.7816164E-02  0.1312668E+00
        -11   -1    0    0    0    0  0.00000000000E+00  0.00000000000E+00  0.45593999997E+02  0.45594000000E+02  0.51100000000E-03 0.  1.
         11   -1    0    0    0    0 -0.00000000000E+00 -0.00000000000E+00 -0.45593999997E+02  0.45594000000E+02  0.51100000000E-03 0. -1.
    9900012    2    1    2    0    0 -0.31641732539E+02  0.24731629160E+02 -0.16455125666E+02  0.47787264066E+02  0.19999968182E+02 0.  0.
         12    1    1    2    0    0  0.31641732539E+02 -0.24731629160E+02  0.16455125666E+02  0.43400735934E+02  0.00000000000E+00 0. -1.
         11    1    3    3    0    0 -0.21425964912E+01 -0.11003179197E+01 -0.50388793072E+01  0.55849551638E+01  0.51100000000E-03 0. -1.
        -11    1    3    3    0    0 -0.10602812146E+02  0.16349941073E+02 -0.54439586902E+01  0.20233064152E+02  0.51100000000E-03 0.  1.
        -12    1    3    3    0    0 -0.18896323902E+02  0.94820060067E+01 -0.59722876682E+01  0.21969244750E+02  0.00000000000E+00 0.  1.
</event>
<event>
 7    1  0.2812635E-010  0.4778726E+02  0.7816164E-02  0.1312668E+00
        -11   -1    0    0    0    0  0.00000000000E+00  0.00000000000E+00  0.45593999997E+02  0.45594000000E+02  0.51100000000E-03 0. -1.
         11   -1    0    0    0    0 -0.00000000000E+00 -0.00000000000E+00 -0.45593999997E+02  0.45594000000E+02  0.51100000000E-03 0.  1.
    9900012    2    1    2    0    0 -0.28925086837E+02 -0.14203610331E+02 -0.29072684956E+02  0.47787260311E+02  0.19999951063E+02 0.  0.
         12    1    1    2    0    0  0.28925086837E+02  0.14203610331E+02  0.29072684956E+02  0.43400739689E+02  0.00000000000E+00 0. -1.
         11    1    3    3    0    0 -0.19831936388E+02 -0.12803110432E+02 -0.15150434641E+02  0.28049260377E+02  0.51100000000E-03 0. -1.
        -11    1    3    3    0    0 -0.81720398516E+01  0.19251932983E+01 -0.13956207327E+02  0.16286937336E+02  0.51100000000E-03 0.  1.
         12    1    3    3    0    0 -0.92111059722E+00 -0.33256931974E+01  0.33957012095E-01  0.34510625979E+01  0.00000000000E+00 0. -1.
</event>
<event>
 7    1  0.2812635E-010  0.4778727E+02  0.7816164E-02  0.1312668E+00
        -11   -1    0    0    0    0  0.00000000000E+00  0.00000000000E+00  0.45593999997E+02  0.45594000000E+02  0.51100000000E-03 0.  1.
         11   -1    0    0    0    0 -0.00000000000E+00 -0.00000000000E+00 -0.45593999997E+02  0.45594000000E+02  0.51100000000E-03 0. -1.
    9900012    2    1    2    0    0 -0.32099439356E+02 -0.28802009802E+02 -0.48676306524E+01  0.47787267244E+02  0.19999982671E+02 0.  0.
         12    1    1    2    0    0  0.32099439356E+02  0.28802009802E+02  0.48676306524E+01  0.43400732756E+02  0.00000000000E+00 0. -1.
         11    1    3    3    0    0 -0.16827072951E+02 -0.89365897173E+01 -0.69402855546E+01  0.20277588213E+02  0.51100000000E-03 0. -1.
        -11    1    3    3    0    0 -0.13284235230E+02 -0.10952337137E+02  0.49854551358E+01  0.17924267282E+02  0.51100000000E-03 0.  1.
        -12    1    3    3    0    0 -0.19881311743E+01 -0.89130829479E+01 -0.29128002336E+01  0.95854117493E+01  0.00000000000E+00 0.  1.
</event>
<event>
 7    1  0.2812635E-010  0.4778726E+02  0.7816164E-02  0.1312668E+00
        -11   -1    0    0    0    0  0.00000000000E+00  0.00000000000E+00  0.45593999997E+02  0.45594000000E+02  0.51100000000E-03 0.  1.
         11   -1    0    0    0    0 -0.00000000000E+00 -0.00000000000E+00 -0.45593999997E+02  0.45594000000E+02  0.51100000000E-03 0. -1.
    9900012    2    1    2    0    0 -0.15863563623E+01 -0.29610004345E+02  0.31691565670E+02  0.47787260163E+02  0.19999950385E+02 0.  0.
         12    1    1    2    0    0  0.15863563623E+01  0.29610004345E+02 -0.31691565670E+02  0.43400739837E+02  0.00000000000E+00 0. -1.
         11    1    3    3    0    0 -0.49370611978E+01 -0.10599270088E+01  0.25122255843E+01  0.56399730658E+01  0.51100000000E-03 0. -1.
        -11    1    3    3    0    0 -0.13076988320E+01 -0.16722735390E+02  0.11359961757E+02  0.20258546013E+02  0.51100000000E-03 0.  1.
         12    1    3    3    0    0  0.46584036675E+01 -0.11827341947E+02  0.17819378328E+02  0.21888741084E+02  0.00000000000E+00 0. -1.
</event>
<event>
 7    1  0.2812635E-010  0.4778727E+02  0.7816164E-02  0.1312668E+00
        -11   -1    0    0    0    0  0.00000000000E+00  0.00000000000E+00  0.45593999997E+02  0.45594000000E+02  0.51100000000E-03 0.  1.
         11   -1    0    0    0    0 -0.00000000000E+00 -0.00000000000E+00 -0.45593999997E+02  0.45594000000E+02  0.51100000000E-03 0. -1.
    9900012    2    1    2    0    0 -0.12627794050E+02  0.34256967539E+02  0.23465342287E+02  0.47787270787E+02  0.19999998828E+02 0.  0.
         12    1    1    2    0    0  0.12627794050E+02 -0.34256967539E+02 -0.23465342287E+02  0.43400729213E+02  0.00000000000E+00 0. -1.
         11    1    3    3    0    0 -0.98202256635E+00  0.21861517130E+00  0.82601737080E+01  0.83212157081E+01  0.51100000000E-03 0. -1.
        -11    1    3    3    0    0 -0.96804128700E+01  0.20753455289E+02  0.82377003345E+01  0.24336721366E+02  0.51100000000E-03 0.  1.
         12    1    3    3    0    0 -0.19653586133E+01  0.13284897079E+02  0.69674682447E+01  0.15129333713E+02  0.00000000000E+00 0. -1.
</event>
<event>
 7    1  0.2812635E-010  0.4778727E+02  0.7816164E-02  0.1312668E+00
        -11   -1    0    0    0    0  0.00000000000E+00  0.00000000000E+00  0.45593999997E+02  0.45594000000E+02  0.51100000000E-03 0. -1.
         11   -1    0    0    0    0 -0.00000000000E+00 -0.00000000000E+00 -0.45593999997E+02  0.45594000000E+02  0.51100000000E-03 0.  1.
    9900012    2    1    2    0    0 -0.22395509734E+02 -0.14862986532E+02 -0.34075740276E+02  0.47787270740E+02  0.19999998614E+02 0.  0.
         12    1    1    2    0    0  0.22395509734E+02  0.14862986532E+02  0.34075740276E+02  0.43400729260E+02  0.00000000000E+00 0. -1.
         11    1    3    3    0    0 -0.45463157854E+01 -0.11439207419E+02 -0.18610709767E+02  0.22313291373E+02  0.51100000000E-03 0. -1.
        -11    1    3    3    0    0 -0.10081110947E+02 -0.48930770118E-01 -0.13377876431E+02  0.16751082658E+02  0.51100000000E-03 0.  1.
        -12    1    3    3    0    0 -0.77680830022E+01 -0.33748483423E+01 -0.20871540778E+01  0.87228967096E+01  0.00000000000E+00 0.  1.
</event>
<event>
 7    1  0.2812635E-010  0.4778727E+02  0.7816164E-02  0.1312668E+00
        -11   -1    0    0    0    0  0.00000000000E+00  0.00000000000E+00  0.45593999997E+02  0.45594000000E+02  0.51100000000E-03 0.  1.
         11   -1    0    0    0    0 -0.00000000000E+00 -0.00000000000E+00 -0.45593999997E+02  0.45594000000E+02  0.51100000000E-03 0. -1.
    9900012    2    1    2    0    0 -0.33469214264E+02 -0.27249952384E+02  0.45689325672E+01  0.47787270131E+02  0.19999995835E+02 0.  0.
         12    1    1    2    0    0  0.33469214264E+02  0.27249952384E+02 -0.45689325672E+01  0.43400729869E+02  0.00000000000E+00 0. -1.
         11    1    3    3    0    0 -0.97343480767E+01 -0.10833930207E+02  0.97101378400E+01  0.17504809435E+02  0.51100000000E-03 0. -1.
        -11    1    3    3    0    0 -0.10889444567E+02 -0.94605587346E+01  0.94868027521E+00  0.14456215586E+02  0.51100000000E-03 0.  1.
         12    1    3    3    0    0 -0.12845421620E+02 -0.69554634418E+01 -0.60898855479E+01  0.15826245110E+02  0.00000000000E+00 0. -1.
</event>
<event>
 7    1  0.2812635E-010  0.4778727E+02  0.7816164E-02  0.1312668E+00
        -11   -1    0    0    0    0  0.00000000000E+00  0.00000000000E+00  0.45593999997E+02  0.45594000000E+02  0.51100000000E-03 0.  1.
         11   -1    0    0    0    0 -0.00000000000E+00 -0.00000000000E+00 -0.45593999997E+02  0.45594000000E+02  0.51100000000E-03 0. -1.
    9900012    2    1    2    0    0 -0.98005287278E+01 -0.18172908167E+02  0.38174840785E+02  0.47787269320E+02  0.19999992139E+02 0.  0.
         12    1    1    2    0    0  0.98005287278E+01  0.18172908167E+02 -0.38174840785E+02  0.43400730680E+02  0.00000000000E+00 0. -1.
         11    1    3    3    0    0  0.46107801806E+01  0.24301638775E+00  0.93396565113E+01  0.10418614824E+02  0.51100000000E-03 0. -1.
        -11    1    3    3    0    0 -0.90539441242E+01 -0.88005684658E+01  0.17379731808E+02  0.21482061994E+02  0.51100000000E-03 0.  1.
         12    1    3    3    0    0 -0.53573647842E+01 -0.96153560892E+01  0.11455452466E+02  0.15886592503E+02  0.00000000000E+00 0. -1.
</event>
<event>
 7    1  0.2812635E-010  0.4778728E+02  0.7816164E-02  0.1312668E+00
        -11   -1    0    0    0    0  0.00000000000E+00  0.00000000000E+00  0.45593999997E+02  0.45594000000E+02  0.51100000000E-03 0. -1.
         11   -1    0    0    0    0 -0.00000000000E+00 -0.00000000000E+00 -0.45593999997E+02  0.45594000000E+02  0.51100000000E-03 0.  1.
    9900012    2    1    2    0    0  0.41221285803E+02 -0.64773001659E+01  0.11936184123E+02  0.47787282124E+02  0.20000050516E+02 0.  0.
         12    1    1    2    0    0 -0.41221285803E+02  0.64773001659E+01 -0.11936184123E+02  0.43400717876E+02  0.00000000000E+00 0. -1.
         11    1    3    3    0    0  0.74915066876E+01 -0.30540361585E+01  0.41093872211E+01  0.90739667678E+01  0.51100000000E-03 0. -1.
        -11    1    3    3    0    0  0.25751003777E+01 -0.23994542781E+01  0.66447794144E+01  0.75194159691E+01  0.51100000000E-03 0.  1.
        -12    1    3    3    0    0  0.31154678738E+02 -0.10238097293E+01  0.11820174875E+01  0.31193899387E+02  0.00000000000E+00 0.  1.
</event>
<event>
 7    1  0.2812635E-010  0.4778728E+02  0.7816164E-02  0.1312668E+00
        -11   -1    0    0    0    0  0.00000000000E+00  0.00000000000E+00  0.45593999997E+02  0.45594000000E+02  0.51100000000E-03 0.  1.
         11   -1    0    0    0    0 -0.00000000000E+00 -0.00000000000E+00 -0.45593999997E+02  0.45594000000E+02  0.51100000000E-03 0. -1.
    9900012    2    1    2    0    0 -0.39484281939E+02  0.32412944692E+00  0.18014135212E+02  0.47787278260E+02  0.20000032899E+02 0.  0.
         12    1    1    2    0    0  0.39484281939E+02 -0.32412944692E+00 -0.18014135212E+02  0.43400721740E+02  0.00000000000E+00 0. -1.
         11    1    3    3    0    0 -0.12590740712E+02 -0.79059924825E+01  0.29441350402E+01  0.15155837166E+02  0.51100000000E-03 0. -1.
        -11    1    3    3    0    0 -0.24694158560E+02  0.52755489055E+01  0.13411186650E+02  0.28591831191E+02  0.51100000000E-03 0.  1.
        -12    1    3    3    0    0 -0.21993826668E+01  0.29545730240E+01  0.16588135215E+01  0.40396099029E+01  0.00000000000E+00 0.  1.
</event>
<event>
 7    1  0.2812635E-010  0.4778726E+02  0.7816164E-02  0.1312668E+00
        -11   -1    0    0    0    0  0.00000000000E+00  0.00000000000E+00  0.45593999997E+02  0.45594000000E+02  0.51100000000E-03 0. -1.
         11   -1    0    0    0    0 -0.00000000000E+00 -0.00000000000E+00 -0.45593999997E+02  0.45594000000E+02  0.51100000000E-03 0.  1.
    9900012    2    1    2    0    0 -0.39407109970E+02 -0.56330884638E+01  0.17290819890E+02  0.47787257445E+02  0.19999937994E+02 0.  0.
         12    1    1    2    0    0  0.39407109970E+02  0.56330884638E+01 -0.17290819890E+02  0.43400742555E+02  0.00000000000E+00 0. -1.
         11    1    3    3    0    0 -0.16426420840E+02 -0.13000104346E+01 -0.27579697591E+01  0.16706996324E+02  0.51100000000E-03 0. -1.
        -11    1    3    3    0    0 -0.13573973119E+02 -0.48332052758E+00  0.11234851350E+02  0.17626917770E+02  0.51100000000E-03 0.  1.
         12    1    3    3    0    0 -0.94067160122E+01 -0.38497575016E+01  0.88139382994E+01  0.13453343350E+02  0.00000000000E+00 0. -1.
</event>
<event>
 7    1  0.2812635E-010  0.4778727E+02  0.7816164E-02  0.1312668E+00
        -11   -1    0    0    0    0  0.00000000000E+00  0.00000000000E+00  0.45593999997E+02  0.45594000000E+02  0.51100000000E-03 0.  1.
         11   -1    0    0    0    0 -0.00000000000E+00 -0.00000000000E+00 -0.45593999997E+02  0.45594000000E+02  0.51100000000E-03 0. -1.
    9900012    2    1    2    0    0  0.10847077989E+02 -0.39824193220E+02  0.13416320372E+02  0.47787272831E+02  0.20000008144E+02 0.  0.
         12    1    1    2    0    0 -0.10847077989E+02  0.39824193220E+02 -0.13416320372E+02  0.43400727169E+02  0.00000000000E+00 0. -1.
         11    1    3    3    0    0  0.16834465772E+01 -0.29186814012E+01 -0.11667828480E+01  0.35656802963E+01  0.51100000000E-03 0. -1.
        -11    1    3    3    0    0 -0.46046875847E+01 -0.88064216735E+01  0.62114837749E+00  0.99570093910E+01  0.51100000000E-03 0.  1.
        -12    1    3    3    0    0  0.13768318997E+02 -0.28099090145E+02  0.13961954842E+02  0.34264583143E+02  0.00000000000E+00 0.  1.
</event>
<event>
 7    1  0.2812635E-010  0.4778727E+02  0.7816164E-02  0.1312668E+00
        -11   -1    0    0    0    0  0.00000000000E+00  0.00000000000E+00  0.45593999997E+02  0.45594000000E+02  0.51100000000E-03 0.  1.
         11   -1    0    0    0    0 -0.00000000000E+00 -0.00000000000E+00 -0.45593999997E+02  0.45594000000E+02  0.51100000000E-03 0. -1.
    9900012    2    1    2    0    0 -0.20494127698E+02  0.36127899574E+02  0.12585272347E+02  0.47787268696E+02  0.19999989290E+02 0.  0.
         12    1    1    2    0    0  0.20494127698E+02 -0.36127899574E+02 -0.12585272347E+02  0.43400731304E+02  0.00000000000E+00 0. -1.
         11    1    3    3    0    0 -0.12367188837E+01  0.18351484511E+01 -0.88571860483E+00  0.23836403132E+01  0.51100000000E-03 0. -1.
        -11    1    3    3    0    0 -0.21858656797E+02  0.31994095929E+02  0.90650069671E+01  0.39794439346E+02  0.51100000000E-03 0.  1.
        -12    1    3    3    0    0  0.26012479833E+01  0.22986551936E+01  0.44059839843E+01  0.56091890358E+01  0.00000000000E+00 0.  1.
</event>
<event>
 7    1  0.2812635E-010  0.4778727E+02  0.7816164E-02  0.1312668E+00
        -11   -1    0    0    0    0  0.00000000000E+00  0.00000000000E+00  0.45593999997E+02  0.45594000000E+02  0.51100000000E-03 0.  1.
         11   -1    0    0    0    0 -0.00000000000E+00 -0.00000000000E+00 -0.45593999997E+02  0.45594000000E+02  0.51100000000E-03 0. -1.
    9900012    2    1    2    0    0  0.28427828639E+02  0.32460116633E+02 -0.46714972644E+01  0.47787268444E+02  0.19999988142E+02 0.  0.
         12    1    1    2    0    0 -0.28427828639E+02 -0.32460116633E+02  0.46714972644E+01  0.43400731556E+02  0.00000000000E+00 0. -1.
         11    1    3    3    0    0  0.14548682917E+02  0.23744082391E+02  0.30934137160E+01  0.28018116138E+02  0.51100000000E-03 0. -1.
        -11    1    3    3    0    0  0.61676436647E+01  0.50097959795E+01  0.38176598565E+00  0.79551008580E+01  0.51100000000E-03 0.  1.
         12    1    3    3    0    0  0.77115020571E+01  0.37062382619E+01 -0.81466769660E+01  0.11814051448E+02  0.00000000000E+00 0. -1.
</event>
<event>
 7    1  0.2812635E-010  0.4778727E+02  0.7816164E-02  0.1312668E+00
        -11   -1    0    0    0    0  0.00000000000E+00  0.00000000000E+00  0.45593999997E+02  0.45594000000E+02  0.51100000000E-03 0.  1.
         11   -1    0    0    0    0 -0.00000000000E+00 -0.00000000000E+00 -0.45593999997E+02  0.45594000000E+02  0.51100000000E-03 0. -1.
    9900012    2    1    2    0    0 -0.43306896399E+02 -0.29622650628E+00 -0.28369289819E+01  0.47787271989E+02  0.20000004307E+02 0.  0.
         12    1    1    2    0    0  0.43306896399E+02  0.29622650628E+00  0.28369289819E+01  0.43400728011E+02  0.00000000000E+00 0. -1.
         11    1    3    3    0    0 -0.11041077971E+00  0.18378211153E+01  0.11732316056E+01  0.21831742151E+01  0.51100000000E-03 0. -1.
        -11    1    3    3    0    0 -0.44068315026E+02 -0.11426253967E+01 -0.36410247042E+01  0.44233234600E+02  0.51100000000E-03 0.  1.
        -12    1    3    3    0    0  0.87182940670E+00 -0.99142222480E+00 -0.36913588329E+00  0.13708631743E+01  0.00000000000E+00 0.  1.
</event>
<event>
 7    1  0.2812635E-010  0.4778727E+02  0.7816164E-02  0.1312668E+00
        -11   -1    0    0    0    0  0.00000000000E+00  0.00000000000E+00  0.45593999997E+02  0.45594000000E+02  0.51100000000E-03 0.  1.
         11   -1    0    0    0    0 -0.00000000000E+00 -0.00000000000E+00 -0.45593999997E+02  0.45594000000E+02  0.51100000000E-03 0. -1.
    9900012    2    1    2    0    0 -0.21487783921E+02  0.20566451400E+02  0.31605692877E+02  0.47787267250E+02  0.19999982698E+02 0.  0.
         12    1    1    2    0    0  0.21487783921E+02 -0.20566451400E+02 -0.31605692877E+02  0.43400732750E+02  0.00000000000E+00 0. -1.
         11    1    3    3    0    0 -0.17412282485E+01  0.52804848415E+01  0.27963072746E+01  0.62237232112E+01  0.51100000000E-03 0. -1.
        -11    1    3    3    0    0 -0.21508197701E+02  0.14840413616E+02  0.20937387734E+02  0.33484543450E+02  0.51100000000E-03 0.  1.
        -12    1    3    3    0    0  0.17616420292E+01  0.44555294241E+00  0.78719978690E+01  0.80790005888E+01  0.00000000000E+00 0.  1.
</event>
<event>
 7    1  0.2812635E-010  0.4778727E+02  0.7816164E-02  0.1312668E+00
        -11   -1    0    0    0    0  0.00000000000E+00  0.00000000000E+00  0.45593999997E+02  0.45594000000E+02  0.51100000000E-03 0.  1.
         11   -1    0    0    0    0 -0.00000000000E+00 -0.00000000000E+00 -0.45593999997E+02  0.45594000000E+02  0.51100000000E-03 0. -1.
    9900012    2    1    2    0    0  0.70778203617E+01 -0.27830362691E+02  0.32542259515E+02  0.47787270940E+02  0.19999999523E+02 0.  0.
         12    1    1    2    0    0 -0.70778203617E+01  0.27830362691E+02 -0.32542259515E+02  0.43400729060E+02  0.00000000000E+00 0. -1.
         11    1    3    3    0    0  0.17312833516E+01  0.95538634538E-02  0.41957742834E+00  0.17814260577E+01  0.51100000000E-03 0. -1.
        -11    1    3    3    0    0 -0.32289802734E+01 -0.20221677945E+02  0.25695351506E+02  0.32857170630E+02  0.51100000000E-03 0.  1.
        -12    1    3    3    0    0  0.85755172835E+01 -0.76182386094E+01  0.64273305809E+01  0.13148674252E+02  0.00000000000E+00 0.  1.
</event>
<event>
 7    1  0.2812635E-010  0.4778727E+02  0.7816164E-02  0.1312668E+00
        -11   -1    0    0    0    0  0.00000000000E+00  0.00000000000E+00  0.45593999997E+02  0.45594000000E+02  0.51100000000E-03 0. -1.
         11   -1    0    0    0    0 -0.00000000000E+00 -0.00000000000E+00 -0.45593999997E+02  0.45594000000E+02  0.51100000000E-03 0.  1.
    9900012    2    1    2    0    0 -0.34943694488E+02 -0.11467178912E+02 -0.23044852394E+02  0.47787271912E+02  0.20000003958E+02 0.  0.
         12    1    1    2    0    0  0.34943694488E+02  0.11467178912E+02  0.23044852394E+02  0.43400728088E+02  0.00000000000E+00 0. -1.
         11    1    3    3    0    0  0.21790811042E+01 -0.79549216554E+00 -0.33063750336E+01  0.40389749154E+01  0.51100000000E-03 0. -1.
        -11    1    3    3    0    0 -0.15902607093E+02 -0.61469844855E+01 -0.60344978935E+01  0.18085726298E+02  0.51100000000E-03 0.  1.
         12    1    3    3    0    0 -0.21220168498E+02 -0.45247022610E+01 -0.13703979467E+02  0.25662570699E+02  0.00000000000E+00 0. -1.
</event>
<event>
 7    1  0.2812635E-010  0.4778727E+02  0.7816164E-02  0.1312668E+00
        -11   -1    0    0    0    0  0.00000000000E+00  0.00000000000E+00  0.45593999997E+02  0.45594000000E+02  0.51100000000E-03 0. -1.
         11   -1    0    0    0    0 -0.00000000000E+00 -0.00000000000E+00 -0.45593999997E+02  0.45594000000E+02  0.51100000000E-03 0.  1.
    9900012    2    1    2    0    0 -0.25041443506E+02  0.63921051451E+01 -0.34866746814E+02  0.47787274954E+02  0.20000017828E+02 0.  0.
         12    1    1    2    0    0  0.25041443506E+02 -0.63921051451E+01  0.34866746814E+02  0.43400725046E+02  0.00000000000E+00 0. -1.
         11    1    3    3    0    0  0.16820387565E+01 -0.23951974493E+01 -0.80759961170E+01  0.85899906136E+01  0.51100000000E-03 0. -1.
        -11    1    3    3    0    0 -0.16200169815E+02  0.79398892395E+01 -0.17488769124E+02  0.25126567392E+02  0.51100000000E-03 0.  1.
         12    1    3    3    0    0 -0.10523312448E+02  0.84741335479E+00 -0.93019815738E+01  0.14070716949E+02  0.00000000000E+00 0. -1.
</event>
<event>
 7    1  0.2812635E-010  0.4778727E+02  0.7816164E-02  0.1312668E+00
        -11   -1    0    0    0    0  0.00000000000E+00  0.00000000000E+00  0.45593999997E+02  0.45594000000E+02  0.51100000000E-03 0.  1.
         11   -1    0    0    0    0 -0.00000000000E+00 -0.00000000000E+00 -0.45593999997E+02  0.45594000000E+02  0.51100000000E-03 0. -1.
    9900012    2    1    2    0    0  0.17750619453E+02 -0.75955404949E+01  0.38869615084E+02  0.47787266099E+02  0.19999977453E+02 0.  0.
         12    1    1    2    0    0 -0.17750619453E+02  0.75955404949E+01 -0.38869615084E+02  0.43400733901E+02  0.00000000000E+00 0. -1.
         11    1    3    3    0    0  0.34107391630E+01 -0.88135424629E+01  0.58499602058E+01  0.11114571834E+02  0.51100000000E-03 0. -1.
        -11    1    3    3    0    0  0.66414878129E+01  0.21887566517E+01  0.22755075987E+02  0.23805325024E+02  0.51100000000E-03 0.  1.
        -12    1    3    3    0    0  0.76983924772E+01 -0.97075468372E+00  0.10264578891E+02  0.12867369241E+02  0.00000000000E+00 0.  1.
</event>
<event>
 7    1  0.2812635E-010  0.4778728E+02  0.7816164E-02  0.1312668E+00
        -11   -1    0    0    0    0  0.00000000000E+00  0.00000000000E+00  0.45593999997E+02  0.45594000000E+02  0.51100000000E-03 0.  1.
         11   -1    0    0    0    0 -0.00000000000E+00 -0.00000000000E+00 -0.45593999997E+02  0.45594000000E+02  0.51100000000E-03 0. -1.
    9900012    2    1    2    0    0  0.33823887952E+02  0.25973553305E+02  0.80586619869E+01  0.47787275346E+02  0.20000019612E+02 0.  0.
         12    1    1    2    0    0 -0.33823887952E+02 -0.25973553305E+02 -0.80586619869E+01  0.43400724654E+02  0.00000000000E+00 0. -1.
         11    1    3    3    0    0  0.59357358366E+01  0.25528026732E-01  0.62047783684E+01  0.85867855723E+01  0.51100000000E-03 0. -1.
        -11    1    3    3    0    0  0.12224565376E+02  0.12813307941E+02  0.52662942178E+01  0.18475787239E+02  0.51100000000E-03 0.  1.
         12    1    3    3    0    0  0.15663586739E+02  0.13134717337E+02 -0.34124105993E+01  0.20724702535E+02  0.00000000000E+00 0. -1.
</event>
<event>
 7    1  0.2812635E-010  0.4778728E+02  0.7816164E-02  0.1312668E+00
        -11   -1    0    0    0    0  0.00000000000E+00  0.00000000000E+00  0.45593999997E+02  0.45594000000E+02  0.51100000000E-03 0. -1.
         11   -1    0    0    0    0 -0.00000000000E+00 -0.00000000000E+00 -0.45593999997E+02  0.45594000000E+02  0.51100000000E-03 0.  1.
    9900012    2    1    2    0    0  0.41019442645E+01 -0.24388772909E+02 -0.35664890364E+02  0.47787278860E+02  0.20000035635E+02 0.  0.
         12    1    1    2    0    0 -0.41019442645E+01  0.24388772909E+02  0.35664890364E+02  0.43400721140E+02  0.00000000000E+00 0. -1.
         11    1    3    3    0    0 -0.35710869819E+01 -0.35286309657E+01 -0.24718881629E+01  0.55959029723E+01  0.51100000000E-03 0. -1.
        -11    1    3    3    0    0  0.89248866626E+01 -0.16321559915E+02 -0.32479623195E+02  0.37429571774E+02  0.51100000000E-03 0.  1.
        -12    1    3    3    0    0 -0.12518554162E+01 -0.45385820288E+01 -0.71337900592E+00  0.47618041141E+01  0.00000000000E+00 0.  1.
</event>
<event>
 7    1  0.2812635E-010  0.4778726E+02  0.7816164E-02  0.1312668E+00
        -11   -1    0    0    0    0  0.00000000000E+00  0.00000000000E+00  0.45593999997E+02  0.45594000000E+02  0.51100000000E-03 0. -1.
         11   -1    0    0    0    0 -0.00000000000E+00 -0.00000000000E+00 -0.45593999997E+02  0.45594000000E+02  0.51100000000E-03 0.  1.
    9900012    2    1    2    0    0 -0.13192779276E+02  0.41312372313E+02 -0.16918697931E+01  0.47787263203E+02  0.19999964248E+02 0.  0.
         12    1    1    2    0    0  0.13192779276E+02 -0.41312372313E+02  0.16918697931E+01  0.43400736797E+02  0.00000000000E+00 0. -1.
         11    1    3    3    0    0 -0.85835690615E+01  0.12854131467E+02  0.70673942981E+01  0.16995717579E+02  0.51100000000E-03 0. -1.
        -11    1    3    3    0    0 -0.59122032304E+01  0.21240209488E+02 -0.78368365476E+01  0.23399073774E+02  0.51100000000E-03 0.  1.
         12    1    3    3    0    0  0.13029930163E+01  0.72180313575E+01 -0.92242754350E+00  0.73924718499E+01  0.00000000000E+00 0. -1.
</event>
<event>
 7    1  0.2812635E-010  0.4778728E+02  0.7816164E-02  0.1312668E+00
        -11   -1    0    0    0    0  0.00000000000E+00  0.00000000000E+00  0.45593999997E+02  0.45594000000E+02  0.51100000000E-03 0.  1.
         11   -1    0    0    0    0 -0.00000000000E+00 -0.00000000000E+00 -0.45593999997E+02  0.45594000000E+02  0.51100000000E-03 0. -1.
    9900012    2    1    2    0    0  0.34933828298E+02 -0.25507426097E+02  0.35527100941E+01  0.47787275413E+02  0.20000019918E+02 0.  0.
         12    1    1    2    0    0 -0.34933828298E+02  0.25507426097E+02 -0.35527100941E+01  0.43400724587E+02  0.00000000000E+00 0. -1.
         11    1    3    3    0    0  0.10000546079E+02 -0.21046459550E+01 -0.12161286435E+01  0.10291716359E+02  0.51100000000E-03 0. -1.
        -11    1    3    3    0    0  0.20568350703E+02 -0.23548169789E+02  0.32925151903E+00  0.31267902998E+02  0.51100000000E-03 0.  1.
        -12    1    3    3    0    0  0.43649315152E+01  0.14538964623E+00  0.44395872186E+01  0.62276560561E+01  0.00000000000E+00 0.  1.
</event>
<event>
 7    1  0.2812635E-010  0.4778727E+02  0.7816164E-02  0.1312668E+00
        -11   -1    0    0    0    0  0.00000000000E+00  0.00000000000E+00  0.45593999997E+02  0.45594000000E+02  0.51100000000E-03 0.  1.
         11   -1    0    0    0    0 -0.00000000000E+00 -0.00000000000E+00 -0.45593999997E+02  0.45594000000E+02  0.51100000000E-03 0. -1.
    9900012    2    1    2    0    0 -0.98507371041E+01 -0.40103654558E+02  0.13352268674E+02  0.47787271790E+02  0.20000003399E+02 0.  0.
         12    1    1    2    0    0  0.98507371041E+01  0.40103654558E+02 -0.13352268674E+02  0.43400728210E+02  0.00000000000E+00 0. -1.
         11    1    3    3    0    0  0.36454258197E+00 -0.13177503956E+02 -0.74514910322E+00  0.13203588499E+02  0.51100000000E-03 0. -1.
        -11    1    3    3    0    0 -0.77773086360E+01 -0.21024290168E+02  0.16421838132E+02  0.27788200276E+02  0.51100000000E-03 0.  1.
        -12    1    3    3    0    0 -0.24379710500E+01 -0.59018604341E+01 -0.23244203542E+01  0.67954830150E+01  0.00000000000E+00 0.  1.
</event>
<event>
 7    1  0.2812635E-010  0.4778728E+02  0.7816164E-02  0.1312668E+00
        -11   -1    0    0    0    0  0.00000000000E+00  0.00000000000E+00  0.45593999997E+02  0.45594000000E+02  0.51100000000E-03 0.  1.
         11   -1    0    0    0    0 -0.00000000000E+00 -0.00000000000E+00 -0.45593999997E+02  0.45594000000E+02  0.51100000000E-03 0. -1.
    9900012    2    1    2    0    0  0.29519793582E+02 -0.29877965177E+02  0.10932121307E+02  0.47787282351E+02  0.20000051550E+02 0.  0.
         12    1    1    2    0    0 -0.29519793582E+02  0.29877965177E+02 -0.10932121307E+02  0.43400717649E+02  0.00000000000E+00 0. -1.
         11    1    3    3    0    0  0.51287060822E+01 -0.69193512464E+01 -0.46796620789E+01  0.98020551510E+01  0.51100000000E-03 0. -1.
        -11    1    3    3    0    0  0.16570943122E+02 -0.99295690886E+01  0.71978067782E+01  0.20615550464E+02  0.51100000000E-03 0.  1.
         12    1    3    3    0    0  0.78201443775E+01 -0.13029044842E+02  0.84139766074E+01  0.17369676736E+02  0.00000000000E+00 0. -1.
</event>
<event>
 7    1  0.2812635E-010  0.4778727E+02  0.7816164E-02  0.1312668E+00
        -11   -1    0    0    0    0  0.00000000000E+00  0.00000000000E+00  0.45593999997E+02  0.45594000000E+02  0.51100000000E-03 0.  1.
         11   -1    0    0    0    0 -0.00000000000E+00 -0.00000000000E+00 -0.45593999997E+02  0.45594000000E+02  0.51100000000E-03 0. -1.
    9900012    2    1    2    0    0  0.24253754279E+02  0.24389057190E+02  0.26467954498E+02  0.47787270484E+02  0.19999997444E+02 0.  0.
         12    1    1    2    0    0 -0.24253754279E+02 -0.24389057190E+02 -0.26467954498E+02  0.43400729516E+02  0.00000000000E+00 0. -1.
         11    1    3    3    0    0  0.12462566366E+02  0.10930494274E+01  0.63716883317E+01  0.14039541657E+02  0.51100000000E-03 0. -1.
        -11    1    3    3    0    0  0.55144620689E+01  0.50002935618E+01  0.33492017230E+01  0.81626821607E+01  0.51100000000E-03 0.  1.
         12    1    3    3    0    0  0.62767258437E+01  0.18295714200E+02  0.16747064444E+02  0.25585046666E+02  0.00000000000E+00 0. -1.
</event>
<event>
 7    1  0.2812635E-010  0.4778727E+02  0.7816164E-02  0.1312668E+00
        -11   -1    0    0    0    0  0.00000000000E+00  0.00000000000E+00  0.45593999997E+02  0.45594000000E+02  0.51100000000E-03 0.  1.
         11   -1    0    0    0    0 -0.00000000000E+00 -0.00000000000E+00 -0.45593999997E+02  0.45594000000E+02  0.51100000000E-03 0. -1.
    9900012    2    1    2    0    0  0.41581829819E+02  0.10029381217E+02  0.73475382062E+01  0.47787269864E+02  0.19999994616E+02 0.  0.
         12    1    1    2    0    0 -0.41581829819E+02 -0.10029381217E+02 -0.73475382062E+01  0.43400730136E+02  0.00000000000E+00 0. -1.
         11    1    3    3    0    0  0.14944428270E+02  0.38429158508E+01 -0.55173589365E+01  0.16387348426E+02  0.51100000000E-03 0. -1.
        -11    1    3    3    0    0  0.18442947048E+02  0.95040537795E+00  0.11009249975E+02  0.21499980266E+02  0.51100000000E-03 0.  1.
        -12    1    3    3    0    0  0.81944545016E+01  0.52360599883E+01  0.18556471677E+01  0.98999411711E+01  0.00000000000E+00 0.  1.
</event>
<event>
 7    1  0.2812635E-010  0.4778729E+02  0.7816164E-02  0.1312668E+00
        -11   -1    0    0    0    0  0.00000000000E+00  0.00000000000E+00  0.45593999997E+02  0.45594000000E+02  0.51100000000E-03 0. -1.
         11   -1    0    0    0    0 -0.00000000000E+00 -0.00000000000E+00 -0.45593999997E+02  0.45594000000E+02  0.51100000000E-03 0.  1.
    9900012    2    1    2    0    0 -0.38036713249E+02 -0.46598244939E+01 -0.20374403562E+02  0.47787287568E+02  0.20000075337E+02 0.  0.
         12    1    1    2    0    0  0.38036713249E+02  0.46598244939E+01  0.20374403562E+02  0.43400712432E+02  0.00000000000E+00 0. -1.
         11    1    3    3    0    0 -0.14028951282E+02  0.21640080639E+01 -0.49412656138E+01  0.15030319727E+02  0.51100000000E-03 0. -1.
        -11    1    3    3    0    0  0.16402866379E+01  0.10148957163E-01  0.60103267185E+00  0.17469641638E+01  0.51100000000E-03 0.  1.
        -12    1    3    3    0    0 -0.25648048605E+02 -0.68339815149E+01 -0.16034170620E+02  0.31010003677E+02  0.00000000000E+00 0.  1.
</event>
<event>
 7    1  0.2812635E-010  0.4778727E+02  0.7816164E-02  0.1312668E+00
        -11   -1    0    0    0    0  0.00000000000E+00  0.00000000000E+00  0.45593999997E+02  0.45594000000E+02  0.51100000000E-03 0. -1.
         11   -1    0    0    0    0 -0.00000000000E+00 -0.00000000000E+00 -0.45593999997E+02  0.45594000000E+02  0.51100000000E-03 0.  1.
    9900012    2    1    2    0    0  0.33157275940E+02 -0.25840873967E+02  0.10792025790E+02  0.47787268027E+02  0.19999986242E+02 0.  0.
         12    1    1    2    0    0 -0.33157275940E+02  0.25840873967E+02 -0.10792025790E+02  0.43400731973E+02  0.00000000000E+00 0. -1.
         11    1    3    3    0    0  0.10072184530E+01 -0.63774618395E+01 -0.37392990532E+01  0.74611571621E+01  0.51100000000E-03 0. -1.
        -11    1    3    3    0    0  0.23028076343E+02 -0.13367660423E+02  0.97070325814E+01  0.28341014926E+02  0.51100000000E-03 0.  1.
        -12    1    3    3    0    0  0.91219811446E+01 -0.60957517047E+01  0.48242922615E+01  0.11985095939E+02  0.00000000000E+00 0.  1.
</event>
<event>
 7    1  0.2812635E-010  0.4778727E+02  0.7816164E-02  0.1312668E+00
        -11   -1    0    0    0    0  0.00000000000E+00  0.00000000000E+00  0.45593999997E+02  0.45594000000E+02  0.51100000000E-03 0.  1.
         11   -1    0    0    0    0 -0.00000000000E+00 -0.00000000000E+00 -0.45593999997E+02  0.45594000000E+02  0.51100000000E-03 0. -1.
    9900012    2    1    2    0    0  0.25158134332E+02  0.33438394324E+02  0.11513703718E+02  0.47787270613E+02  0.19999998032E+02 0.  0.
         12    1    1    2    0    0 -0.25158134332E+02 -0.33438394324E+02 -0.11513703718E+02  0.43400729387E+02  0.00000000000E+00 0. -1.
         11    1    3    3    0    0  0.91480333084E+01  0.75897820422E+01  0.11014438828E+02  0.16205220388E+02  0.51100000000E-03 0. -1.
        -11    1    3    3    0    0  0.36597621482E+01  0.11634539386E+01 -0.89996819818E+00  0.39442904390E+01  0.51100000000E-03 0.  1.
         12    1    3    3    0    0  0.12350338875E+02  0.24685158343E+02  0.13992330882E+01  0.27637759786E+02  0.00000000000E+00 0. -1.
</event>
<event>
 7    1  0.2812635E-010  0.4778727E+02  0.7816164E-02  0.1312668E+00
        -11   -1    0    0    0    0  0.00000000000E+00  0.00000000000E+00  0.45593999997E+02  0.45594000000E+02  0.51100000000E-03 0. -1.
         11   -1    0    0    0    0 -0.00000000000E+00 -0.00000000000E+00 -0.45593999997E+02  0.45594000000E+02  0.51100000000E-03 0.  1.
    9900012    2    1    2    0    0  0.34850006565E+02 -0.58209598227E+01 -0.25203506249E+02  0.47787271226E+02  0.20000000830E+02 0.  0.
         12    1    1    2    0    0 -0.34850006565E+02  0.58209598227E+01  0.25203506249E+02  0.43400728774E+02  0.00000000000E+00 0. -1.
         11    1    3    3    0    0  0.15868790007E+02 -0.41546269784E+01 -0.60930279887E+00  0.16414952689E+02  0.51100000000E-03 0. -1.
        -11    1    3    3    0    0  0.82878992690E+01 -0.23210967342E+01 -0.12952014698E+02  0.15550930819E+02  0.51100000000E-03 0.  1.
         12    1    3    3    0    0  0.10693317289E+02  0.65476388984E+00 -0.11642188753E+02  0.15821387718E+02  0.00000000000E+00 0. -1.
</event>
<event>
 7    1  0.2812635E-010  0.4778725E+02  0.7816164E-02  0.1312668E+00
        -11   -1    0    0    0    0  0.00000000000E+00  0.00000000000E+00  0.45593999997E+02  0.45594000000E+02  0.51100000000E-03 0. -1.
         11   -1    0    0    0    0 -0.00000000000E+00 -0.00000000000E+00 -0.45593999997E+02  0.45594000000E+02  0.51100000000E-03 0.  1.
    9900012    2    1    2    0    0  0.21329885516E+02 -0.24768425075E+02 -0.28551459723E+02  0.47787254049E+02  0.19999922511E+02 0.  0.
         12    1    1    2    0    0 -0.21329885516E+02  0.24768425075E+02  0.28551459723E+02  0.43400745951E+02  0.00000000000E+00 0. -1.
         11    1    3    3    0    0  0.19086226561E+02 -0.83530578584E+01 -0.12620664800E+02  0.24358546758E+02  0.51100000000E-03 0. -1.
        -11    1    3    3    0    0 -0.72317658774E+00 -0.99276357354E+01 -0.10454033393E+02  0.14434948913E+02  0.51100000000E-03 0.  1.
         12    1    3    3    0    0  0.29668355428E+01 -0.64877314813E+01 -0.54767615303E+01  0.89937583785E+01  0.00000000000E+00 0. -1.
</event>
<event>
 7    1  0.2812635E-010  0.4778727E+02  0.7816164E-02  0.1312668E+00
        -11   -1    0    0    0    0  0.00000000000E+00  0.00000000000E+00  0.45593999997E+02  0.45594000000E+02  0.51100000000E-03 0. -1.
         11   -1    0    0    0    0 -0.00000000000E+00 -0.00000000000E+00 -0.45593999997E+02  0.45594000000E+02  0.51100000000E-03 0.  1.
    9900012    2    1    2    0    0 -0.16785251389E+01 -0.41091851598E+02  0.13865982251E+02  0.47787272147E+02  0.20000005026E+02 0.  0.
         12    1    1    2    0    0  0.16785251389E+01  0.41091851598E+02 -0.13865982251E+02  0.43400727853E+02  0.00000000000E+00 0. -1.
         11    1    3    3    0    0  0.37718167322E+00 -0.70049139269E+01 -0.46187133980E+01  0.83990236844E+01  0.51100000000E-03 0.  1.
        -11    1    3    3    0    0 -0.11005194746E+00 -0.29081717648E+02  0.17461929477E+02  0.33921636077E+02  0.51100000000E-03 0. -1.
        -12    1    3    3    0    0 -0.19456548646E+01 -0.50052200231E+01  0.10227661721E+01  0.54666123857E+01  0.00000000000E+00 0.  1.
</event>
<event>
 7    1  0.2812635E-010  0.4778727E+02  0.7816164E-02  0.1312668E+00
        -11   -1    0    0    0    0  0.00000000000E+00  0.00000000000E+00  0.45593999997E+02  0.45594000000E+02  0.51100000000E-03 0.  1.
         11   -1    0    0    0    0 -0.00000000000E+00 -0.00000000000E+00 -0.45593999997E+02  0.45594000000E+02  0.51100000000E-03 0. -1.
    9900012    2    1    2    0    0 -0.21579972935E+02 -0.10147496348E+02  0.36262334184E+02  0.47787265047E+02  0.19999972655E+02 0.  0.
         12    1    1    2    0    0  0.21579972935E+02  0.10147496348E+02 -0.36262334184E+02  0.43400734953E+02  0.00000000000E+00 0. -1.
         11    1    3    3    0    0 -0.93734719239E+01  0.28672245866E+00  0.19750791710E+01  0.95835861591E+01  0.51100000000E-03 0. -1.
        -11    1    3    3    0    0 -0.51227116025E+01 -0.35595315667E+01  0.19077344956E+02  0.20071311117E+02  0.51100000000E-03 0.  1.
         12    1    3    3    0    0 -0.70837894084E+01 -0.68746872400E+01  0.15209910057E+02  0.18132367771E+02  0.00000000000E+00 0. -1.
</event>
<event>
 7    1  0.2812635E-010  0.4778727E+02  0.7816164E-02  0.1312668E+00
        -11   -1    0    0    0    0  0.00000000000E+00  0.00000000000E+00  0.45593999997E+02  0.45594000000E+02  0.51100000000E-03 0.  1.
         11   -1    0    0    0    0 -0.00000000000E+00 -0.00000000000E+00 -0.45593999997E+02  0.45594000000E+02  0.51100000000E-03 0. -1.
    9900012    2    1    2    0    0 -0.70416416312E+01  0.13494944964E+02  0.40643879435E+02  0.47787271988E+02  0.20000004303E+02 0.  0.
         12    1    1    2    0    0  0.70416416312E+01 -0.13494944964E+02 -0.40643879435E+02  0.43400728012E+02  0.00000000000E+00 0. -1.
         11    1    3    3    0    0 -0.96845311451E+01  0.14394924172E+02  0.39466241150E+02  0.43111346258E+02  0.51100000000E-03 0. -1.
        -11    1    3    3    0    0  0.29770635692E+01  0.97761066809E-01  0.17735420011E+01  0.34666866331E+01  0.51100000000E-03 0.  1.
         12    1    3    3    0    0 -0.33417405530E+00 -0.99774027504E+00 -0.59590371593E+00  0.12092390973E+01  0.00000000000E+00 0. -1.
</event>
<event>
 7    1  0.2812635E-010  0.4778727E+02  0.7816164E-02  0.1312668E+00
        -11   -1    0    0    0    0  0.00000000000E+00  0.00000000000E+00  0.45593999997E+02  0.45594000000E+02  0.51100000000E-03 0.  1.
         11   -1    0    0    0    0 -0.00000000000E+00 -0.00000000000E+00 -0.45593999997E+02  0.45594000000E+02  0.51100000000E-03 0. -1.
    9900012    2    1    2    0    0 -0.23317953223E+02  0.27953308962E+02  0.23632790749E+02  0.47787271631E+02  0.20000002673E+02 0.  0.
         12    1    1    2    0    0  0.23317953223E+02 -0.27953308962E+02 -0.23632790749E+02  0.43400728369E+02  0.00000000000E+00 0. -1.
         11    1    3    3    0    0 -0.49955888772E+01  0.21894006282E+01 -0.25147496644E+01  0.60061093460E+01  0.51100000000E-03 0. -1.
        -11    1    3    3    0    0 -0.14919168809E+02  0.23407019310E+02  0.25296235696E+02  0.37554889050E+02  0.51100000000E-03 0.  1.
        -12    1    3    3    0    0 -0.34031955363E+01  0.23568890238E+01  0.85130471702E+00  0.42262732342E+01  0.00000000000E+00 0.  1.
</event>
<event>
 7    1  0.2812635E-010  0.4778729E+02  0.7816164E-02  0.1312668E+00
        -11   -1    0    0    0    0  0.00000000000E+00  0.00000000000E+00  0.45593999997E+02  0.45594000000E+02  0.51100000000E-03 0.  1.
         11   -1    0    0    0    0 -0.00000000000E+00 -0.00000000000E+00 -0.45593999997E+02  0.45594000000E+02  0.51100000000E-03 0. -1.
    9900012    2    1    2    0    0 -0.37591490493E+02  0.20271795053E+02 -0.77172398259E+01  0.47787290067E+02  0.20000086733E+02 0.  0.
         12    1    1    2    0    0  0.37591490493E+02 -0.20271795053E+02  0.77172398259E+01  0.43400709933E+02  0.00000000000E+00 0. -1.
         11    1    3    3    0    0 -0.94864203864E+01  0.10716199983E+02 -0.57135944448E+01  0.15410200374E+02  0.51100000000E-03 0. -1.
        -11    1    3    3    0    0 -0.25084735516E+01  0.47047331562E+01 -0.33385925495E+01  0.62907196809E+01  0.51100000000E-03 0.  1.
         12    1    3    3    0    0 -0.25596596555E+02  0.48508619133E+01  0.13349471685E+01  0.26086370012E+02  0.00000000000E+00 0. -1.
</event>
<event>
 7    1  0.2812635E-010  0.4778727E+02  0.7816164E-02  0.1312668E+00
        -11   -1    0    0    0    0  0.00000000000E+00  0.00000000000E+00  0.45593999997E+02  0.45594000000E+02  0.51100000000E-03 0.  1.
         11   -1    0    0    0    0 -0.00000000000E+00 -0.00000000000E+00 -0.45593999997E+02  0.45594000000E+02  0.51100000000E-03 0. -1.
    9900012    2    1    2    0    0  0.25348022761E+01 -0.17299823540E+02  0.39722964649E+02  0.47787273766E+02  0.20000012409E+02 0.  0.
         12    1    1    2    0    0 -0.25348022761E+01  0.17299823540E+02 -0.39722964649E+02  0.43400726234E+02  0.00000000000E+00 0. -1.
         11    1    3    3    0    0  0.43660467094E-01 -0.12986316705E+02  0.11419696195E+02  0.17293229578E+02  0.51100000000E-03 0. -1.
        -11    1    3    3    0    0  0.48885569887E+01 -0.30144203756E+01  0.26742366358E+02  0.27352127491E+02  0.51100000000E-03 0.  1.
        -12    1    3    3    0    0 -0.23974151797E+01 -0.12990864591E+01  0.15609020968E+01  0.31419166965E+01  0.00000000000E+00 0.  1.
</event>
<event>
 7    1  0.2812635E-010  0.4778721E+02  0.7816164E-02  0.1312668E+00
        -11   -1    0    0    0    0  0.00000000000E+00  0.00000000000E+00  0.45593999997E+02  0.45594000000E+02  0.51100000000E-03 0.  1.
         11   -1    0    0    0    0 -0.00000000000E+00 -0.00000000000E+00 -0.45593999997E+02  0.45594000000E+02  0.51100000000E-03 0. -1.
    9900012    2    1    2    0    0  0.14640050938E+02 -0.57337807694E+01  0.40452699064E+02  0.47787214351E+02  0.19999741509E+02 0.  0.
         12    1    1    2    0    0 -0.14640050938E+02  0.57337807694E+01 -0.40452699064E+02  0.43400785649E+02  0.00000000000E+00 0. -1.
         11    1    3    3    0    0  0.10661768974E+02 -0.77309493649E+01  0.25070152767E+02  0.28318782738E+02  0.51100000000E-03 0. -1.
        -11    1    3    3    0    0  0.72535546787E+01  0.37848630406E+01  0.10032166448E+02  0.12945408747E+02  0.51100000000E-03 0.  1.
         12    1    3    3    0    0 -0.32752727146E+01 -0.17876944451E+01  0.53503798494E+01  0.65230228665E+01  0.00000000000E+00 0. -1.
</event>
<event>
 7    1  0.2812635E-010  0.4778727E+02  0.7816164E-02  0.1312668E+00
        -11   -1    0    0    0    0  0.00000000000E+00  0.00000000000E+00  0.45593999997E+02  0.45594000000E+02  0.51100000000E-03 0.  1.
         11   -1    0    0    0    0 -0.00000000000E+00 -0.00000000000E+00 -0.45593999997E+02  0.45594000000E+02  0.51100000000E-03 0. -1.
    9900012    2    1    2    0    0  0.14229712079E+02 -0.12663651741E+02  0.38997062209E+02  0.47787266801E+02  0.19999980654E+02 0.  0.
         12    1    1    2    0    0 -0.14229712079E+02  0.12663651741E+02 -0.38997062209E+02  0.43400733199E+02  0.00000000000E+00 0. -1.
         11    1    3    3    0    0 -0.47286542295E+00  0.13888982755E+01  0.13782064572E+02  0.13859940269E+02  0.51100000000E-03 0. -1.
        -11    1    3    3    0    0  0.81946076339E+01 -0.11998127429E+02  0.22045120939E+02  0.26402538014E+02  0.51100000000E-03 0.  1.
        -12    1    3    3    0    0  0.65079698682E+01 -0.20544225871E+01  0.31698766970E+01  0.75247885184E+01  0.00000000000E+00 0.  1.
</event>
<event>
 7    1  0.2812635E-010  0.4778725E+02  0.7816164E-02  0.1312668E+00
        -11   -1    0    0    0    0  0.00000000000E+00  0.00000000000E+00  0.45593999997E+02  0.45594000000E+02  0.51100000000E-03 0.  1.
         11   -1    0    0    0    0 -0.00000000000E+00 -0.00000000000E+00 -0.45593999997E+02  0.45594000000E+02  0.51100000000E-03 0. -1.
    9900012    2    1    2    0    0 -0.35930250012E+02  0.12559388247E+02  0.20854342616E+02  0.47787254557E+02  0.19999924827E+02 0.  0.
         12    1    1    2    0    0  0.35930250012E+02 -0.12559388247E+02 -0.20854342616E+02  0.43400745443E+02  0.00000000000E+00 0. -1.
         11    1    3    3    0    0 -0.84348153527E+01  0.10690038981E+02  0.48080596351E+01  0.14440930758E+02  0.51100000000E-03 0. -1.
        -11    1    3    3    0    0 -0.88129660820E+01 -0.34091809509E+01  0.78037062788E+01  0.12255150667E+02  0.51100000000E-03 0.  1.
         12    1    3    3    0    0 -0.18682468577E+02  0.52785302171E+01  0.82425767024E+01  0.21091173132E+02  0.00000000000E+00 0. -1.
</event>
<event>
 7    1  0.2812635E-010  0.4778727E+02  0.7816164E-02  0.1312668E+00
        -11   -1    0    0    0    0  0.00000000000E+00  0.00000000000E+00  0.45593999997E+02  0.45594000000E+02  0.51100000000E-03 0.  1.
         11   -1    0    0    0    0 -0.00000000000E+00 -0.00000000000E+00 -0.45593999997E+02  0.45594000000E+02  0.51100000000E-03 0. -1.
    9900012    2    1    2    0    0  0.32928539186E+02  0.23829114601E+02  0.15215388710E+02  0.47787269025E+02  0.19999990790E+02 0.  0.
         12    1    1    2    0    0 -0.32928539186E+02 -0.23829114601E+02 -0.15215388710E+02  0.43400730975E+02  0.00000000000E+00 0. -1.
         11    1    3    3    0    0  0.17931652169E+02  0.76389911009E+01  0.11768322394E+02  0.22768217910E+02  0.51100000000E-03 0. -1.
        -11    1    3    3    0    0  0.63656669265E+01  0.10304434717E+02 -0.33360463906E+01  0.12563132413E+02  0.51100000000E-03 0.  1.
        -12    1    3    3    0    0  0.86312200903E+01  0.58856887836E+01  0.67831127068E+01  0.12455918701E+02  0.00000000000E+00 0.  1.
</event>
<event>
 7    1  0.2812635E-010  0.4778727E+02  0.7816164E-02  0.1312668E+00
        -11   -1    0    0    0    0  0.00000000000E+00  0.00000000000E+00  0.45593999997E+02  0.45594000000E+02  0.51100000000E-03 0. -1.
         11   -1    0    0    0    0 -0.00000000000E+00 -0.00000000000E+00 -0.45593999997E+02  0.45594000000E+02  0.51100000000E-03 0.  1.
    9900012    2    1    2    0    0  0.37200306505E+02  0.28354979824E+01 -0.22174771279E+02  0.47787270350E+02  0.19999996835E+02 0.  0.
         12    1    1    2    0    0 -0.37200306505E+02 -0.28354979824E+01  0.22174771279E+02  0.43400729650E+02  0.00000000000E+00 0. -1.
         11    1    3    3    0    0  0.22864384853E+02 -0.30914156116E+01 -0.44041556823E+01  0.23489008764E+02  0.51100000000E-03 0. -1.
        -11    1    3    3    0    0  0.99857174426E+01  0.49988750773E+01 -0.15997987211E+02  0.19509969245E+02  0.51100000000E-03 0.  1.
        -12    1    3    3    0    0  0.43502042091E+01  0.92803851674E+00 -0.17726283863E+01  0.47882923413E+01  0.00000000000E+00 0.  1.
</event>
<event>
 7    1  0.2812635E-010  0.4778732E+02  0.7816164E-02  0.1312668E+00
        -11   -1    0    0    0    0  0.00000000000E+00  0.00000000000E+00  0.45593999997E+02  0.45594000000E+02  0.51100000000E-03 0. -1.
         11   -1    0    0    0    0 -0.00000000000E+00 -0.00000000000E+00 -0.45593999997E+02  0.45594000000E+02  0.51100000000E-03 0.  1.
    9900012    2    1    2    0    0 -0.89051329331E+01 -0.41339911625E+02 -0.97636730914E+01  0.47787320306E+02  0.20000224601E+02 0.  0.
         12    1    1    2    0    0  0.89051329331E+01  0.41339911625E+02  0.97636730914E+01  0.43400679694E+02  0.00000000000E+00 0. -1.
         11    1    3    3    0    0  0.37466256120E+01 -0.75917967235E+01  0.13114991631E+01  0.85669487732E+01  0.51100000000E-03 0. -1.
        -11    1    3    3    0    0 -0.13042433490E+02 -0.23436522850E+02 -0.10752824892E+02  0.28896347832E+02  0.51100000000E-03 0.  1.
        -12    1    3    3    0    0  0.39067494478E+00 -0.10311592051E+02 -0.32234736281E+00  0.10324023700E+02  0.00000000000E+00 0.  1.
</event>
<event>
 7    1  0.2812635E-010  0.4778727E+02  0.7816164E-02  0.1312668E+00
        -11   -1    0    0    0    0  0.00000000000E+00  0.00000000000E+00  0.45593999997E+02  0.45594000000E+02  0.51100000000E-03 0.  1.
         11   -1    0    0    0    0 -0.00000000000E+00 -0.00000000000E+00 -0.45593999997E+02  0.45594000000E+02  0.51100000000E-03 0. -1.
    9900012    2    1    2    0    0 -0.31171848501E+02  0.25430109281E+02  0.16286454617E+02  0.47787271884E+02  0.20000003828E+02 0.  0.
         12    1    1    2    0    0  0.31171848501E+02 -0.25430109281E+02 -0.16286454617E+02  0.43400728116E+02  0.00000000000E+00 0. -1.
         11    1    3    3    0    0 -0.81958740081E+01 -0.11014221338E+01 -0.58844383124E+00  0.82904612584E+01  0.51100000000E-03 0. -1.
        -11    1    3    3    0    0 -0.20991688496E+02  0.25616354582E+02  0.17147728837E+02  0.37294680754E+02  0.51100000000E-03 0.  1.
        -12    1    3    3    0    0 -0.19842859967E+01  0.91517683272E+00 -0.27283038887E+00  0.22021298720E+01  0.00000000000E+00 0.  1.
</event>
<event>
 7    1  0.2812635E-010  0.4778727E+02  0.7816164E-02  0.1312668E+00
        -11   -1    0    0    0    0  0.00000000000E+00  0.00000000000E+00  0.45593999997E+02  0.45594000000E+02  0.51100000000E-03 0.  1.
         11   -1    0    0    0    0 -0.00000000000E+00 -0.00000000000E+00 -0.45593999997E+02  0.45594000000E+02  0.51100000000E-03 0. -1.
    9900012    2    1    2    0    0  0.23881871685E+02  0.44529505864E+01  0.35964573946E+02  0.47787272549E+02  0.20000006861E+02 0.  0.
         12    1    1    2    0    0 -0.23881871685E+02 -0.44529505864E+01 -0.35964573946E+02  0.43400727451E+02  0.00000000000E+00 0. -1.
         11    1    3    3    0    0  0.17024388339E+01  0.24342189097E+01  0.85930731171E+00  0.30922692316E+01  0.51100000000E-03 0. -1.
        -11    1    3    3    0    0  0.38977427850E+01 -0.61745278819E+01  0.65246008908E+01  0.97922219352E+01  0.51100000000E-03 0.  1.
        -12    1    3    3    0    0  0.18281690066E+02  0.81932595585E+01  0.28580665744E+02  0.34902781382E+02  0.00000000000E+00 0.  1.
</event>
<event>
 7    1  0.2812635E-010  0.4778728E+02  0.7816164E-02  0.1312668E+00
        -11   -1    0    0    0    0  0.00000000000E+00  0.00000000000E+00  0.45593999997E+02  0.45594000000E+02  0.51100000000E-03 0. -1.
         11   -1    0    0    0    0 -0.00000000000E+00 -0.00000000000E+00 -0.45593999997E+02  0.45594000000E+02  0.51100000000E-03 0.  1.
    9900012    2    1    2    0    0 -0.42605446293E+02 -0.59712031180E+01 -0.57221908130E+01  0.47787276639E+02  0.20000025510E+02 0.  0.
         12    1    1    2    0    0  0.42605446293E+02  0.59712031180E+01  0.57221908130E+01  0.43400723361E+02  0.00000000000E+00 0. -1.
         11    1    3    3    0    0 -0.32143312477E+02 -0.96009229682E+01  0.22884442514E+01  0.33624503508E+02  0.51100000000E-03 0. -1.
        -11    1    3    3    0    0 -0.75935593027E+01  0.32784527537E+01 -0.39167236232E+01  0.91515637759E+01  0.51100000000E-03 0.  1.
         12    1    3    3    0    0 -0.28685745138E+01  0.35126709655E+00 -0.40939114412E+01  0.50112093553E+01  0.00000000000E+00 0. -1.
</event>
<event>
 7    1  0.2812635E-010  0.4778727E+02  0.7816164E-02  0.1312668E+00
        -11   -1    0    0    0    0  0.00000000000E+00  0.00000000000E+00  0.45593999997E+02  0.45594000000E+02  0.51100000000E-03 0.  1.
         11   -1    0    0    0    0 -0.00000000000E+00 -0.00000000000E+00 -0.45593999997E+02  0.45594000000E+02  0.51100000000E-03 0. -1.
    9900012    2    1    2    0    0 -0.11452766857E+01 -0.52176942732E+01  0.43070725001E+02  0.47787270233E+02  0.19999996298E+02 0.  0.
         12    1    1    2    0    0  0.11452766857E+01  0.52176942732E+01 -0.43070725001E+02  0.43400729767E+02  0.00000000000E+00 0. -1.
         11    1    3    3    0    0 -0.84621314841E+00 -0.19273833418E+01  0.39494403885E+02  0.39550459185E+02  0.51100000000E-03 0. -1.
        -11    1    3    3    0    0 -0.23012483424E+01 -0.39838691579E+01  0.39757469759E+01  0.60805856361E+01  0.51100000000E-03 0.  1.
         12    1    3    3    0    0  0.20021848051E+01  0.69355822645E+00 -0.39942585986E+00  0.21562254114E+01  0.00000000000E+00 0. -1.
</event>
<event>
 7    1  0.2812635E-010  0.4778727E+02  0.7816164E-02  0.1312668E+00
        -11   -1    0    0    0    0  0.00000000000E+00  0.00000000000E+00  0.45593999997E+02  0.45594000000E+02  0.51100000000E-03 0. -1.
         11   -1    0    0    0    0 -0.00000000000E+00 -0.00000000000E+00 -0.45593999997E+02  0.45594000000E+02  0.51100000000E-03 0.  1.
    9900012    2    1    2    0    0 -0.42952693340E+01  0.37078145666E+02 -0.22144639995E+02  0.47787270683E+02  0.19999998354E+02 0.  0.
         12    1    1    2    0    0  0.42952693340E+01 -0.37078145666E+02  0.22144639995E+02  0.43400729317E+02  0.00000000000E+00 0. -1.
         11    1    3    3    0    0  0.71504113547E+00  0.20276264396E+02 -0.19294208554E+02  0.27998297550E+02  0.51100000000E-03 0. -1.
        -11    1    3    3    0    0 -0.42672671357E+01  0.17127565558E+02 -0.42642387719E+01  0.18158931778E+02  0.51100000000E-03 0.  1.
         12    1    3    3    0    0 -0.74304333370E+00 -0.32568428802E+00  0.14138073311E+01  0.16300413555E+01  0.00000000000E+00 0. -1.
</event>
<event>
 7    1  0.2812635E-010  0.4778727E+02  0.7816164E-02  0.1312668E+00
        -11   -1    0    0    0    0  0.00000000000E+00  0.00000000000E+00  0.45593999997E+02  0.45594000000E+02  0.51100000000E-03 0.  1.
         11   -1    0    0    0    0 -0.00000000000E+00 -0.00000000000E+00 -0.45593999997E+02  0.45594000000E+02  0.51100000000E-03 0. -1.
    9900012    2    1    2    0    0 -0.93469863693E+01 -0.40714508431E+02 -0.11772257269E+02  0.47787269681E+02  0.19999993785E+02 0.  0.
         12    1    1    2    0    0  0.93469863693E+01  0.40714508431E+02  0.11772257269E+02  0.43400730319E+02  0.00000000000E+00 0. -1.
         11    1    3    3    0    0 -0.18592601717E+01 -0.39958007743E+01  0.48992094031E+01  0.65898046444E+01  0.51100000000E-03 0. -1.
        -11    1    3    3    0    0 -0.53900685331E+01 -0.28416827393E+02 -0.11092725669E+02  0.30977693280E+02  0.51100000000E-03 0.  1.
         12    1    3    3    0    0 -0.20976576645E+01 -0.83018802636E+01 -0.55787410034E+01  0.10219771757E+02  0.00000000000E+00 0. -1.
</event>
<event>
 7    1  0.2812635E-010  0.4778727E+02  0.7816164E-02  0.1312668E+00
        -11   -1    0    0    0    0  0.00000000000E+00  0.00000000000E+00  0.45593999997E+02  0.45594000000E+02  0.51100000000E-03 0.  1.
         11   -1    0    0    0    0 -0.00000000000E+00 -0.00000000000E+00 -0.45593999997E+02  0.45594000000E+02  0.51100000000E-03 0. -1.
    9900012    2    1    2    0    0  0.39249308853E+01  0.31702252136E+02  0.29380020469E+02  0.47787268719E+02  0.19999989397E+02 0.  0.
         12    1    1    2    0    0 -0.39249308853E+01 -0.31702252136E+02 -0.29380020469E+02  0.43400731281E+02  0.00000000000E+00 0. -1.
         11    1    3    3    0    0  0.63989213711E+01  0.14707944370E+02  0.64664154830E+01  0.17294055388E+02  0.51100000000E-03 0. -1.
        -11    1    3    3    0    0 -0.16719425471E+01  0.12183176890E+02  0.22445253178E+02  0.25593252656E+02  0.51100000000E-03 0.  1.
         12    1    3    3    0    0 -0.80204793871E+00  0.48111308755E+01  0.46835180801E+00  0.48999606747E+01  0.00000000000E+00 0. -1.
</event>
<event>
 7    1  0.2812635E-010  0.4778727E+02  0.7816164E-02  0.1312668E+00
        -11   -1    0    0    0    0  0.00000000000E+00  0.00000000000E+00  0.45593999997E+02  0.45594000000E+02  0.51100000000E-03 0.  1.
         11   -1    0    0    0    0 -0.00000000000E+00 -0.00000000000E+00 -0.45593999997E+02  0.45594000000E+02  0.51100000000E-03 0. -1.
    9900012    2    1    2    0    0 -0.29785672418E+02 -0.29356404977E+02  0.11603375150E+02  0.47787272938E+02  0.20000008635E+02 0.  0.
         12    1    1    2    0    0  0.29785672418E+02  0.29356404977E+02 -0.11603375150E+02  0.43400727062E+02  0.00000000000E+00 0. -1.
         11    1    3    3    0    0  0.19186374592E+01 -0.35664399820E+01  0.70195979702E+00  0.41101595666E+01  0.51100000000E-03 0. -1.
        -11    1    3    3    0    0 -0.19195764934E+02 -0.99829282394E+01  0.89877264701E+01  0.23428945239E+02  0.51100000000E-03 0.  1.
        -12    1    3    3    0    0 -0.12508544943E+02 -0.15807036756E+02  0.19136888828E+01  0.20248168133E+02  0.00000000000E+00 0.  1.
</event>
<event>
 7    1  0.2812635E-010  0.4778727E+02  0.7816164E-02  0.1312668E+00
        -11   -1    0    0    0    0  0.00000000000E+00  0.00000000000E+00  0.45593999997E+02  0.45594000000E+02  0.51100000000E-03 0.  1.
         11   -1    0    0    0    0 -0.00000000000E+00 -0.00000000000E+00 -0.45593999997E+02  0.45594000000E+02  0.51100000000E-03 0. -1.
    9900012    2    1    2    0    0 -0.17240195913E+02  0.44692216382E+01  0.39578088620E+02  0.47787269638E+02  0.19999993586E+02 0.  0.
         12    1    1    2    0    0  0.17240195913E+02 -0.44692216382E+01 -0.39578088620E+02  0.43400730362E+02  0.00000000000E+00 0. -1.
         11    1    3    3    0    0 -0.10391438923E+02  0.37977144686E+01  0.11042427987E+02  0.15631374034E+02  0.51100000000E-03 0. -1.
        -11    1    3    3    0    0  0.21590073475E+01  0.31536411020E+01  0.16403365862E+02  0.16842718806E+02  0.51100000000E-03 0.  1.
        -12    1    3    3    0    0 -0.90077643379E+01 -0.24821339324E+01  0.12132294771E+02  0.15313176798E+02  0.00000000000E+00 0.  1.
</event>
<event>
 7    1  0.2812635E-010  0.4778727E+02  0.7816164E-02  0.1312668E+00
        -11   -1    0    0    0    0  0.00000000000E+00  0.00000000000E+00  0.45593999997E+02  0.45594000000E+02  0.51100000000E-03 0.  1.
         11   -1    0    0    0    0 -0.00000000000E+00 -0.00000000000E+00 -0.45593999997E+02  0.45594000000E+02  0.51100000000E-03 0. -1.
    9900012    2    1    2    0    0 -0.26222825086E+02 -0.28036714414E+02  0.20246716364E+02  0.47787269198E+02  0.19999991583E+02 0.  0.
         12    1    1    2    0    0  0.26222825086E+02  0.28036714414E+02 -0.20246716364E+02  0.43400730802E+02  0.00000000000E+00 0. -1.
         11    1    3    3    0    0 -0.49647150703E+01 -0.12451084687E+02  0.11630370936E+02  0.17746645711E+02  0.51100000000E-03 0. -1.
        -11    1    3    3    0    0 -0.19027832156E+02 -0.76072150677E+01  0.62958987364E+01  0.21437501226E+02  0.51100000000E-03 0.  1.
        -12    1    3    3    0    0 -0.22302778594E+01 -0.79784146589E+01  0.23204466914E+01  0.86031222616E+01  0.00000000000E+00 0.  1.
</event>
<event>
 7    1  0.2812635E-010  0.4778727E+02  0.7816164E-02  0.1312668E+00
        -11   -1    0    0    0    0  0.00000000000E+00  0.00000000000E+00  0.45593999997E+02  0.45594000000E+02  0.51100000000E-03 0.  1.
         11   -1    0    0    0    0 -0.00000000000E+00 -0.00000000000E+00 -0.45593999997E+02  0.45594000000E+02  0.51100000000E-03 0. -1.
    9900012    2    1    2    0    0  0.82104853631E+01  0.25147341362E+02  0.34406724596E+02  0.47787267922E+02  0.19999985763E+02 0.  0.
         12    1    1    2    0    0 -0.82104853631E+01 -0.25147341362E+02 -0.34406724596E+02  0.43400732078E+02  0.00000000000E+00 0. -1.
         11    1    3    3    0    0  0.33115933324E+00  0.87107267268E+01  0.26278137573E+02  0.27686222949E+02  0.51100000000E-03 0. -1.
        -11    1    3    3    0    0  0.54644768396E+01  0.13521906346E+02  0.61240364338E+01  0.15817910129E+02  0.51100000000E-03 0.  1.
         12    1    3    3    0    0  0.24148491903E+01  0.29147082891E+01  0.20045505896E+01  0.42831348436E+01  0.00000000000E+00 0. -1.
</event>
<event>
 7    1  0.2812635E-010  0.4778727E+02  0.7816164E-02  0.1312668E+00
        -11   -1    0    0    0    0  0.00000000000E+00  0.00000000000E+00  0.45593999997E+02  0.45594000000E+02  0.51100000000E-03 0. -1.
         11   -1    0    0    0    0 -0.00000000000E+00 -0.00000000000E+00 -0.45593999997E+02  0.45594000000E+02  0.51100000000E-03 0.  1.
    9900012    2    1    2    0    0 -0.60959657136E+01 -0.70885242814E+01 -0.42381780355E+02  0.47787270967E+02  0.19999999649E+02 0.  0.
         12    1    1    2    0    0  0.60959657136E+01  0.70885242814E+01  0.42381780355E+02  0.43400729033E+02  0.00000000000E+00 0. -1.
         11    1    3    3    0    0 -0.11348412588E+02 -0.39111026427E+00 -0.32650695735E+02  0.34568878601E+02  0.51100000000E-03 0. -1.
        -11    1    3    3    0    0  0.34703228998E+01 -0.35798507900E+01 -0.74490820445E+01  0.89636653370E+01  0.51100000000E-03 0.  1.
         12    1    3    3    0    0  0.17821239749E+01 -0.31175632271E+01 -0.22820025760E+01  0.42547270293E+01  0.00000000000E+00 0. -1.
</event>
<event>
 7    1  0.2812635E-010  0.4778727E+02  0.7816164E-02  0.1312668E+00
        -11   -1    0    0    0    0  0.00000000000E+00  0.00000000000E+00  0.45593999997E+02  0.45594000000E+02  0.51100000000E-03 0. -1.
         11   -1    0    0    0    0 -0.00000000000E+00 -0.00000000000E+00 -0.45593999997E+02  0.45594000000E+02  0.51100000000E-03 0.  1.
    9900012    2    1    2    0    0 -0.35063838734E+02 -0.24283159735E+02  0.80298687447E+01  0.47787269297E+02  0.19999992031E+02 0.  0.
         12    1    1    2    0    0  0.35063838734E+02  0.24283159735E+02 -0.80298687447E+01  0.43400730703E+02  0.00000000000E+00 0. -1.
         11    1    3    3    0    0 -0.20163558036E+02 -0.10555731377E+02  0.12011968285E+02  0.25734799784E+02  0.51100000000E-03 0. -1.
        -11    1    3    3    0    0 -0.13094247154E+02 -0.14134905856E+02 -0.20503582238E+01  0.19376760338E+02  0.51100000000E-03 0.  1.
        -12    1    3    3    0    0 -0.18060335444E+01  0.40747749828E+00 -0.19317413162E+01  0.26757091748E+01  0.00000000000E+00 0.  1.
</event>
<event>
 7    1  0.2812635E-010  0.4778727E+02  0.7816164E-02  0.1312668E+00
        -11   -1    0    0    0    0  0.00000000000E+00  0.00000000000E+00  0.45593999997E+02  0.45594000000E+02  0.51100000000E-03 0.  1.
         11   -1    0    0    0    0 -0.00000000000E+00 -0.00000000000E+00 -0.45593999997E+02  0.45594000000E+02  0.51100000000E-03 0. -1.
    9900012    2    1    2    0    0  0.31121528665E+02  0.25477132566E+02  0.16309181740E+02  0.47787271443E+02  0.20000001819E+02 0.  0.
         12    1    1    2    0    0 -0.31121528665E+02 -0.25477132566E+02 -0.16309181740E+02  0.43400728557E+02  0.00000000000E+00 0. -1.
         11    1    3    3    0    0 -0.16088894341E+01  0.51067525149E+01  0.11717896874E+01  0.54809249030E+01  0.51100000000E-03 0.  1.
        -11    1    3    3    0    0  0.18883228587E+01  0.45437648444E+00 -0.10210848386E+01  0.21942733916E+01  0.51100000000E-03 0. -1.
         12    1    3    3    0    0  0.30842095240E+02  0.19916003567E+02  0.16158476891E+02  0.40112073149E+02  0.00000000000E+00 0. -1.
</event>
<event>
 7    1  0.2812635E-010  0.4778727E+02  0.7816164E-02  0.1312668E+00
        -11   -1    0    0    0    0  0.00000000000E+00  0.00000000000E+00  0.45593999997E+02  0.45594000000E+02  0.51100000000E-03 0.  1.
         11   -1    0    0    0    0 -0.00000000000E+00 -0.00000000000E+00 -0.45593999997E+02  0.45594000000E+02  0.51100000000E-03 0. -1.
    9900012    2    1    2    0    0  0.13780800636E+02  0.40108086930E+02  0.92224927534E+01  0.47787268717E+02  0.19999989388E+02 0.  0.
         12    1    1    2    0    0 -0.13780800636E+02 -0.40108086930E+02 -0.92224927534E+01  0.43400731283E+02  0.00000000000E+00 0. -1.
         11    1    3    3    0    0  0.40631196335E+01  0.19116215664E+01  0.30250569656E+01  0.54142596978E+01  0.51100000000E-03 0. -1.
        -11    1    3    3    0    0  0.38722542778E+01  0.35074682495E+02  0.53945627087E+01  0.35697745201E+02  0.51100000000E-03 0.  1.
        -12    1    3    3    0    0  0.58454267243E+01  0.31217828683E+01  0.80287307906E+00  0.66752638185E+01  0.00000000000E+00 0.  1.
</event>
<event>
 7    1  0.2812635E-010  0.4778727E+02  0.7816164E-02  0.1312668E+00
        -11   -1    0    0    0    0  0.00000000000E+00  0.00000000000E+00  0.45593999997E+02  0.45594000000E+02  0.51100000000E-03 0.  1.
         11   -1    0    0    0    0 -0.00000000000E+00 -0.00000000000E+00 -0.45593999997E+02  0.45594000000E+02  0.51100000000E-03 0. -1.
    9900012    2    1    2    0    0  0.23548227594E+01 -0.24625260581E+02  0.35660546599E+02  0.47787271519E+02  0.20000002166E+02 0.  0.
         12    1    1    2    0    0 -0.23548227594E+01  0.24625260581E+02 -0.35660546599E+02  0.43400728481E+02  0.00000000000E+00 0. -1.
         11    1    3    3    0    0  0.19799171435E+00 -0.88222433464E+01  0.18422157252E+01  0.90147067297E+01  0.51100000000E-03 0.  1.
        -11    1    3    3    0    0  0.54618644765E+01 -0.14342051387E+02  0.27073915271E+02  0.31121106823E+02  0.51100000000E-03 0. -1.
        -12    1    3    3    0    0 -0.33050334315E+01 -0.14609658479E+01  0.67444156026E+01  0.76514579665E+01  0.00000000000E+00 0.  1.
</event>
<event>
 7    1  0.2812635E-010  0.4778727E+02  0.7816164E-02  0.1312668E+00
        -11   -1    0    0    0    0  0.00000000000E+00  0.00000000000E+00  0.45593999997E+02  0.45594000000E+02  0.51100000000E-03 0. -1.
         11   -1    0    0    0    0 -0.00000000000E+00 -0.00000000000E+00 -0.45593999997E+02  0.45594000000E+02  0.51100000000E-03 0.  1.
    9900012    2    1    2    0    0 -0.37681442551E+02  0.56929775605E+01 -0.20768295703E+02  0.47787271750E+02  0.20000003216E+02 0.  0.
         12    1    1    2    0    0  0.37681442551E+02 -0.56929775605E+01  0.20768295703E+02  0.43400728250E+02  0.00000000000E+00 0. -1.
         11    1    3    3    0    0 -0.69713841415E+01  0.42350023812E+01 -0.13326462842E+02  0.15624661729E+02  0.51100000000E-03 0. -1.
        -11    1    3    3    0    0 -0.21599604773E+02 -0.97907383197E+00 -0.69800511694E+01  0.22720533148E+02  0.51100000000E-03 0.  1.
         12    1    3    3    0    0 -0.91104536361E+01  0.24370490113E+01 -0.46178169217E+00  0.94420768727E+01  0.00000000000E+00 0. -1.
</event>
<event>
 7    1  0.2812635E-010  0.4778727E+02  0.7816164E-02  0.1312668E+00
        -11   -1    0    0    0    0  0.00000000000E+00  0.00000000000E+00  0.45593999997E+02  0.45594000000E+02  0.51100000000E-03 0. -1.
         11   -1    0    0    0    0 -0.00000000000E+00 -0.00000000000E+00 -0.45593999997E+02  0.45594000000E+02  0.51100000000E-03 0.  1.
    9900012    2    1    2    0    0 -0.29878196644E+02 -0.83556726386E+01 -0.30349620506E+02  0.47787269996E+02  0.19999995221E+02 0.  0.
         12    1    1    2    0    0  0.29878196644E+02  0.83556726386E+01  0.30349620506E+02  0.43400730004E+02  0.00000000000E+00 0. -1.
         11    1    3    3    0    0 -0.27267503775E+01  0.82851261575E+00 -0.90636842915E+00  0.29905024270E+01  0.51100000000E-03 0. -1.
        -11    1    3    3    0    0 -0.17527934968E+01  0.10718810255E+01 -0.12327932929E+02  0.12497965616E+02  0.51100000000E-03 0.  1.
        -12    1    3    3    0    0 -0.25398652770E+02 -0.10256066280E+02 -0.17115319149E+02  0.32298801954E+02  0.00000000000E+00 0.  1.
</event>
<event>
 7    1  0.2812635E-010  0.4778726E+02  0.7816164E-02  0.1312668E+00
        -11   -1    0    0    0    0  0.00000000000E+00  0.00000000000E+00  0.45593999997E+02  0.45594000000E+02  0.51100000000E-03 0.  1.
         11   -1    0    0    0    0 -0.00000000000E+00 -0.00000000000E+00 -0.45593999997E+02  0.45594000000E+02  0.51100000000E-03 0. -1.
    9900012    2    1    2    0    0 -0.33738951381E+01 -0.29928533161E+02  0.31249378365E+02  0.47787263672E+02  0.19999966387E+02 0.  0.
         12    1    1    2    0    0  0.33738951381E+01  0.29928533161E+02 -0.31249378365E+02  0.43400736328E+02  0.00000000000E+00 0. -1.
         11    1    3    3    0    0  0.17029067355E+00 -0.28995438292E+01 -0.28908443082E+01  0.40979671065E+01  0.51100000000E-03 0. -1.
        -11    1    3    3    0    0 -0.20313733194E+00 -0.11988058929E+01  0.14723828235E+01  0.19095318234E+01  0.51100000000E-03 0.  1.
         12    1    3    3    0    0 -0.33410484797E+01 -0.25830183439E+02  0.32667839850E+02  0.41779764742E+02  0.00000000000E+00 0. -1.
</event>
<event>
 7    1  0.2812635E-010  0.4778727E+02  0.7816164E-02  0.1312668E+00
        -11   -1    0    0    0    0  0.00000000000E+00  0.00000000000E+00  0.45593999997E+02  0.45594000000E+02  0.51100000000E-03 0. -1.
         11   -1    0    0    0    0 -0.00000000000E+00 -0.00000000000E+00 -0.45593999997E+02  0.45594000000E+02  0.51100000000E-03 0.  1.
    9900012    2    1    2    0    0  0.39790476084E+02  0.17284429893E+02  0.12609257397E+01  0.47787269160E+02  0.19999991410E+02 0.  0.
         12    1    1    2    0    0 -0.39790476084E+02 -0.17284429893E+02 -0.12609257397E+01  0.43400730840E+02  0.00000000000E+00 0. -1.
         11    1    3    3    0    0  0.70936143445E+01  0.10762916273E+02  0.27963103582E+01  0.13190113080E+02  0.51100000000E-03 0. -1.
        -11    1    3    3    0    0  0.15358969097E+02  0.54011279087E+01  0.31931110245E+01  0.16591144406E+02  0.51100000000E-03 0.  1.
         12    1    3    3    0    0  0.17337892642E+02  0.11203857111E+01 -0.47284956430E+01  0.18006011675E+02  0.00000000000E+00 0. -1.
</event>
<event>
 7    1  0.2812635E-010  0.4778727E+02  0.7816164E-02  0.1312668E+00
        -11   -1    0    0    0    0  0.00000000000E+00  0.00000000000E+00  0.45593999997E+02  0.45594000000E+02  0.51100000000E-03 0. -1.
         11   -1    0    0    0    0 -0.00000000000E+00 -0.00000000000E+00 -0.45593999997E+02  0.45594000000E+02  0.51100000000E-03 0.  1.
    9900012    2    1    2    0    0  0.25262696825E+02  0.33220931072E+02  0.11907519305E+02  0.47787272723E+02  0.20000007653E+02 0.  0.
         12    1    1    2    0    0 -0.25262696825E+02 -0.33220931072E+02 -0.11907519305E+02  0.43400727277E+02  0.00000000000E+00 0. -1.
         11    1    3    3    0    0  0.17434562109E+02  0.16479708936E+02  0.10430035179E+02  0.26159709415E+02  0.51100000000E-03 0. -1.
        -11    1    3    3    0    0  0.94577360596E+01  0.77089005763E+01 -0.60375438145E+00  0.12216400414E+02  0.51100000000E-03 0.  1.
         12    1    3    3    0    0 -0.16296013438E+01  0.90323215595E+01  0.20812385075E+01  0.94111628941E+01  0.00000000000E+00 0. -1.
</event>
<event>
 7    1  0.2812635E-010  0.4778727E+02  0.7816164E-02  0.1312668E+00
        -11   -1    0    0    0    0  0.00000000000E+00  0.00000000000E+00  0.45593999997E+02  0.45594000000E+02  0.51100000000E-03 0.  1.
         11   -1    0    0    0    0 -0.00000000000E+00 -0.00000000000E+00 -0.45593999997E+02  0.45594000000E+02  0.51100000000E-03 0. -1.
    9900012    2    1    2    0    0 -0.52225333729E+01 -0.38145335958E+01  0.42916170950E+02  0.47787271315E+02  0.20000001233E+02 0.  0.
         12    1    1    2    0    0  0.52225333729E+01  0.38145335958E+01 -0.42916170950E+02  0.43400728685E+02  0.00000000000E+00 0. -1.
         11    1    3    3    0    0 -0.40333364992E+01 -0.31414462769E+01  0.15913029267E+01  0.53543191250E+01  0.51100000000E-03 0. -1.
        -11    1    3    3    0    0  0.35850879960E+01  0.47123791883E+00  0.84163484536E+01  0.91602315838E+01  0.51100000000E-03 0.  1.
         12    1    3    3    0    0 -0.47742848697E+01 -0.11443252377E+01  0.32908519570E+02  0.33272720606E+02  0.00000000000E+00 0. -1.
</event>
<event>
 7    1  0.2812635E-010  0.4778727E+02  0.7816164E-02  0.1312668E+00
        -11   -1    0    0    0    0  0.00000000000E+00  0.00000000000E+00  0.45593999997E+02  0.45594000000E+02  0.51100000000E-03 0.  1.
         11   -1    0    0    0    0 -0.00000000000E+00 -0.00000000000E+00 -0.45593999997E+02  0.45594000000E+02  0.51100000000E-03 0. -1.
    9900012    2    1    2    0    0 -0.19746962879E+02  0.14491675988E+02  0.35828365228E+02  0.47787274536E+02  0.20000015919E+02 0.  0.
         12    1    1    2    0    0  0.19746962879E+02 -0.14491675988E+02 -0.35828365228E+02  0.43400725464E+02  0.00000000000E+00 0. -1.
         11    1    3    3    0    0 -0.46191332917E+01 -0.35021046440E+00  0.17290378260E+02  0.17900173753E+02  0.51100000000E-03 0. -1.
        -11    1    3    3    0    0 -0.15376506792E+02  0.14549866187E+02  0.14105781770E+02  0.25438330267E+02  0.51100000000E-03 0.  1.
        -12    1    3    3    0    0  0.24867720443E+00  0.29202026551E+00  0.44322051980E+01  0.44487705161E+01  0.00000000000E+00 0.  1.
</event>
<event>
 7    1  0.2812635E-010  0.4778727E+02  0.7816164E-02  0.1312668E+00
        -11   -1    0    0    0    0  0.00000000000E+00  0.00000000000E+00  0.45593999997E+02  0.45594000000E+02  0.51100000000E-03 0. -1.
         11   -1    0    0    0    0 -0.00000000000E+00 -0.00000000000E+00 -0.45593999997E+02  0.45594000000E+02  0.51100000000E-03 0.  1.
    9900012    2    1    2    0    0 -0.11618525668E+01  0.28701053127E+02 -0.32534948153E+02  0.47787271857E+02  0.20000003704E+02 0.  0.
         12    1    1    2    0    0  0.11618525668E+01 -0.28701053127E+02  0.32534948153E+02  0.43400728143E+02  0.00000000000E+00 0. -1.
         11    1    3    3    0    0  0.24238574760E+01  0.33692282267E+01  0.10968092607E+01  0.42929913490E+01  0.51100000000E-03 0. -1.
        -11    1    3    3    0    0 -0.11902094689E+01  0.11633115633E+02 -0.23627922349E+02  0.26363320972E+02  0.51100000000E-03 0.  1.
        -12    1    3    3    0    0 -0.23955005739E+01  0.13698709267E+02 -0.10003835065E+02  0.17130959536E+02  0.00000000000E+00 0.  1.
</event>
<event>
 7    1  0.2812635E-010  0.4778727E+02  0.7816164E-02  0.1312668E+00
        -11   -1    0    0    0    0  0.00000000000E+00  0.00000000000E+00  0.45593999997E+02  0.45594000000E+02  0.51100000000E-03 0.  1.
         11   -1    0    0    0    0 -0.00000000000E+00 -0.00000000000E+00 -0.45593999997E+02  0.45594000000E+02  0.51100000000E-03 0. -1.
    9900012    2    1    2    0    0 -0.23771363395E+02 -0.36118943060E+02  0.37373214595E+01  0.47787270316E+02  0.19999996679E+02 0.  0.
         12    1    1    2    0    0  0.23771363395E+02  0.36118943060E+02 -0.37373214595E+01  0.43400729684E+02  0.00000000000E+00 0. -1.
         11    1    3    3    0    0 -0.74515388155E+00 -0.77091845407E+01 -0.43583456904E+01  0.88871794180E+01  0.51100000000E-03 0. -1.
        -11    1    3    3    0    0 -0.19473312764E+02 -0.22206192355E+02  0.10517736912E+02  0.31351996410E+02  0.51100000000E-03 0.  1.
         12    1    3    3    0    0 -0.35528967493E+01 -0.62035661641E+01 -0.24220697618E+01  0.75480944877E+01  0.00000000000E+00 0. -1.
</event>
<event>
 7    1  0.2812635E-010  0.4778725E+02  0.7816164E-02  0.1312668E+00
        -11   -1    0    0    0    0  0.00000000000E+00  0.00000000000E+00  0.45593999997E+02  0.45594000000E+02  0.51100000000E-03 0.  1.
         11   -1    0    0    0    0 -0.00000000000E+00 -0.00000000000E+00 -0.45593999997E+02  0.45594000000E+02  0.51100000000E-03 0. -1.
    9900012    2    1    2    0    0 -0.12689604371E+02 -0.39559862237E+02  0.12554523398E+02  0.47787253266E+02  0.19999918943E+02 0.  0.
         12    1    1    2    0    0  0.12689604371E+02  0.39559862237E+02 -0.12554523398E+02  0.43400746734E+02  0.00000000000E+00 0. -1.
         11    1    3    3    0    0 -0.14232436736E+02 -0.20300186246E+02  0.37325183371E+01  0.25071727313E+02  0.51100000000E-03 0.  1.
        -11    1    3    3    0    0 -0.24779735658E+00 -0.12653870259E+02  0.95182589006E+01  0.15836006088E+02  0.51100000000E-03 0. -1.
        -12    1    3    3    0    0  0.17906297217E+01 -0.66058057315E+01 -0.69625383980E+00  0.68795198650E+01  0.00000000000E+00 0.  1.
</event>
<event>
 7    1  0.2812635E-010  0.4778727E+02  0.7816164E-02  0.1312668E+00
        -11   -1    0    0    0    0  0.00000000000E+00  0.00000000000E+00  0.45593999997E+02  0.45594000000E+02  0.51100000000E-03 0.  1.
         11   -1    0    0    0    0 -0.00000000000E+00 -0.00000000000E+00 -0.45593999997E+02  0.45594000000E+02  0.51100000000E-03 0. -1.
    9900012    2    1    2    0    0 -0.72907626104E+01 -0.24017652349E+02  0.35406504141E+02  0.47787269830E+02  0.19999994463E+02 0.  0.
         12    1    1    2    0    0  0.72907626104E+01  0.24017652349E+02 -0.35406504141E+02  0.43400730170E+02  0.00000000000E+00 0. -1.
         11    1    3    3    0    0 -0.56316528095E+01  0.37928885057E+00  0.46077618259E+01  0.72863463206E+01  0.51100000000E-03 0. -1.
        -11    1    3    3    0    0  0.30145324910E+01 -0.15955881103E+02  0.15729204839E+02  0.22607198699E+02  0.51100000000E-03 0.  1.
        -12    1    3    3    0    0 -0.46736422919E+01 -0.84410600971E+01  0.15069537476E+02  0.17893724810E+02  0.00000000000E+00 0.  1.
</event>
<event>
 7    1  0.2812635E-010  0.4778727E+02  0.7816164E-02  0.1312668E+00
        -11   -1    0    0    0    0  0.00000000000E+00  0.00000000000E+00  0.45593999997E+02  0.45594000000E+02  0.51100000000E-03 0. -1.
         11   -1    0    0    0    0 -0.00000000000E+00 -0.00000000000E+00 -0.45593999997E+02  0.45594000000E+02  0.51100000000E-03 0.  1.
    9900012    2    1    2    0    0 -0.36000739264E+02 -0.81789981520E+01 -0.22818276458E+02  0.47787274443E+02  0.20000015496E+02 0.  0.
         12    1    1    2    0    0  0.36000739264E+02  0.81789981520E+01  0.22818276458E+02  0.43400725557E+02  0.00000000000E+00 0. -1.
         11    1    3    3    0    0 -0.20041622015E+02 -0.11330892227E+02 -0.79527771902E+01  0.24357799509E+02  0.51100000000E-03 0.  1.
        -11    1    3    3    0    0 -0.12617051801E+02  0.40043702436E+01 -0.14964448097E+02  0.19978981063E+02  0.51100000000E-03 0. -1.
        -12    1    3    3    0    0 -0.33420654484E+01 -0.85247616878E+00  0.98948829488E-01  0.34504938705E+01  0.00000000000E+00 0.  1.
</event>
<event>
 7    1  0.3364044E-010  0.4778726E+02  0.7816164E-02  0.1312668E+00
        -11   -1    0    0    0    0  0.00000000000E+00  0.00000000000E+00  0.45593999997E+02  0.45594000000E+02  0.51100000000E-03 0. -1.
         11   -1    0    0    0    0 -0.00000000000E+00 -0.00000000000E+00 -0.45593999997E+02  0.45594000000E+02  0.51100000000E-03 0.  1.
    9900012    2    1    2    0    0  0.47441574787E+01  0.59104010301E+01 -0.42733873842E+02  0.47787264476E+02  0.19999970052E+02 0.  0.
         12    1    1    2    0    0 -0.47441574787E+01 -0.59104010301E+01  0.42733873842E+02  0.43400735524E+02  0.00000000000E+00 0. -1.
         11    1    3    3    0    0  0.17831491238E+01  0.58131991972E+01 -0.34858576685E+01  0.70088593687E+01  0.51100000000E-03 0. -1.
        -11    1    3    3    0    0  0.69568731265E+01 -0.27039002713E-01 -0.27605845730E+02  0.28468957366E+02  0.51100000000E-03 0.  1.
         12    1    3    3    0    0 -0.39958647716E+01  0.12424083565E+00 -0.11642170443E+02  0.12309447741E+02  0.00000000000E+00 0. -1.
</event>
<event>
 7    1  0.2812635E-010  0.4778728E+02  0.7816164E-02  0.1312668E+00
        -11   -1    0    0    0    0  0.00000000000E+00  0.00000000000E+00  0.45593999997E+02  0.45594000000E+02  0.51100000000E-03 0.  1.
         11   -1    0    0    0    0 -0.00000000000E+00 -0.00000000000E+00 -0.45593999997E+02  0.45594000000E+02  0.51100000000E-03 0. -1.
    9900012    2    1    2    0    0 -0.97375973286E+01 -0.29673786579E+01  0.42190006592E+02  0.47787276573E+02  0.20000025205E+02 0.  0.
         12    1    1    2    0    0  0.97375973286E+01  0.29673786579E+01 -0.42190006592E+02  0.43400723427E+02  0.00000000000E+00 0. -1.
         11    1    3    3    0    0 -0.19808783392E+01 -0.35273636681E+01  0.25243454337E+01  0.47684896531E+01  0.51100000000E-03 0. -1.
        -11    1    3    3    0    0 -0.29201559856E+01 -0.58519540677E+01  0.79117505436E+01  0.10264914725E+02  0.51100000000E-03 0.  1.
        -12    1    3    3    0    0 -0.48365630038E+01  0.64119390778E+01  0.31753910614E+02  0.32753872194E+02  0.00000000000E+00 0.  1.
</event>
<event>
 7    1  0.2812635E-010  0.4778727E+02  0.7816164E-02  0.1312668E+00
        -11   -1    0    0    0    0  0.00000000000E+00  0.00000000000E+00  0.45593999997E+02  0.45594000000E+02  0.51100000000E-03 0.  1.
         11   -1    0    0    0    0 -0.00000000000E+00 -0.00000000000E+00 -0.45593999997E+02  0.45594000000E+02  0.51100000000E-03 0. -1.
    9900012    2    1    2    0    0  0.16380242450E+02  0.33555792494E+02  0.22120573454E+02  0.47787270483E+02  0.19999997441E+02 0.  0.
         12    1    1    2    0    0 -0.16380242450E+02 -0.33555792494E+02 -0.22120573454E+02  0.43400729517E+02  0.00000000000E+00 0. -1.
         11    1    3    3    0    0  0.18678315073E+01  0.12613787776E+02  0.41408037890E+01  0.13406815165E+02  0.51100000000E-03 0. -1.
        -11    1    3    3    0    0  0.14002038305E+02  0.80141407669E+01  0.78114151601E+01  0.17924891519E+02  0.51100000000E-03 0.  1.
        -12    1    3    3    0    0  0.51037263845E+00  0.12927863951E+02  0.10168354505E+02  0.16455563798E+02  0.00000000000E+00 0.  1.
</event>
<event>
 7    1  0.2812635E-010  0.4778727E+02  0.7816164E-02  0.1312668E+00
        -11   -1    0    0    0    0  0.00000000000E+00  0.00000000000E+00  0.45593999997E+02  0.45594000000E+02  0.51100000000E-03 0.  1.
         11   -1    0    0    0    0 -0.00000000000E+00 -0.00000000000E+00 -0.45593999997E+02  0.45594000000E+02  0.51100000000E-03 0. -1.
    9900012    2    1    2    0    0  0.27583117727E+02 -0.25269067704E+02  0.22006115835E+02  0.47787270739E+02  0.19999998609E+02 0.  0.
         12    1    1    2    0    0 -0.27583117727E+02  0.25269067704E+02 -0.22006115835E+02  0.43400729261E+02  0.00000000000E+00 0. -1.
         11    1    3    3    0    0 -0.18628458346E+01 -0.60140296211E+00 -0.48588653293E-01  0.19581218667E+01  0.51100000000E-03 0. -1.
        -11    1    3    3    0    0  0.26909295373E+02 -0.20555816304E+02  0.14443315099E+02  0.36813871200E+02  0.51100000000E-03 0.  1.
         12    1    3    3    0    0  0.25366681887E+01 -0.41118484382E+01  0.76113893899E+01  0.90152776730E+01  0.00000000000E+00 0. -1.
</event>
<event>
 7    1  0.2812635E-010  0.4778727E+02  0.7816164E-02  0.1312668E+00
        -11   -1    0    0    0    0  0.00000000000E+00  0.00000000000E+00  0.45593999997E+02  0.45594000000E+02  0.51100000000E-03 0.  1.
         11   -1    0    0    0    0 -0.00000000000E+00 -0.00000000000E+00 -0.45593999997E+02  0.45594000000E+02  0.51100000000E-03 0. -1.
    9900012    2    1    2    0    0 -0.16819492615E+02 -0.23482667629E+02  0.32392779539E+02  0.47787272160E+02  0.20000005085E+02 0.  0.
         12    1    1    2    0    0  0.16819492615E+02  0.23482667629E+02 -0.32392779539E+02  0.43400727840E+02  0.00000000000E+00 0. -1.
         11    1    3    3    0    0 -0.39874816351E+01 -0.74116495349E+01  0.58337682471E+01  0.10240381382E+02  0.51100000000E-03 0. -1.
        -11    1    3    3    0    0 -0.12367882662E+02 -0.13995156371E+02  0.10657518040E+02  0.21503758146E+02  0.51100000000E-03 0.  1.
        -12    1    3    3    0    0 -0.46412831746E+00 -0.20758617235E+01  0.15901493252E+02  0.16043132632E+02  0.00000000000E+00 0.  1.
</event>
<event>
 7    1  0.2812635E-010  0.4778727E+02  0.7816164E-02  0.1312668E+00
        -11   -1    0    0    0    0  0.00000000000E+00  0.00000000000E+00  0.45593999997E+02  0.45594000000E+02  0.51100000000E-03 0.  1.
         11   -1    0    0    0    0 -0.00000000000E+00 -0.00000000000E+00 -0.45593999997E+02  0.45594000000E+02  0.51100000000E-03 0. -1.
    9900012    2    1    2    0    0 -0.56348242239E+01 -0.10925153698E+02  0.41623469561E+02  0.47787269065E+02  0.19999990976E+02 0.  0.
         12    1    1    2    0    0  0.56348242239E+01  0.10925153698E+02 -0.41623469561E+02  0.43400730935E+02  0.00000000000E+00 0. -1.
         11    1    3    3    0    0 -0.18156601654E+01 -0.45113956304E+00 -0.21472142004E+00  0.18831500978E+01  0.51100000000E-03 0. -1.
        -11    1    3    3    0    0 -0.17131642277E+01 -0.14004524370E+02  0.26467331772E+02  0.29993020619E+02  0.51100000000E-03 0.  1.
        -12    1    3    3    0    0 -0.21059998308E+01  0.35305102350E+01  0.15370859209E+02  0.15911098348E+02  0.00000000000E+00 0.  1.
</event>
<event>
 7    1  0.2812635E-010  0.4778727E+02  0.7816164E-02  0.1312668E+00
        -11   -1    0    0    0    0  0.00000000000E+00  0.00000000000E+00  0.45593999997E+02  0.45594000000E+02  0.51100000000E-03 0.  1.
         11   -1    0    0    0    0 -0.00000000000E+00 -0.00000000000E+00 -0.45593999997E+02  0.45594000000E+02  0.51100000000E-03 0. -1.
    9900012    2    1    2    0    0  0.78909902657E+01  0.40527083238E+02 -0.13375766099E+02  0.47787270491E+02  0.19999997476E+02 0.  0.
         12    1    1    2    0    0 -0.78909902657E+01 -0.40527083238E+02  0.13375766099E+02  0.43400729509E+02  0.00000000000E+00 0. -1.
         11    1    3    3    0    0  0.48760178138E+01  0.79841291662E+01  0.28890488024E+01  0.97912446352E+01  0.51100000000E-03 0. -1.
        -11    1    3    3    0    0  0.10715512041E+01  0.30800679201E+02 -0.17112840779E+02  0.35251657848E+02  0.51100000000E-03 0.  1.
        -12    1    3    3    0    0  0.19434212477E+01  0.17422748715E+01  0.84802587777E+00  0.27443680080E+01  0.00000000000E+00 0.  1.
</event>
<event>
 7    1  0.2812635E-010  0.4778727E+02  0.7816164E-02  0.1312668E+00
        -11   -1    0    0    0    0  0.00000000000E+00  0.00000000000E+00  0.45593999997E+02  0.45594000000E+02  0.51100000000E-03 0.  1.
         11   -1    0    0    0    0 -0.00000000000E+00 -0.00000000000E+00 -0.45593999997E+02  0.45594000000E+02  0.51100000000E-03 0. -1.
    9900012    2    1    2    0    0 -0.73162392175E+01 -0.14106704435E+02  0.40386839127E+02  0.47787271424E+02  0.20000001729E+02 0.  0.
         12    1    1    2    0    0  0.73162392175E+01  0.14106704435E+02 -0.40386839127E+02  0.43400728576E+02  0.00000000000E+00 0. -1.
         11    1    3    3    0    0 -0.37800018853E+01 -0.61742414665E+01  0.27436074343E+02  0.28375127269E+02  0.51100000000E-03 0. -1.
        -11    1    3    3    0    0 -0.74063600248E+01 -0.29347673945E+01  0.57163181192E+01  0.98052700921E+01  0.51100000000E-03 0.  1.
         12    1    3    3    0    0  0.38701226926E+01 -0.49976955740E+01  0.72344466647E+01  0.96068740624E+01  0.00000000000E+00 0. -1.
</event>
<event>
 7    1  0.2812635E-010  0.4778727E+02  0.7816164E-02  0.1312668E+00
        -11   -1    0    0    0    0  0.00000000000E+00  0.00000000000E+00  0.45593999997E+02  0.45594000000E+02  0.51100000000E-03 0.  1.
         11   -1    0    0    0    0 -0.00000000000E+00 -0.00000000000E+00 -0.45593999997E+02  0.45594000000E+02  0.51100000000E-03 0. -1.
    9900012    2    1    2    0    0 -0.10871431371E+02 -0.21697574650E+02  0.35981250403E+02  0.47787272514E+02  0.20000006700E+02 0.  0.
         12    1    1    2    0    0  0.10871431371E+02  0.21697574650E+02 -0.35981250403E+02  0.43400727486E+02  0.00000000000E+00 0. -1.
         11    1    3    3    0    0  0.47327380572E+01 -0.10961740551E+02  0.11386930660E+02  0.16499113781E+02  0.51100000000E-03 0. -1.
        -11    1    3    3    0    0 -0.10745711126E+02 -0.82653772575E+01  0.19988926151E+02  0.24152514108E+02  0.51100000000E-03 0.  1.
         12    1    3    3    0    0 -0.48584583021E+01 -0.24704568418E+01  0.46053935918E+01  0.71356446251E+01  0.00000000000E+00 0. -1.
</event>
<event>
 7    1  0.2812635E-010  0.4778727E+02  0.7816164E-02  0.1312668E+00
        -11   -1    0    0    0    0  0.00000000000E+00  0.00000000000E+00  0.45593999997E+02  0.45594000000E+02  0.51100000000E-03 0.  1.
         11   -1    0    0    0    0 -0.00000000000E+00 -0.00000000000E+00 -0.45593999997E+02  0.45594000000E+02  0.51100000000E-03 0. -1.
    9900012    2    1    2    0    0 -0.72750156473E+01 -0.15742232516E+02  0.39785416187E+02  0.47787273296E+02  0.20000010267E+02 0.  0.
         12    1    1    2    0    0  0.72750156473E+01  0.15742232516E+02 -0.39785416187E+02  0.43400726704E+02  0.00000000000E+00 0. -1.
         11    1    3    3    0    0  0.30100605248E+01 -0.12056432368E+02  0.26198556590E+02  0.28996247921E+02  0.51100000000E-03 0. -1.
        -11    1    3    3    0    0 -0.93366130912E+01 -0.55666062815E+01  0.11201858376E+02  0.15609006402E+02  0.51100000000E-03 0.  1.
        -12    1    3    3    0    0 -0.94846308097E+00  0.18808061336E+01  0.23850012200E+01  0.31820189735E+01  0.00000000000E+00 0.  1.
</event>
<event>
 7    1  0.2812635E-010  0.4778727E+02  0.7816164E-02  0.1312668E+00
        -11   -1    0    0    0    0  0.00000000000E+00  0.00000000000E+00  0.45593999997E+02  0.45594000000E+02  0.51100000000E-03 0.  1.
         11   -1    0    0    0    0 -0.00000000000E+00 -0.00000000000E+00 -0.45593999997E+02  0.45594000000E+02  0.51100000000E-03 0. -1.
    9900012    2    1    2    0    0 -0.45206381341E+01  0.33795114797E+02  0.26852883636E+02  0.47787270595E+02  0.19999997953E+02 0.  0.
         12    1    1    2    0    0  0.45206381341E+01 -0.33795114797E+02 -0.26852883636E+02  0.43400729405E+02  0.00000000000E+00 0. -1.
         11    1    3    3    0    0  0.52384569754E+01  0.13595864657E+02  0.58090483978E+01  0.15685471328E+02  0.51100000000E-03 0. -1.
        -11    1    3    3    0    0 -0.90576425469E+01  0.10624844918E+02  0.16076408414E+02  0.21292701233E+02  0.51100000000E-03 0.  1.
        -12    1    3    3    0    0 -0.70145256263E+00  0.95744052223E+01  0.49674268245E+01  0.10809098034E+02  0.00000000000E+00 0.  1.
</event>
<event>
 7    1  0.2812635E-010  0.4778729E+02  0.7816164E-02  0.1312668E+00
        -11   -1    0    0    0    0  0.00000000000E+00  0.00000000000E+00  0.45593999997E+02  0.45594000000E+02  0.51100000000E-03 0.  1.
         11   -1    0    0    0    0 -0.00000000000E+00 -0.00000000000E+00 -0.45593999997E+02  0.45594000000E+02  0.51100000000E-03 0. -1.
    9900012    2    1    2    0    0  0.20825438567E+02  0.32203838776E+02  0.20318363851E+02  0.47787285340E+02  0.20000065178E+02 0.  0.
         12    1    1    2    0    0 -0.20825438567E+02 -0.32203838776E+02 -0.20318363851E+02  0.43400714660E+02  0.00000000000E+00 0. -1.
         11    1    3    3    0    0  0.11044763875E+02  0.76696015281E+01  0.11862128977E+02  0.17930970436E+02  0.51100000000E-03 0. -1.
        -11    1    3    3    0    0 -0.16169735919E+01  0.53060196656E+01 -0.90960425050E+00  0.56210166734E+01  0.51100000000E-03 0.  1.
        -12    1    3    3    0    0  0.11397648284E+02  0.19228217582E+02  0.93658391250E+01  0.24235298230E+02  0.00000000000E+00 0.  1.
</event>
<event>
 7    1  0.2812635E-010  0.4778727E+02  0.7816164E-02  0.1312668E+00
        -11   -1    0    0    0    0  0.00000000000E+00  0.00000000000E+00  0.45593999997E+02  0.45594000000E+02  0.51100000000E-03 0.  1.
         11   -1    0    0    0    0 -0.00000000000E+00 -0.00000000000E+00 -0.45593999997E+02  0.45594000000E+02  0.51100000000E-03 0. -1.
    9900012    2    1    2    0    0 -0.36501087017E+02 -0.13208844584E+02  0.19411858277E+02  0.47787272236E+02  0.20000005433E+02 0.  0.
         12    1    1    2    0    0  0.36501087017E+02  0.13208844584E+02 -0.19411858277E+02  0.43400727764E+02  0.00000000000E+00 0. -1.
         11    1    3    3    0    0 -0.13584431714E+02 -0.14220565947E+02  0.10948810957E+02  0.22508614850E+02  0.51100000000E-03 0. -1.
        -11    1    3    3    0    0 -0.19925262740E+02  0.30903998337E+01  0.74733102550E+01  0.21503884133E+02  0.51100000000E-03 0.  1.
        -12    1    3    3    0    0 -0.29913925632E+01 -0.20786784704E+01  0.98973706528E+00  0.37747732527E+01  0.00000000000E+00 0.  1.
</event>
<event>
 7    1  0.2812635E-010  0.4778725E+02  0.7816164E-02  0.1312668E+00
        -11   -1    0    0    0    0  0.00000000000E+00  0.00000000000E+00  0.45593999997E+02  0.45594000000E+02  0.51100000000E-03 0.  1.
         11   -1    0    0    0    0 -0.00000000000E+00 -0.00000000000E+00 -0.45593999997E+02  0.45594000000E+02  0.51100000000E-03 0. -1.
    9900012    2    1    2    0    0  0.16655142642E+02 -0.38675180614E+02  0.10510065827E+02  0.47787252821E+02  0.19999916913E+02 0.  0.
         12    1    1    2    0    0 -0.16655142642E+02  0.38675180614E+02 -0.10510065827E+02  0.43400747179E+02  0.00000000000E+00 0. -1.
         11    1    3    3    0    0  0.84729786209E+01 -0.14393912237E+02 -0.22212160591E+01  0.16849625433E+02  0.51100000000E-03 0. -1.
        -11    1    3    3    0    0  0.66858342574E+01 -0.20928264183E+02  0.15017443786E+02  0.26612332471E+02  0.51100000000E-03 0.  1.
        -12    1    3    3    0    0  0.14963297635E+01 -0.33530041941E+01 -0.22861618994E+01  0.43252949168E+01  0.00000000000E+00 0.  1.
</event>
<event>
 7    1  0.2812635E-010  0.4778727E+02  0.7816164E-02  0.1312668E+00
        -11   -1    0    0    0    0  0.00000000000E+00  0.00000000000E+00  0.45593999997E+02  0.45594000000E+02  0.51100000000E-03 0.  1.
         11   -1    0    0    0    0 -0.00000000000E+00 -0.00000000000E+00 -0.45593999997E+02  0.45594000000E+02  0.51100000000E-03 0. -1.
    9900012    2    1    2    0    0 -0.86950494766E+01  0.39009218540E+02  0.16920407009E+02  0.47787272013E+02  0.20000004414E+02 0.  0.
         12    1    1    2    0    0  0.86950494766E+01 -0.39009218540E+02 -0.16920407009E+02  0.43400727987E+02  0.00000000000E+00 0. -1.
         11    1    3    3    0    0  0.81369972325E+00 -0.84377054313E+00  0.21729855075E+01  0.24689921519E+01  0.51100000000E-03 0. -1.
        -11    1    3    3    0    0 -0.25176616248E+01  0.32812898275E+02  0.11921157814E+02  0.35001984474E+02  0.51100000000E-03 0.  1.
        -12    1    3    3    0    0 -0.69910875751E+01  0.70400908079E+01  0.28262636873E+01  0.10316295386E+02  0.00000000000E+00 0.  1.
</event>
<event>
 7    1  0.2812635E-010  0.4778727E+02  0.7816164E-02  0.1312668E+00
        -11   -1    0    0    0    0  0.00000000000E+00  0.00000000000E+00  0.45593999997E+02  0.45594000000E+02  0.51100000000E-03 0. -1.
         11   -1    0    0    0    0 -0.00000000000E+00 -0.00000000000E+00 -0.45593999997E+02  0.45594000000E+02  0.51100000000E-03 0.  1.
    9900012    2    1    2    0    0  0.25563594587E+02 -0.19327280569E+02 -0.29267421058E+02  0.47787273303E+02  0.20000010300E+02 0.  0.
         12    1    1    2    0    0 -0.25563594587E+02  0.19327280569E+02  0.29267421058E+02  0.43400726697E+02  0.00000000000E+00 0. -1.
         11    1    3    3    0    0  0.13065593689E+02 -0.82875439552E+01 -0.25762134578E+01  0.15685343454E+02  0.51100000000E-03 0. -1.
        -11    1    3    3    0    0  0.13167518242E+02 -0.99517275613E+01 -0.24061658389E+02  0.29178482188E+02  0.51100000000E-03 0.  1.
        -12    1    3    3    0    0 -0.66951734371E+00 -0.10880090526E+01 -0.26295492115E+01  0.29234476612E+01  0.00000000000E+00 0.  1.
</event>
<event>
 7    1  0.2812635E-010  0.4778728E+02  0.7816164E-02  0.1312668E+00
        -11   -1    0    0    0    0  0.00000000000E+00  0.00000000000E+00  0.45593999997E+02  0.45594000000E+02  0.51100000000E-03 0.  1.
         11   -1    0    0    0    0 -0.00000000000E+00 -0.00000000000E+00 -0.45593999997E+02  0.45594000000E+02  0.51100000000E-03 0. -1.
    9900012    2    1    2    0    0 -0.14948063276E+02  0.57413490385E+01  0.40338751635E+02  0.47787279177E+02  0.20000037080E+02 0.  0.
         12    1    1    2    0    0  0.14948063276E+02 -0.57413490385E+01 -0.40338751635E+02  0.43400720823E+02  0.00000000000E+00 0. -1.
         11    1    3    3    0    0 -0.29475846576E+01  0.58705170813E+01  0.98729164710E+00  0.66427382285E+01  0.51100000000E-03 0. -1.
        -11    1    3    3    0    0 -0.43065448422E+01  0.14410956598E+00  0.14763233046E+02  0.15379211497E+02  0.51100000000E-03 0.  1.
         12    1    3    3    0    0 -0.76939337760E+01 -0.27327760874E+00  0.24588226942E+02  0.25765329452E+02  0.00000000000E+00 0. -1.
</event>
<event>
 7    1  0.2812635E-010  0.4778727E+02  0.7816164E-02  0.1312668E+00
        -11   -1    0    0    0    0  0.00000000000E+00  0.00000000000E+00  0.45593999997E+02  0.45594000000E+02  0.51100000000E-03 0.  1.
         11   -1    0    0    0    0 -0.00000000000E+00 -0.00000000000E+00 -0.45593999997E+02  0.45594000000E+02  0.51100000000E-03 0. -1.
    9900012    2    1    2    0    0  0.68191957738E+01  0.73931143002E+01  0.42219234099E+02  0.47787270767E+02  0.19999998736E+02 0.  0.
         12    1    1    2    0    0 -0.68191957738E+01 -0.73931143002E+01 -0.42219234099E+02  0.43400729233E+02  0.00000000000E+00 0. -1.
         11    1    3    3    0    0 -0.16549501018E+01  0.20657942112E+01  0.29862621123E+02  0.29979701569E+02  0.51100000000E-03 0. -1.
        -11    1    3    3    0    0 -0.34007140501E+00 -0.11753040222E+01  0.35439398609E+01  0.37491996618E+01  0.51100000000E-03 0.  1.
         12    1    3    3    0    0  0.88142172806E+01  0.65026241113E+01  0.88126731147E+01  0.14058369537E+02  0.00000000000E+00 0. -1.
</event>
<event>
 7    1  0.2812635E-010  0.4778727E+02  0.7816164E-02  0.1312668E+00
        -11   -1    0    0    0    0  0.00000000000E+00  0.00000000000E+00  0.45593999997E+02  0.45594000000E+02  0.51100000000E-03 0.  1.
         11   -1    0    0    0    0 -0.00000000000E+00 -0.00000000000E+00 -0.45593999997E+02  0.45594000000E+02  0.51100000000E-03 0. -1.
    9900012    2    1    2    0    0  0.61006635940E+01  0.42384633900E+02  0.70673962140E+01  0.47787269864E+02  0.19999994616E+02 0.  0.
         12    1    1    2    0    0 -0.61006635940E+01 -0.42384633900E+02 -0.70673962140E+01  0.43400730136E+02  0.00000000000E+00 0. -1.
         11    1    3    3    0    0 -0.24450962791E+01  0.24002887608E+01  0.55639919652E+01  0.65343621570E+01  0.51100000000E-03 0. -1.
        -11    1    3    3    0    0  0.35586783062E+01  0.28152275847E+02  0.63417500713E+00  0.28383393117E+02  0.51100000000E-03 0.  1.
         12    1    3    3    0    0  0.49870815669E+01  0.11832069292E+02  0.86922924167E+00  0.12869514589E+02  0.00000000000E+00 0. -1.
</event>
<event>
 7    1  0.2812635E-010  0.4778727E+02  0.7816164E-02  0.1312668E+00
        -11   -1    0    0    0    0  0.00000000000E+00  0.00000000000E+00  0.45593999997E+02  0.45594000000E+02  0.51100000000E-03 0. -1.
         11   -1    0    0    0    0 -0.00000000000E+00 -0.00000000000E+00 -0.45593999997E+02  0.45594000000E+02  0.51100000000E-03 0.  1.
    9900012    2    1    2    0    0  0.61879771050E+01 -0.30984977449E+02 -0.29753374931E+02  0.47787271804E+02  0.20000003461E+02 0.  0.
         12    1    1    2    0    0 -0.61879771050E+01  0.30984977449E+02  0.29753374931E+02  0.43400728196E+02  0.00000000000E+00 0. -1.
         11    1    3    3    0    0  0.17433421939E+01 -0.97773449055E+00 -0.74081842200E+01  0.76730958835E+01  0.51100000000E-03 0. -1.
        -11    1    3    3    0    0  0.67356847992E+01 -0.28302616563E+02 -0.16108828524E+02  0.33255103529E+02  0.51100000000E-03 0.  1.
        -12    1    3    3    0    0 -0.22910498880E+01 -0.17046263954E+01 -0.62363621871E+01  0.68590723911E+01  0.00000000000E+00 0.  1.
</event>
<event>
 7    1  0.2812635E-010  0.4778727E+02  0.7816164E-02  0.1312668E+00
        -11   -1    0    0    0    0  0.00000000000E+00  0.00000000000E+00  0.45593999997E+02  0.45594000000E+02  0.51100000000E-03 0.  1.
         11   -1    0    0    0    0 -0.00000000000E+00 -0.00000000000E+00 -0.45593999997E+02  0.45594000000E+02  0.51100000000E-03 0. -1.
    9900012    2    1    2    0    0  0.27803780318E+02  0.10715264762E+02  0.31555601276E+02  0.47787273384E+02  0.20000010666E+02 0.  0.
         12    1    1    2    0    0 -0.27803780318E+02 -0.10715264762E+02 -0.31555601276E+02  0.43400726616E+02  0.00000000000E+00 0. -1.
         11    1    3    3    0    0 -0.12096321303E+01  0.44913763583E+01  0.89929524194E+01  0.10124666165E+02  0.51100000000E-03 0. -1.
        -11    1    3    3    0    0  0.23740167942E+02  0.70284644427E+01  0.17600353687E+02  0.30377085714E+02  0.51100000000E-03 0.  1.
         12    1    3    3    0    0  0.52732445066E+01 -0.80457603929E+00  0.49622951705E+01  0.72855215042E+01  0.00000000000E+00 0. -1.
</event>
<event>
 7    1  0.2812635E-010  0.4778728E+02  0.7816164E-02  0.1312668E+00
        -11   -1    0    0    0    0  0.00000000000E+00  0.00000000000E+00  0.45593999997E+02  0.45594000000E+02  0.51100000000E-03 0.  1.
         11   -1    0    0    0    0 -0.00000000000E+00 -0.00000000000E+00 -0.45593999997E+02  0.45594000000E+02  0.51100000000E-03 0. -1.
    9900012    2    1    2    0    0 -0.97968943595E+01 -0.11926911099E+02  0.40563437046E+02  0.47787276821E+02  0.20000026340E+02 0.  0.
         12    1    1    2    0    0  0.97968943595E+01  0.11926911099E+02 -0.40563437046E+02  0.43400723179E+02  0.00000000000E+00 0. -1.
         11    1    3    3    0    0 -0.59449077022E+01  0.37056407347E+01  0.16351385024E+02  0.17788802469E+02  0.51100000000E-03 0. -1.
        -11    1    3    3    0    0 -0.19056609848E+01 -0.14894963272E+02  0.23314307578E+02  0.27731722139E+02  0.51100000000E-03 0.  1.
         12    1    3    3    0    0 -0.19463256725E+01 -0.73758856147E+00  0.89774444398E+00  0.22667522132E+01  0.00000000000E+00 0. -1.
</event>
<event>
 7    1  0.2812635E-010  0.4778727E+02  0.7816164E-02  0.1312668E+00
        -11   -1    0    0    0    0  0.00000000000E+00  0.00000000000E+00  0.45593999997E+02  0.45594000000E+02  0.51100000000E-03 0. -1.
         11   -1    0    0    0    0 -0.00000000000E+00 -0.00000000000E+00 -0.45593999997E+02  0.45594000000E+02  0.51100000000E-03 0.  1.
    9900012    2    1    2    0    0 -0.16888340521E+02 -0.35300022685E+02 -0.18770074771E+02  0.47787270121E+02  0.19999995790E+02 0.  0.
         12    1    1    2    0    0  0.16888340521E+02  0.35300022685E+02  0.18770074771E+02  0.43400729879E+02  0.00000000000E+00 0. -1.
         11    1    3    3    0    0 -0.10679025973E+01 -0.20973944325E+01  0.14629559752E+01  0.27712307391E+01  0.51100000000E-03 0. -1.
        -11    1    3    3    0    0  0.35434821553E+00 -0.90579905825E+00 -0.61828579144E+01  0.62588950177E+01  0.51100000000E-03 0.  1.
        -12    1    3    3    0    0 -0.16174786139E+02 -0.32296829194E+02 -0.14050172832E+02  0.38757144364E+02  0.00000000000E+00 0.  1.
</event>
<event>
 7    1  0.2812635E-010  0.4778727E+02  0.7816164E-02  0.1312668E+00
        -11   -1    0    0    0    0  0.00000000000E+00  0.00000000000E+00  0.45593999997E+02  0.45594000000E+02  0.51100000000E-03 0.  1.
         11   -1    0    0    0    0 -0.00000000000E+00 -0.00000000000E+00 -0.45593999997E+02  0.45594000000E+02  0.51100000000E-03 0. -1.
    9900012    2    1    2    0    0  0.27929431085E+02  0.32911143276E+02 -0.45196092074E+01  0.47787270284E+02  0.19999996535E+02 0.  0.
         12    1    1    2    0    0 -0.27929431085E+02 -0.32911143276E+02  0.45196092074E+01  0.43400729716E+02  0.00000000000E+00 0. -1.
         11    1    3    3    0    0  0.16477116394E+02  0.13207124032E+02 -0.10665458043E+02  0.23657461516E+02  0.51100000000E-03 0. -1.
        -11    1    3    3    0    0  0.70390166647E+01  0.13393043500E+02  0.63917872923E+01  0.16424868792E+02  0.51100000000E-03 0.  1.
        -12    1    3    3    0    0  0.44132980255E+01  0.63109757441E+01 -0.24593845697E+00  0.77049399757E+01  0.00000000000E+00 0.  1.
</event>
<event>
 7    1  0.2812635E-010  0.4778727E+02  0.7816164E-02  0.1312668E+00
        -11   -1    0    0    0    0  0.00000000000E+00  0.00000000000E+00  0.45593999997E+02  0.45594000000E+02  0.51100000000E-03 0. -1.
         11   -1    0    0    0    0 -0.00000000000E+00 -0.00000000000E+00 -0.45593999997E+02  0.45594000000E+02  0.51100000000E-03 0.  1.
    9900012    2    1    2    0    0  0.12418032724E+02 -0.38167740919E+02  0.16511796799E+02  0.47787269394E+02  0.19999992474E+02 0.  0.
         12    1    1    2    0    0 -0.12418032724E+02  0.38167740919E+02 -0.16511796799E+02  0.43400730606E+02  0.00000000000E+00 0. -1.
         11    1    3    3    0    0  0.22791685651E+01 -0.24846360307E+01  0.68022934248E+01  0.75920498978E+01  0.51100000000E-03 0. -1.
        -11    1    3    3    0    0  0.12018745390E+02 -0.31796923240E+02  0.60307401723E+01  0.34523389109E+02  0.51100000000E-03 0.  1.
        -12    1    3    3    0    0 -0.18798812302E+01 -0.38861816485E+01  0.36787632018E+01  0.56718303871E+01  0.00000000000E+00 0.  1.
</event>
<event>
 7    1  0.2812635E-010  0.4778727E+02  0.7816164E-02  0.1312668E+00
        -11   -1    0    0    0    0  0.00000000000E+00  0.00000000000E+00  0.45593999997E+02  0.45594000000E+02  0.51100000000E-03 0.  1.
         11   -1    0    0    0    0 -0.00000000000E+00 -0.00000000000E+00 -0.45593999997E+02  0.45594000000E+02  0.51100000000E-03 0. -1.
    9900012    2    1    2    0    0 -0.19238460510E+02 -0.38748601832E+02 -0.34713990251E+01  0.47787272841E+02  0.20000008193E+02 0.  0.
         12    1    1    2    0    0  0.19238460510E+02  0.38748601832E+02  0.34713990251E+01  0.43400727159E+02  0.00000000000E+00 0. -1.
         11    1    3    3    0    0  0.31952763650E+00 -0.23401610511E+01 -0.54979893355E+01  0.59838397915E+01  0.51100000000E-03 0. -1.
        -11    1    3    3    0    0 -0.93856239363E+01 -0.19718806781E+02  0.38421556667E+01  0.22173936005E+02  0.51100000000E-03 0.  1.
        -12    1    3    3    0    0 -0.10172364210E+02 -0.16689634000E+02 -0.18155653563E+01  0.19629497044E+02  0.00000000000E+00 0.  1.
</event>
<event>
 7    1  0.2812635E-010  0.4778727E+02  0.7816164E-02  0.1312668E+00
        -11   -1    0    0    0    0  0.00000000000E+00  0.00000000000E+00  0.45593999997E+02  0.45594000000E+02  0.51100000000E-03 0. -1.
         11   -1    0    0    0    0 -0.00000000000E+00 -0.00000000000E+00 -0.45593999997E+02  0.45594000000E+02  0.51100000000E-03 0.  1.
    9900012    2    1    2    0    0  0.35429853224E+02  0.17369902193E+02 -0.18073061836E+02  0.47787267681E+02  0.19999984666E+02 0.  0.
         12    1    1    2    0    0 -0.35429853224E+02 -0.17369902193E+02  0.18073061836E+02  0.43400732319E+02  0.00000000000E+00 0. -1.
         11    1    3    3    0    0  0.17719806456E+02  0.15266172174E+02 -0.10912208830E+02  0.25809375341E+02  0.51100000000E-03 0.  1.
        -11    1    3    3    0    0  0.19172891230E+02  0.21837032462E+01 -0.64243755894E+01  0.20338164125E+02  0.51100000000E-03 0. -1.
        -12    1    3    3    0    0 -0.14628444618E+01 -0.79973226903E-01 -0.73647741705E+00  0.16397282160E+01  0.00000000000E+00 0.  1.
</event>
<event>
 7    1  0.2812635E-010  0.4778728E+02  0.7816164E-02  0.1312668E+00
        -11   -1    0    0    0    0  0.00000000000E+00  0.00000000000E+00  0.45593999997E+02  0.45594000000E+02  0.51100000000E-03 0. -1.
         11   -1    0    0    0    0 -0.00000000000E+00 -0.00000000000E+00 -0.45593999997E+02  0.45594000000E+02  0.51100000000E-03 0.  1.
    9900012    2    1    2    0    0  0.64299025159E+01  0.38680167281E+02 -0.18604405071E+02  0.47787275636E+02  0.20000020935E+02 0.  0.
         12    1    1    2    0    0 -0.64299025159E+01 -0.38680167281E+02  0.18604405071E+02  0.43400724364E+02  0.00000000000E+00 0. -1.
         11    1    3    3    0    0 -0.17764836764E+01  0.94386503731E+01  0.31561971664E+01  0.10109678330E+02  0.51100000000E-03 0. -1.
        -11    1    3    3    0    0  0.59708882853E+01  0.18194810594E+02 -0.10943421932E+02  0.22055863695E+02  0.51100000000E-03 0.  1.
         12    1    3    3    0    0  0.22354979069E+01  0.11046706314E+02 -0.10817180305E+02  0.15621733611E+02  0.00000000000E+00 0. -1.
</event>
<event>
 7    1  0.2812635E-010  0.4778728E+02  0.7816164E-02  0.1312668E+00
        -11   -1    0    0    0    0  0.00000000000E+00  0.00000000000E+00  0.45593999997E+02  0.45594000000E+02  0.51100000000E-03 0.  1.
         11   -1    0    0    0    0 -0.00000000000E+00 -0.00000000000E+00 -0.45593999997E+02  0.45594000000E+02  0.51100000000E-03 0. -1.
    9900012    2    1    2    0    0 -0.28282156371E+02  0.31520428887E+02  0.94975974373E+01  0.47787283838E+02  0.20000058332E+02 0.  0.
         12    1    1    2    0    0  0.28282156371E+02 -0.31520428887E+02 -0.94975974373E+01  0.43400716162E+02  0.00000000000E+00 0. -1.
         11    1    3    3    0    0 -0.79227037135E+01  0.16685880357E+02 -0.65732559883E+00  0.18482962820E+02  0.51100000000E-03 0. -1.
        -11    1    3    3    0    0 -0.10768336274E+02  0.74761118792E+01 -0.60153871336E+00  0.13122925133E+02  0.51100000000E-03 0.  1.
         12    1    3    3    0    0 -0.95911163835E+01  0.73584366517E+01  0.10756461750E+02  0.16181395886E+02  0.00000000000E+00 0. -1.
</event>
<event>
 7    1  0.2812635E-010  0.4778727E+02  0.7816164E-02  0.1312668E+00
        -11   -1    0    0    0    0  0.00000000000E+00  0.00000000000E+00  0.45593999997E+02  0.45594000000E+02  0.51100000000E-03 0.  1.
         11   -1    0    0    0    0 -0.00000000000E+00 -0.00000000000E+00 -0.45593999997E+02  0.45594000000E+02  0.51100000000E-03 0. -1.
    9900012    2    1    2    0    0 -0.38117703738E+02 -0.35818508832E+01  0.20440989389E+02  0.47787273725E+02  0.20000012220E+02 0.  0.
         12    1    1    2    0    0  0.38117703738E+02  0.35818508832E+01 -0.20440989389E+02  0.43400726275E+02  0.00000000000E+00 0. -1.
         11    1    3    3    0    0 -0.16790083125E+02 -0.80858991299E+01  0.66184914753E+01  0.19776073567E+02  0.51100000000E-03 0. -1.
        -11    1    3    3    0    0 -0.97609238234E+01 -0.19791338031E+01  0.10221175050E+02  0.14271125540E+02  0.51100000000E-03 0.  1.
         12    1    3    3    0    0 -0.11566696790E+02  0.64831820498E+01  0.36013228634E+01  0.13740074618E+02  0.00000000000E+00 0. -1.
</event>
<event>
 7    1  0.2812635E-010  0.4778727E+02  0.7816164E-02  0.1312668E+00
        -11   -1    0    0    0    0  0.00000000000E+00  0.00000000000E+00  0.45593999997E+02  0.45594000000E+02  0.51100000000E-03 0.  1.
         11   -1    0    0    0    0 -0.00000000000E+00 -0.00000000000E+00 -0.45593999997E+02  0.45594000000E+02  0.51100000000E-03 0. -1.
    9900012    2    1    2    0    0  0.30104946786E+02  0.26364009965E+01  0.31150678879E+02  0.47787271598E+02  0.20000002525E+02 0.  0.
         12    1    1    2    0    0 -0.30104946786E+02 -0.26364009965E+01 -0.31150678879E+02  0.43400728402E+02  0.00000000000E+00 0. -1.
         11    1    3    3    0    0  0.17753233812E+01 -0.53023122274E+01  0.67879362375E+01  0.87944509033E+01  0.51100000000E-03 0. -1.
        -11    1    3    3    0    0  0.49332747806E+01  0.44137292112E+01  0.37200905836E+01  0.75932390863E+01  0.51100000000E-03 0.  1.
         12    1    3    3    0    0  0.23396348624E+02  0.35249840127E+01  0.20642652058E+02  0.31399581609E+02  0.00000000000E+00 0. -1.
</event>
<event>
 7    1  0.2812635E-010  0.4778727E+02  0.7816164E-02  0.1312668E+00
        -11   -1    0    0    0    0  0.00000000000E+00  0.00000000000E+00  0.45593999997E+02  0.45594000000E+02  0.51100000000E-03 0. -1.
         11   -1    0    0    0    0 -0.00000000000E+00 -0.00000000000E+00 -0.45593999997E+02  0.45594000000E+02  0.51100000000E-03 0.  1.
    9900012    2    1    2    0    0  0.30956117069E+02  0.70238989656E+01 -0.29597418738E+02  0.47787268017E+02  0.19999986198E+02 0.  0.
         12    1    1    2    0    0 -0.30956117069E+02 -0.70238989656E+01  0.29597418738E+02  0.43400731983E+02  0.00000000000E+00 0. -1.
         11    1    3    3    0    0  0.55893051312E+00  0.23357662518E+00 -0.14564550626E+01  0.15774102094E+01  0.51100000000E-03 0. -1.
        -11    1    3    3    0    0  0.15717650665E+01 -0.51327066440E+01 -0.53354219659E+01  0.75684774382E+01  0.51100000000E-03 0.  1.
        -12    1    3    3    0    0  0.28825421490E+02  0.11923028984E+02 -0.22805541709E+02  0.38641380370E+02  0.00000000000E+00 0.  1.
</event>
<event>
 7    1  0.2812635E-010  0.4778727E+02  0.7816164E-02  0.1312668E+00
        -11   -1    0    0    0    0  0.00000000000E+00  0.00000000000E+00  0.45593999997E+02  0.45594000000E+02  0.51100000000E-03 0.  1.
         11   -1    0    0    0    0 -0.00000000000E+00 -0.00000000000E+00 -0.45593999997E+02  0.45594000000E+02  0.51100000000E-03 0. -1.
    9900012    2    1    2    0    0  0.43297930916E+02  0.59519801189E+00  0.29255250193E+01  0.47787265227E+02  0.19999973474E+02 0.  0.
         12    1    1    2    0    0 -0.43297930916E+02 -0.59519801189E+00 -0.29255250193E+01  0.43400734773E+02  0.00000000000E+00 0. -1.
         11    1    3    3    0    0  0.64516608980E+01 -0.10001861732E+01  0.35942276305E+01  0.74527024122E+01  0.51100000000E-03 0. -1.
        -11    1    3    3    0    0  0.16737341442E+02  0.88477692647E+01  0.32339432545E+00  0.18934788186E+02  0.51100000000E-03 0.  1.
        -12    1    3    3    0    0  0.20108928576E+02 -0.72523850796E+01 -0.99209693665E+00  0.21399774628E+02  0.00000000000E+00 0.  1.
</event>
<event>
 7    1  0.2812635E-010  0.4778727E+02  0.7816164E-02  0.1312668E+00
        -11   -1    0    0    0    0  0.00000000000E+00  0.00000000000E+00  0.45593999997E+02  0.45594000000E+02  0.51100000000E-03 0.  1.
         11   -1    0    0    0    0 -0.00000000000E+00 -0.00000000000E+00 -0.45593999997E+02  0.45594000000E+02  0.51100000000E-03 0. -1.
    9900012    2    1    2    0    0  0.40558871245E+02  0.72761889273E+01  0.13625650107E+02  0.47787270711E+02  0.19999998480E+02 0.  0.
         12    1    1    2    0    0 -0.40558871245E+02 -0.72761889273E+01 -0.13625650107E+02  0.43400729289E+02  0.00000000000E+00 0. -1.
         11    1    3    3    0    0  0.26997368836E-01  0.47008462644E+01  0.17453166505E+01  0.50144605823E+01  0.51100000000E-03 0. -1.
        -11    1    3    3    0    0  0.22717463503E+02 -0.13038138250E+01  0.50877219395E+01  0.23316689158E+02  0.51100000000E-03 0.  1.
         12    1    3    3    0    0  0.17814410373E+02  0.38791564878E+01  0.67926115174E+01  0.19456120971E+02  0.00000000000E+00 0. -1.
</event>
<event>
 7    1  0.2812635E-010  0.4778727E+02  0.7816164E-02  0.1312668E+00
        -11   -1    0    0    0    0  0.00000000000E+00  0.00000000000E+00  0.45593999997E+02  0.45594000000E+02  0.51100000000E-03 0.  1.
         11   -1    0    0    0    0 -0.00000000000E+00 -0.00000000000E+00 -0.45593999997E+02  0.45594000000E+02  0.51100000000E-03 0. -1.
    9900012    2    1    2    0    0  0.12983069528E+02 -0.32510401531E+02  0.25654182758E+02  0.47787269648E+02  0.19999993634E+02 0.  0.
         12    1    1    2    0    0 -0.12983069528E+02  0.32510401531E+02 -0.25654182758E+02  0.43400730352E+02  0.00000000000E+00 0. -1.
         11    1    3    3    0    0  0.42519966170E+01 -0.62724806642E+01  0.16436077654E+02  0.18098843550E+02  0.51100000000E-03 0. -1.
        -11    1    3    3    0    0  0.61932516242E+01 -0.18083970528E+02  0.35584793959E+01  0.19443485583E+02  0.51100000000E-03 0.  1.
         12    1    3    3    0    0  0.25378212863E+01 -0.81539503387E+01  0.56596257078E+01  0.10244940515E+02  0.00000000000E+00 0. -1.
</event>
<event>
 7    1  0.2812635E-010  0.4778727E+02  0.7816164E-02  0.1312668E+00
        -11   -1    0    0    0    0  0.00000000000E+00  0.00000000000E+00  0.45593999997E+02  0.45594000000E+02  0.51100000000E-03 0.  1.
         11   -1    0    0    0    0 -0.00000000000E+00 -0.00000000000E+00 -0.45593999997E+02  0.45594000000E+02  0.51100000000E-03 0. -1.
    9900012    2    1    2    0    0 -0.86287566223E-01 -0.15685807977E+02  0.40466918105E+02  0.47787268689E+02  0.19999989261E+02 0.  0.
         12    1    1    2    0    0  0.86287566223E-01  0.15685807977E+02 -0.40466918105E+02  0.43400731311E+02  0.00000000000E+00 0. -1.
         11    1    3    3    0    0  0.57534924492E+01 -0.59935817829E+00  0.15968330804E+02  0.16983800944E+02  0.51100000000E-03 0. -1.
        -11    1    3    3    0    0 -0.23080332226E+01 -0.93231499286E+01  0.65530493044E+01  0.11627149152E+02  0.51100000000E-03 0.  1.
        -12    1    3    3    0    0 -0.35317467928E+01 -0.57632998702E+01  0.17945537997E+02  0.19176318593E+02  0.00000000000E+00 0.  1.
</event>
<event>
 7    1  0.2812635E-010  0.4778727E+02  0.7816164E-02  0.1312668E+00
        -11   -1    0    0    0    0  0.00000000000E+00  0.00000000000E+00  0.45593999997E+02  0.45594000000E+02  0.51100000000E-03 0.  1.
         11   -1    0    0    0    0 -0.00000000000E+00 -0.00000000000E+00 -0.45593999997E+02  0.45594000000E+02  0.51100000000E-03 0. -1.
    9900012    2    1    2    0    0 -0.44403492669E+01 -0.14245845555E+02  0.40754906176E+02  0.47787271957E+02  0.20000004163E+02 0.  0.
         12    1    1    2    0    0  0.44403492669E+01  0.14245845555E+02 -0.40754906176E+02  0.43400728043E+02  0.00000000000E+00 0. -1.
         11    1    3    3    0    0 -0.77253782986E+01 -0.25350837222E+01  0.13575693727E+02  0.15824271856E+02  0.51100000000E-03 0. -1.
        -11    1    3    3    0    0  0.40365529268E+01 -0.12552177002E+02  0.16026192850E+02  0.20753066389E+02  0.51100000000E-03 0.  1.
        -12    1    3    3    0    0 -0.75152389511E+00  0.84141516978E+00  0.11153019599E+02  0.11209933712E+02  0.00000000000E+00 0.  1.
</event>
<event>
 7    1  0.2812635E-010  0.4778727E+02  0.7816164E-02  0.1312668E+00
        -11   -1    0    0    0    0  0.00000000000E+00  0.00000000000E+00  0.45593999997E+02  0.45594000000E+02  0.51100000000E-03 0. -1.
         11   -1    0    0    0    0 -0.00000000000E+00 -0.00000000000E+00 -0.45593999997E+02  0.45594000000E+02  0.51100000000E-03 0.  1.
    9900012    2    1    2    0    0 -0.31679215133E+02 -0.10773377111E+01 -0.29646079615E+02  0.47787270000E+02  0.19999995238E+02 0.  0.
         12    1    1    2    0    0  0.31679215133E+02  0.10773377111E+01  0.29646079615E+02  0.43400730000E+02  0.00000000000E+00 0. -1.
         11    1    3    3    0    0 -0.12173866857E+02 -0.59871034731E+01 -0.20762972235E+02  0.24802206728E+02  0.51100000000E-03 0. -1.
        -11    1    3    3    0    0 -0.18814200264E+02  0.39119246075E+01 -0.64572620410E+01  0.20272481817E+02  0.51100000000E-03 0.  1.
        -12    1    3    3    0    0 -0.69114801233E+00  0.99784115451E+00 -0.24258453388E+01  0.27125814555E+01  0.00000000000E+00 0.  1.
</event>
<event>
 7    1  0.2812635E-010  0.4778729E+02  0.7816164E-02  0.1312668E+00
        -11   -1    0    0    0    0  0.00000000000E+00  0.00000000000E+00  0.45593999997E+02  0.45594000000E+02  0.51100000000E-03 0.  1.
         11   -1    0    0    0    0 -0.00000000000E+00 -0.00000000000E+00 -0.45593999997E+02  0.45594000000E+02  0.51100000000E-03 0. -1.
    9900012    2    1    2    0    0 -0.26992430909E+02 -0.39861467183E+01  0.33751155591E+02  0.47787294985E+02  0.20000109155E+02 0.  0.
         12    1    1    2    0    0  0.26992430909E+02  0.39861467183E+01 -0.33751155591E+02  0.43400705015E+02  0.00000000000E+00 0. -1.
         11    1    3    3    0    0 -0.66834439752E+01 -0.55480527563E+01  0.11941834404E+01  0.87678610337E+01  0.51100000000E-03 0. -1.
        -11    1    3    3    0    0 -0.19612757915E+02  0.23540464082E+01  0.27533831666E+02  0.33886777569E+02  0.51100000000E-03 0.  1.
         12    1    3    3    0    0 -0.69622901900E+00 -0.79214037028E+00  0.50231404847E+01  0.51326563826E+01  0.00000000000E+00 0. -1.
</event>
<event>
 7    1  0.4760557E-010  0.4778733E+02  0.7816164E-02  0.1312668E+00
        -11   -1    0    0    0    0  0.00000000000E+00  0.00000000000E+00  0.45593999997E+02  0.45594000000E+02  0.51100000000E-03 0.  1.
         11   -1    0    0    0    0 -0.00000000000E+00 -0.00000000000E+00 -0.45593999997E+02  0.45594000000E+02  0.51100000000E-03 0. -1.
    9900012    2    1    2    0    0 -0.43390988879E+02  0.62868073794E+00 -0.66719067080E+00  0.47787328360E+02  0.20000261324E+02 0.  0.
         12    1    1    2    0    0  0.43390988879E+02 -0.62868073794E+00  0.66719067080E+00  0.43400671640E+02  0.00000000000E+00 0. -1.
         11    1    3    3    0    0 -0.74666002971E+01  0.40784440308E+01 -0.64407393055E+01  0.10670845738E+02  0.51100000000E-03 0. -1.
        -11    1    3    3    0    0 -0.25804271158E+02  0.37687666836E+00  0.48389358060E+01  0.26256765718E+02  0.51100000000E-03 0.  1.
         12    1    3    3    0    0 -0.10120117425E+02 -0.38266399612E+01  0.93461282873E+00  0.10859716903E+02  0.00000000000E+00 0. -1.
</event>
<event>
 7    1  0.2812635E-010  0.4778725E+02  0.7816164E-02  0.1312668E+00
        -11   -1    0    0    0    0  0.00000000000E+00  0.00000000000E+00  0.45593999997E+02  0.45594000000E+02  0.51100000000E-03 0.  1.
         11   -1    0    0    0    0 -0.00000000000E+00 -0.00000000000E+00 -0.45593999997E+02  0.45594000000E+02  0.51100000000E-03 0. -1.
    9900012    2    1    2    0    0  0.34948299976E+02  0.24357669189E+01  0.25618513251E+02  0.47787252853E+02  0.19999917059E+02 0.  0.
         12    1    1    2    0    0 -0.34948299976E+02 -0.24357669189E+01 -0.25618513251E+02  0.43400747147E+02  0.00000000000E+00 0. -1.
         11    1    3    3    0    0  0.78310315282E+01  0.14546988383E+01  0.30149626195E+01  0.85165253105E+01  0.51100000000E-03 0. -1.
        -11    1    3    3    0    0  0.80018966001E+01  0.65801494779E+01  0.18843231699E+01  0.10529928320E+02  0.51100000000E-03 0.  1.
        -12    1    3    3    0    0  0.19115371848E+02 -0.55990813973E+01  0.20719227461E+02  0.28740799223E+02  0.00000000000E+00 0.  1.
</event>
<event>
 7    1  0.2812635E-010  0.4778726E+02  0.7816164E-02  0.1312668E+00
        -11   -1    0    0    0    0  0.00000000000E+00  0.00000000000E+00  0.45593999997E+02  0.45594000000E+02  0.51100000000E-03 0.  1.
         11   -1    0    0    0    0 -0.00000000000E+00 -0.00000000000E+00 -0.45593999997E+02  0.45594000000E+02  0.51100000000E-03 0. -1.
    9900012    2    1    2    0    0  0.71929272531E+00  0.38516635337E+02  0.19989391341E+02  0.47787258694E+02  0.19999943691E+02 0.  0.
         12    1    1    2    0    0 -0.71929272531E+00 -0.38516635337E+02 -0.19989391341E+02  0.43400741306E+02  0.00000000000E+00 0. -1.
         11    1    3    3    0    0  0.31320431722E+01 -0.80452879806E+00  0.24882014446E+01  0.40802092728E+01  0.51100000000E-03 0. -1.
        -11    1    3    3    0    0 -0.58854738537E+00  0.21654999762E+02  0.13423610573E+02  0.25484872450E+02  0.51100000000E-03 0.  1.
         12    1    3    3    0    0 -0.18242030615E+01  0.17666164372E+02  0.40775793240E+01  0.18222176972E+02  0.00000000000E+00 0. -1.
</event>
<event>
 7    1  0.2812635E-010  0.4778727E+02  0.7816164E-02  0.1312668E+00
        -11   -1    0    0    0    0  0.00000000000E+00  0.00000000000E+00  0.45593999997E+02  0.45594000000E+02  0.51100000000E-03 0. -1.
         11   -1    0    0    0    0 -0.00000000000E+00 -0.00000000000E+00 -0.45593999997E+02  0.45594000000E+02  0.51100000000E-03 0.  1.
    9900012    2    1    2    0    0  0.38303614918E+02 -0.10691223337E+02 -0.17382573446E+02  0.47787273833E+02  0.20000012712E+02 0.  0.
         12    1    1    2    0    0 -0.38303614918E+02  0.10691223337E+02  0.17382573446E+02  0.43400726167E+02  0.00000000000E+00 0. -1.
         11    1    3    3    0    0 -0.91052187630E+00 -0.30762087927E+01 -0.35901734750E+00  0.32281580414E+01  0.51100000000E-03 0. -1.
        -11    1    3    3    0    0  0.31680079290E+02 -0.10091266473E+02 -0.13740998834E+02  0.35976049423E+02  0.51100000000E-03 0.  1.
         12    1    3    3    0    0  0.75340575044E+01  0.24762519279E+01 -0.32825572643E+01  0.85830663683E+01  0.00000000000E+00 0. -1.
</event>
<event>
 7    1  0.2812635E-010  0.4778727E+02  0.7816164E-02  0.1312668E+00
        -11   -1    0    0    0    0  0.00000000000E+00  0.00000000000E+00  0.45593999997E+02  0.45594000000E+02  0.51100000000E-03 0.  1.
         11   -1    0    0    0    0 -0.00000000000E+00 -0.00000000000E+00 -0.45593999997E+02  0.45594000000E+02  0.51100000000E-03 0. -1.
    9900012    2    1    2    0    0 -0.31765918982E+02  0.25544927364E+02  0.14899877953E+02  0.47787270907E+02  0.19999999374E+02 0.  0.
         12    1    1    2    0    0  0.31765918982E+02 -0.25544927364E+02 -0.14899877953E+02  0.43400729093E+02  0.00000000000E+00 0. -1.
         11    1    3    3    0    0 -0.77346159341E+01  0.18438429414E+01 -0.24956724693E+01  0.83338119595E+01  0.51100000000E-03 0. -1.
        -11    1    3    3    0    0 -0.11701340137E+02  0.17171037316E+02  0.65669964446E+01  0.21792001425E+02  0.51100000000E-03 0.  1.
         12    1    3    3    0    0 -0.12329962910E+02  0.65300471059E+01  0.10828553978E+02  0.17661457523E+02  0.00000000000E+00 0. -1.
</event>
<event>
 7    1  0.2812635E-010  0.4778727E+02  0.7816164E-02  0.1312668E+00
        -11   -1    0    0    0    0  0.00000000000E+00  0.00000000000E+00  0.45593999997E+02  0.45594000000E+02  0.51100000000E-03 0. -1.
         11   -1    0    0    0    0 -0.00000000000E+00 -0.00000000000E+00 -0.45593999997E+02  0.45594000000E+02  0.51100000000E-03 0.  1.
    9900012    2    1    2    0    0  0.83975621374E+01 -0.22503530457E+02 -0.36148241564E+02  0.47787270731E+02  0.19999998573E+02 0.  0.
         12    1    1    2    0    0 -0.83975621374E+01  0.22503530457E+02  0.36148241564E+02  0.43400729269E+02  0.00000000000E+00 0. -1.
         11    1    3    3    0    0  0.85983346821E+01 -0.67918779398E+01 -0.62744307218E+01  0.12626537388E+02  0.51100000000E-03 0. -1.
        -11    1    3    3    0    0  0.28889288567E+01 -0.13007052987E+02 -0.16712537968E+02  0.21373775122E+02  0.51100000000E-03 0.  1.
         12    1    3    3    0    0 -0.30897014014E+01 -0.27045995305E+01 -0.13161272874E+02  0.13786958222E+02  0.00000000000E+00 0. -1.
</event>
<event>
 7    1  0.2812635E-010  0.4778727E+02  0.7816164E-02  0.1312668E+00
        -11   -1    0    0    0    0  0.00000000000E+00  0.00000000000E+00  0.45593999997E+02  0.45594000000E+02  0.51100000000E-03 0.  1.
         11   -1    0    0    0    0 -0.00000000000E+00 -0.00000000000E+00 -0.45593999997E+02  0.45594000000E+02  0.51100000000E-03 0. -1.
    9900012    2    1    2    0    0  0.35986941315E+02  0.19919502865E+02  0.13848351756E+02  0.47787269753E+02  0.19999994111E+02 0.  0.
         12    1    1    2    0    0 -0.35986941315E+02 -0.19919502865E+02 -0.13848351756E+02  0.43400730247E+02  0.00000000000E+00 0. -1.
         11    1    3    3    0    0  0.23171164982E+01 -0.21890515828E+01  0.21900206218E+01  0.38674495838E+01  0.51100000000E-03 0. -1.
        -11    1    3    3    0    0  0.16672711191E+02  0.17046023105E+02  0.25430847844E+01  0.23979438747E+02  0.51100000000E-03 0.  1.
        -12    1    3    3    0    0  0.16997113626E+02  0.50625313432E+01  0.91152463503E+01  0.19940381422E+02  0.00000000000E+00 0.  1.
</event>
<event>
 7    1  0.2812635E-010  0.4778727E+02  0.7816164E-02  0.1312668E+00
        -11   -1    0    0    0    0  0.00000000000E+00  0.00000000000E+00  0.45593999997E+02  0.45594000000E+02  0.51100000000E-03 0. -1.
         11   -1    0    0    0    0 -0.00000000000E+00 -0.00000000000E+00 -0.45593999997E+02  0.45594000000E+02  0.51100000000E-03 0.  1.
    9900012    2    1    2    0    0 -0.13876035144E+02 -0.20412360641E+02 -0.35698941893E+02  0.47787271083E+02  0.20000000174E+02 0.  0.
         12    1    1    2    0    0  0.13876035144E+02  0.20412360641E+02  0.35698941893E+02  0.43400728917E+02  0.00000000000E+00 0. -1.
         11    1    3    3    0    0 -0.51227827062E+01 -0.28300363948E+01 -0.64573794381E+01  0.87149158412E+01  0.51100000000E-03 0. -1.
        -11    1    3    3    0    0 -0.92179936164E+01 -0.20608944064E+02 -0.27385072938E+02  0.35491438430E+02  0.51100000000E-03 0.  1.
        -12    1    3    3    0    0  0.46474117897E+00  0.30266198175E+01 -0.18564895174E+01  0.35809168115E+01  0.00000000000E+00 0.  1.
</event>
<event>
 7    1  0.2812635E-010  0.4778727E+02  0.7816164E-02  0.1312668E+00
        -11   -1    0    0    0    0  0.00000000000E+00  0.00000000000E+00  0.45593999997E+02  0.45594000000E+02  0.51100000000E-03 0.  1.
         11   -1    0    0    0    0 -0.00000000000E+00 -0.00000000000E+00 -0.45593999997E+02  0.45594000000E+02  0.51100000000E-03 0. -1.
    9900012    2    1    2    0    0  0.21388369511E+02  0.19878521959E+02  0.32109270003E+02  0.47787271829E+02  0.20000003578E+02 0.  0.
         12    1    1    2    0    0 -0.21388369511E+02 -0.19878521959E+02 -0.32109270003E+02  0.43400728171E+02  0.00000000000E+00 0. -1.
         11    1    3    3    0    0  0.84242112504E+00  0.69211226407E+01  0.14180163082E+02  0.15801539079E+02  0.51100000000E-03 0. -1.
        -11    1    3    3    0    0  0.20217169833E+02  0.89841519907E+01  0.16977277053E+02  0.27886858544E+02  0.51100000000E-03 0.  1.
         12    1    3    3    0    0  0.32877855266E+00  0.39732473272E+01  0.95182986818E+00  0.40988742061E+01  0.00000000000E+00 0. -1.
</event>
<event>
 7    1  0.2812635E-010  0.4778727E+02  0.7816164E-02  0.1312668E+00
        -11   -1    0    0    0    0  0.00000000000E+00  0.00000000000E+00  0.45593999997E+02  0.45594000000E+02  0.51100000000E-03 0.  1.
         11   -1    0    0    0    0 -0.00000000000E+00 -0.00000000000E+00 -0.45593999997E+02  0.45594000000E+02  0.51100000000E-03 0. -1.
    9900012    2    1    2    0    0 -0.42279395351E+02 -0.96368019349E+01 -0.17911706871E+01  0.47787268264E+02  0.19999987324E+02 0.  0.
         12    1    1    2    0    0  0.42279395351E+02  0.96368019349E+01  0.17911706871E+01  0.43400731736E+02  0.00000000000E+00 0. -1.
         11    1    3    3    0    0 -0.24224467167E+02  0.22905702356E+01  0.51088902995E+01  0.24863070644E+02  0.51100000000E-03 0. -1.
        -11    1    3    3    0    0 -0.14354270905E+02 -0.95284978764E+01 -0.67722900534E+01  0.18512192680E+02  0.51100000000E-03 0.  1.
         12    1    3    3    0    0 -0.37006572789E+01 -0.23988742941E+01 -0.12777093314E+00  0.44120049394E+01  0.00000000000E+00 0. -1.
</event>
<event>
 7    1  0.2812635E-010  0.4778727E+02  0.7816164E-02  0.1312668E+00
        -11   -1    0    0    0    0  0.00000000000E+00  0.00000000000E+00  0.45593999997E+02  0.45594000000E+02  0.51100000000E-03 0.  1.
         11   -1    0    0    0    0 -0.00000000000E+00 -0.00000000000E+00 -0.45593999997E+02  0.45594000000E+02  0.51100000000E-03 0. -1.
    9900012    2    1    2    0    0  0.36975779155E+02  0.22643930363E+02 -0.19150854034E+01  0.47787269839E+02  0.19999994505E+02 0.  0.
         12    1    1    2    0    0 -0.36975779155E+02 -0.22643930363E+02  0.19150854034E+01  0.43400730161E+02  0.00000000000E+00 0. -1.
         11    1    3    3    0    0  0.19624928352E+02  0.15325983082E+02  0.45070079672E+01  0.25304874853E+02  0.51100000000E-03 0.  1.
        -11    1    3    3    0    0  0.57933347381E+01  0.51714938133E+01  0.20029003850E+01  0.80198931328E+01  0.51100000000E-03 0. -1.
         12    1    3    3    0    0  0.11557516065E+02  0.21464534675E+01 -0.84249937556E+01  0.14462501853E+02  0.00000000000E+00 0. -1.
</event>
<event>
 7    1  0.2812635E-010  0.4778727E+02  0.7816164E-02  0.1312668E+00
        -11   -1    0    0    0    0  0.00000000000E+00  0.00000000000E+00  0.45593999997E+02  0.45594000000E+02  0.51100000000E-03 0.  1.
         11   -1    0    0    0    0 -0.00000000000E+00 -0.00000000000E+00 -0.45593999997E+02  0.45594000000E+02  0.51100000000E-03 0. -1.
    9900012    2    1    2    0    0  0.21289761050E+02 -0.34337057729E+02  0.15853569724E+02  0.47787272678E+02  0.20000007450E+02 0.  0.
         12    1    1    2    0    0 -0.21289761050E+02  0.34337057729E+02 -0.15853569724E+02  0.43400727322E+02  0.00000000000E+00 0. -1.
         11    1    3    3    0    0 -0.28168650675E+01 -0.65356091883E+01  0.79923463240E+00  0.71615426083E+01  0.51100000000E-03 0. -1.
        -11    1    3    3    0    0  0.21707344264E+02 -0.22587390756E+02  0.97474937350E+01  0.32808728267E+02  0.51100000000E-03 0.  1.
        -12    1    3    3    0    0  0.23992818535E+01 -0.52140577849E+01  0.53068413568E+01  0.78170018026E+01  0.00000000000E+00 0.  1.
</event>
<event>
 7    1  0.2812635E-010  0.4778728E+02  0.7816164E-02  0.1312668E+00
        -11   -1    0    0    0    0  0.00000000000E+00  0.00000000000E+00  0.45593999997E+02  0.45594000000E+02  0.51100000000E-03 0.  1.
         11   -1    0    0    0    0 -0.00000000000E+00 -0.00000000000E+00 -0.45593999997E+02  0.45594000000E+02  0.51100000000E-03 0. -1.
    9900012    2    1    2    0    0  0.21205295577E+01 -0.43345560699E+02 -0.53712096394E+00  0.47787276770E+02  0.20000026106E+02 0.  0.
         12    1    1    2    0    0 -0.21205295577E+01  0.43345560699E+02  0.53712096394E+00  0.43400723230E+02  0.00000000000E+00 0. -1.
         11    1    3    3    0    0  0.16229136642E+01 -0.88240864983E+01 -0.38351076577E-01  0.89721693228E+01  0.51100000000E-03 0. -1.
        -11    1    3    3    0    0 -0.13619547419E+00 -0.36074866428E+02  0.16212663376E+01  0.36111536132E+02  0.51100000000E-03 0.  1.
         12    1    3    3    0    0  0.63381136768E+00  0.15533922274E+01 -0.21200362249E+01  0.27035713153E+01  0.00000000000E+00 0. -1.
</event>
<event>
 7    1  0.2812635E-010  0.4778727E+02  0.7816164E-02  0.1312668E+00
        -11   -1    0    0    0    0  0.00000000000E+00  0.00000000000E+00  0.45593999997E+02  0.45594000000E+02  0.51100000000E-03 0. -1.
         11   -1    0    0    0    0 -0.00000000000E+00 -0.00000000000E+00 -0.45593999997E+02  0.45594000000E+02  0.51100000000E-03 0.  1.
    9900012    2    1    2    0    0 -0.24267686434E+02  0.18173361733E+02 -0.31055303203E+02  0.47787267995E+02  0.19999986096E+02 0.  0.
         12    1    1    2    0    0  0.24267686434E+02 -0.18173361733E+02  0.31055303203E+02  0.43400732005E+02  0.00000000000E+00 0. -1.
         11    1    3    3    0    0 -0.14944205368E+01 -0.24533665987E+01 -0.78237189323E+01  0.83344393093E+01  0.51100000000E-03 0. -1.
        -11    1    3    3    0    0 -0.16175995643E+02  0.10121925168E+02 -0.10967551228E+02  0.22009165917E+02  0.51100000000E-03 0.  1.
         12    1    3    3    0    0 -0.65972702543E+01  0.10504803163E+02 -0.12264033043E+02  0.17443662769E+02  0.00000000000E+00 0. -1.
</event>
<event>
 7    1  0.2812635E-010  0.4778727E+02  0.7816164E-02  0.1312668E+00
        -11   -1    0    0    0    0  0.00000000000E+00  0.00000000000E+00  0.45593999997E+02  0.45594000000E+02  0.51100000000E-03 0.  1.
         11   -1    0    0    0    0 -0.00000000000E+00 -0.00000000000E+00 -0.45593999997E+02  0.45594000000E+02  0.51100000000E-03 0. -1.
    9900012    2    1    2    0    0 -0.31882395951E+02  0.26878767342E+02  0.12027807761E+02  0.47787268843E+02  0.19999989965E+02 0.  0.
         12    1    1    2    0    0  0.31882395951E+02 -0.26878767342E+02 -0.12027807761E+02  0.43400731157E+02  0.00000000000E+00 0. -1.
         11    1    3    3    0    0 -0.16213925675E+01 -0.20051460283E+01  0.31231913299E+01  0.40501665148E+01  0.51100000000E-03 0. -1.
        -11    1    3    3    0    0 -0.15976248904E+02  0.19646362659E+02  0.85340006028E+01  0.26721700195E+02  0.51100000000E-03 0.  1.
        -12    1    3    3    0    0 -0.14284754479E+02  0.92375507117E+01  0.37061582844E+00  0.17015402134E+02  0.00000000000E+00 0.  1.
</event>
<event>
 7    1  0.2812635E-010  0.4778727E+02  0.7816164E-02  0.1312668E+00
        -11   -1    0    0    0    0  0.00000000000E+00  0.00000000000E+00  0.45593999997E+02  0.45594000000E+02  0.51100000000E-03 0.  1.
         11   -1    0    0    0    0 -0.00000000000E+00 -0.00000000000E+00 -0.45593999997E+02  0.45594000000E+02  0.51100000000E-03 0. -1.
    9900012    2    1    2    0    0 -0.23489292559E+02 -0.87053217635E+01  0.35441416661E+02  0.47787268360E+02  0.19999987761E+02 0.  0.
         12    1    1    2    0    0  0.23489292559E+02  0.87053217635E+01 -0.35441416661E+02  0.43400731640E+02  0.00000000000E+00 0. -1.
         11    1    3    3    0    0 -0.64033955820E+00 -0.23313241035E+01 -0.21713035166E+01  0.32495639781E+01  0.51100000000E-03 0. -1.
        -11    1    3    3    0    0 -0.13315923958E+02 -0.41924948375E+01  0.24206264917E+02  0.27943408978E+02  0.51100000000E-03 0.  1.
         12    1    3    3    0    0 -0.95330290422E+01 -0.21815028224E+01  0.13406455261E+02  0.16594295404E+02  0.00000000000E+00 0. -1.
</event>
<event>
 7    1  0.2812635E-010  0.4778727E+02  0.7816164E-02  0.1312668E+00
        -11   -1    0    0    0    0  0.00000000000E+00  0.00000000000E+00  0.45593999997E+02  0.45594000000E+02  0.51100000000E-03 0.  1.
         11   -1    0    0    0    0 -0.00000000000E+00 -0.00000000000E+00 -0.45593999997E+02  0.45594000000E+02  0.51100000000E-03 0. -1.
    9900012    2    1    2    0    0  0.19903623469E+02  0.68328514990E+01  0.37957621702E+02  0.47787272678E+02  0.20000007448E+02 0.  0.
         12    1    1    2    0    0 -0.19903623469E+02 -0.68328514990E+01 -0.37957621702E+02  0.43400727322E+02  0.00000000000E+00 0. -1.
         11    1    3    3    0    0  0.18839172552E+02  0.80643704926E+01  0.18083693330E+02  0.27330723711E+02  0.51100000000E-03 0. -1.
        -11    1    3    3    0    0  0.27837955422E+01 -0.12111413129E+01  0.14493941066E+02  0.14808467469E+02  0.51100000000E-03 0.  1.
         12    1    3    3    0    0 -0.17193446249E+01 -0.20377680648E-01  0.53799873062E+01  0.56480814976E+01  0.00000000000E+00 0. -1.
</event>
<event>
 7    1  0.2812635E-010  0.4778727E+02  0.7816164E-02  0.1312668E+00
        -11   -1    0    0    0    0  0.00000000000E+00  0.00000000000E+00  0.45593999997E+02  0.45594000000E+02  0.51100000000E-03 0.  1.
         11   -1    0    0    0    0 -0.00000000000E+00 -0.00000000000E+00 -0.45593999997E+02  0.45594000000E+02  0.51100000000E-03 0. -1.
    9900012    2    1    2    0    0 -0.21711342854E+02 -0.76134958257E+01  0.36800478990E+02  0.47787274418E+02  0.20000015380E+02 0.  0.
         12    1    1    2    0    0  0.21711342854E+02  0.76134958257E+01 -0.36800478990E+02  0.43400725582E+02  0.00000000000E+00 0. -1.
         11    1    3    3    0    0 -0.13463980802E+02  0.27665448227E+01  0.92346098263E+01  0.16559304581E+02  0.51100000000E-03 0. -1.
        -11    1    3    3    0    0 -0.10790933900E+01 -0.62563309292E+01  0.13323396807E+02  0.14758693098E+02  0.51100000000E-03 0.  1.
         12    1    3    3    0    0 -0.71682686617E+01 -0.41237097191E+01  0.14242472357E+02  0.16469276738E+02  0.00000000000E+00 0. -1.
</event>
<event>
 7    1  0.2812635E-010  0.4778728E+02  0.7816164E-02  0.1312668E+00
        -11   -1    0    0    0    0  0.00000000000E+00  0.00000000000E+00  0.45593999997E+02  0.45594000000E+02  0.51100000000E-03 0.  1.
         11   -1    0    0    0    0 -0.00000000000E+00 -0.00000000000E+00 -0.45593999997E+02  0.45594000000E+02  0.51100000000E-03 0. -1.
    9900012    2    1    2    0    0  0.37961308400E+02 -0.19547663718E+02  0.77750022976E+01  0.47787277046E+02  0.20000027362E+02 0.  0.
         12    1    1    2    0    0 -0.37961308400E+02  0.19547663718E+02 -0.77750022976E+01  0.43400722954E+02  0.00000000000E+00 0. -1.
         11    1    3    3    0    0  0.11485087786E+02 -0.15632001675E+02 -0.80376891947E+00  0.19414241230E+02  0.51100000000E-03 0. -1.
        -11    1    3    3    0    0  0.19031371313E+02 -0.17336253286E+01  0.46080349531E+01  0.19657887405E+02  0.51100000000E-03 0.  1.
        -12    1    3    3    0    0  0.74448493015E+01 -0.21820367138E+01  0.39707362639E+01  0.87151484107E+01  0.00000000000E+00 0.  1.
</event>
<event>
 7    1  0.2812635E-010  0.4778727E+02  0.7816164E-02  0.1312668E+00
        -11   -1    0    0    0    0  0.00000000000E+00  0.00000000000E+00  0.45593999997E+02  0.45594000000E+02  0.51100000000E-03 0.  1.
         11   -1    0    0    0    0 -0.00000000000E+00 -0.00000000000E+00 -0.45593999997E+02  0.45594000000E+02  0.51100000000E-03 0. -1.
    9900012    2    1    2    0    0 -0.43327662190E+02 -0.24708145360E+01 -0.48219366208E+00  0.47787265605E+02  0.19999975198E+02 0.  0.
         12    1    1    2    0    0  0.43327662190E+02  0.24708145360E+01  0.48219366208E+00  0.43400734395E+02  0.00000000000E+00 0. -1.
         11    1    3    3    0    0  0.38287456679E-03  0.99546893183E+00  0.94447343320E+00  0.13722204152E+01  0.51100000000E-03 0. -1.
        -11    1    3    3    0    0 -0.38733148368E+02 -0.38399457745E+01  0.41909188632E+01  0.39147998253E+02  0.51100000000E-03 0.  1.
        -12    1    3    3    0    0 -0.45948966966E+01  0.37366230670E+00 -0.56175859584E+01  0.72670469362E+01  0.00000000000E+00 0.  1.
</event>
<event>
 7    1  0.2812635E-010  0.4778727E+02  0.7816164E-02  0.1312668E+00
        -11   -1    0    0    0    0  0.00000000000E+00  0.00000000000E+00  0.45593999997E+02  0.45594000000E+02  0.51100000000E-03 0.  1.
         11   -1    0    0    0    0 -0.00000000000E+00 -0.00000000000E+00 -0.45593999997E+02  0.45594000000E+02  0.51100000000E-03 0. -1.
    9900012    2    1    2    0    0  0.26953183997E+02  0.27396179568E+02  0.20164287084E+02  0.47787271249E+02  0.20000000933E+02 0.  0.
         12    1    1    2    0    0 -0.26953183997E+02 -0.27396179568E+02 -0.20164287084E+02  0.43400728751E+02  0.00000000000E+00 0. -1.
         11    1    3    3    0    0 -0.51348846439E+00 -0.15414467021E+01  0.21844406679E+00  0.16393432862E+01  0.51100000000E-03 0. -1.
        -11    1    3    3    0    0  0.23266181724E+02  0.16809593518E+02  0.12474110421E+02  0.31296662399E+02  0.51100000000E-03 0.  1.
        -12    1    3    3    0    0  0.42004907378E+01  0.12128032752E+02  0.74717325963E+01  0.14851265564E+02  0.00000000000E+00 0.  1.
</event>
<event>
 7    1  0.2812635E-010  0.4778727E+02  0.7816164E-02  0.1312668E+00
        -11   -1    0    0    0    0  0.00000000000E+00  0.00000000000E+00  0.45593999997E+02  0.45594000000E+02  0.51100000000E-03 0. -1.
         11   -1    0    0    0    0 -0.00000000000E+00 -0.00000000000E+00 -0.45593999997E+02  0.45594000000E+02  0.51100000000E-03 0.  1.
    9900012    2    1    2    0    0 -0.43274734901E+02 -0.32937856182E+01  0.26733590129E+00  0.47787272208E+02  0.20000005304E+02 0.  0.
         12    1    1    2    0    0  0.43274734901E+02  0.32937856182E+01 -0.26733590129E+00  0.43400727792E+02  0.00000000000E+00 0. -1.
         11    1    3    3    0    0 -0.12925538407E+02 -0.88028078213E+01 -0.48018072417E+01  0.16358982906E+02  0.51100000000E-03 0. -1.
        -11    1    3    3    0    0 -0.92775066796E+01  0.27243452510E+01  0.27165285556E+01  0.10043590737E+02  0.51100000000E-03 0.  1.
         12    1    3    3    0    0 -0.21071689813E+02  0.27846769521E+01  0.23526145875E+01  0.21384698565E+02  0.00000000000E+00 0. -1.
</event>
<event>
 7    1  0.2812635E-010  0.4778726E+02  0.7816164E-02  0.1312668E+00
        -11   -1    0    0    0    0  0.00000000000E+00  0.00000000000E+00  0.45593999997E+02  0.45594000000E+02  0.51100000000E-03 0. -1.
         11   -1    0    0    0    0 -0.00000000000E+00 -0.00000000000E+00 -0.45593999997E+02  0.45594000000E+02  0.51100000000E-03 0.  1.
    9900012    2    1    2    0    0  0.40938366060E+02 -0.67394328951E+00  0.14395148734E+02  0.47787258966E+02  0.19999944930E+02 0.  0.
         12    1    1    2    0    0 -0.40938366060E+02  0.67394328951E+00 -0.14395148734E+02  0.43400741034E+02  0.00000000000E+00 0. -1.
         11    1    3    3    0    0  0.13063805416E+01  0.42187734735E+01  0.16692531936E+01  0.47213436886E+01  0.51100000000E-03 0. -1.
        -11    1    3    3    0    0  0.58143393695E+01 -0.16515753518E+01  0.58354207393E+01  0.84015700266E+01  0.51100000000E-03 0.  1.
         12    1    3    3    0    0  0.33817646149E+02 -0.32411414112E+01  0.68904748006E+01  0.34664345251E+02  0.00000000000E+00 0. -1.
</event>
<event>
 7    1  0.2812635E-010  0.4778727E+02  0.7816164E-02  0.1312668E+00
        -11   -1    0    0    0    0  0.00000000000E+00  0.00000000000E+00  0.45593999997E+02  0.45594000000E+02  0.51100000000E-03 0.  1.
         11   -1    0    0    0    0 -0.00000000000E+00 -0.00000000000E+00 -0.45593999997E+02  0.45594000000E+02  0.51100000000E-03 0. -1.
    9900012    2    1    2    0    0 -0.39683313830E+02 -0.11421107588E+01  0.17537196697E+02  0.47787273261E+02  0.20000010107E+02 0.  0.
         12    1    1    2    0    0  0.39683313830E+02  0.11421107588E+01 -0.17537196697E+02  0.43400726739E+02  0.00000000000E+00 0. -1.
         11    1    3    3    0    0  0.56664927504E+00  0.16999437974E+00 -0.21117032426E+01  0.21930071445E+01  0.51100000000E-03 0. -1.
        -11    1    3    3    0    0 -0.32411170807E+02 -0.43003107568E+01  0.16603898789E+02  0.36669689404E+02  0.51100000000E-03 0.  1.
        -12    1    3    3    0    0 -0.78387922977E+01  0.29882056183E+01  0.30450011501E+01  0.89245767131E+01  0.00000000000E+00 0.  1.
</event>
<event>
 7    1  0.2812635E-010  0.4778727E+02  0.7816164E-02  0.1312668E+00
        -11   -1    0    0    0    0  0.00000000000E+00  0.00000000000E+00  0.45593999997E+02  0.45594000000E+02  0.51100000000E-03 0. -1.
         11   -1    0    0    0    0 -0.00000000000E+00 -0.00000000000E+00 -0.45593999997E+02  0.45594000000E+02  0.51100000000E-03 0.  1.
    9900012    2    1    2    0    0  0.23768052239E+01 -0.30339508992E+02 -0.30943311482E+02  0.47787268043E+02  0.19999986313E+02 0.  0.
         12    1    1    2    0    0 -0.23768052239E+01  0.30339508992E+02  0.30943311482E+02  0.43400731957E+02  0.00000000000E+00 0. -1.
         11    1    3    3    0    0  0.72368318222E+01 -0.53709753785E+01 -0.79645292557E+01  0.12027170817E+02  0.51100000000E-03 0. -1.
        -11    1    3    3    0    0 -0.34298470051E+01 -0.23630667719E+02 -0.23728369023E+02  0.33663152022E+02  0.51100000000E-03 0.  1.
         12    1    3    3    0    0 -0.14301795932E+01 -0.13378658951E+01  0.74958679626E+00  0.20969452036E+01  0.00000000000E+00 0. -1.
</event>
<event>
 7    1  0.2812635E-010  0.4778727E+02  0.7816164E-02  0.1312668E+00
        -11   -1    0    0    0    0  0.00000000000E+00  0.00000000000E+00  0.45593999997E+02  0.45594000000E+02  0.51100000000E-03 0.  1.
         11   -1    0    0    0    0 -0.00000000000E+00 -0.00000000000E+00 -0.45593999997E+02  0.45594000000E+02  0.51100000000E-03 0. -1.
    9900012    2    1    2    0    0  0.13599429793E+02 -0.19893090364E+02  0.36096311770E+02  0.47787271224E+02  0.20000000818E+02 0.  0.
         12    1    1    2    0    0 -0.13599429793E+02  0.19893090364E+02 -0.36096311770E+02  0.43400728776E+02  0.00000000000E+00 0. -1.
         11    1    3    3    0    0  0.12498364589E+02 -0.13659505668E+02  0.13406512318E+02  0.22858822921E+02  0.51100000000E-03 0. -1.
        -11    1    3    3    0    0  0.38845022855E+01 -0.29144514995E+01  0.17535979712E+02  0.18195987752E+02  0.51100000000E-03 0.  1.
         12    1    3    3    0    0 -0.27834370822E+01 -0.33191331961E+01  0.51538197393E+01  0.67324605508E+01  0.00000000000E+00 0. -1.
</event>
<event>
 7    1  0.2812635E-010  0.4778727E+02  0.7816164E-02  0.1312668E+00
        -11   -1    0    0    0    0  0.00000000000E+00  0.00000000000E+00  0.45593999997E+02  0.45594000000E+02  0.51100000000E-03 0. -1.
         11   -1    0    0    0    0 -0.00000000000E+00 -0.00000000000E+00 -0.45593999997E+02  0.45594000000E+02  0.51100000000E-03 0.  1.
    9900012    2    1    2    0    0  0.21376460421E+02 -0.59646077896E+01 -0.37297368172E+02  0.47787270988E+02  0.19999999744E+02 0.  0.
         12    1    1    2    0    0 -0.21376460421E+02  0.59646077896E+01  0.37297368172E+02  0.43400729012E+02  0.00000000000E+00 0. -1.
         11    1    3    3    0    0  0.13695774425E+02 -0.66277966183E+01 -0.10223168033E+02  0.18330714389E+02  0.51100000000E-03 0. -1.
        -11    1    3    3    0    0  0.79978985300E+01  0.34280050629E+01 -0.18548683720E+02  0.20488320273E+02  0.51100000000E-03 0.  1.
         12    1    3    3    0    0 -0.31721253371E+00 -0.27648162343E+01 -0.85255164181E+01  0.89682363259E+01  0.00000000000E+00 0. -1.
</event>
<event>
 7    1  0.2812635E-010  0.4778727E+02  0.7816164E-02  0.1312668E+00
        -11   -1    0    0    0    0  0.00000000000E+00  0.00000000000E+00  0.45593999997E+02  0.45594000000E+02  0.51100000000E-03 0.  1.
         11   -1    0    0    0    0 -0.00000000000E+00 -0.00000000000E+00 -0.45593999997E+02  0.45594000000E+02  0.51100000000E-03 0. -1.
    9900012    2    1    2    0    0 -0.67933997211E+01  0.15158723496E+02  0.40095960911E+02  0.47787271214E+02  0.20000000772E+02 0.  0.
         12    1    1    2    0    0  0.67933997211E+01 -0.15158723496E+02 -0.40095960911E+02  0.43400728786E+02  0.00000000000E+00 0. -1.
         11    1    3    3    0    0 -0.96103525281E+01  0.12248249315E+02  0.17093807384E+02  0.23120915599E+02  0.51100000000E-03 0. -1.
        -11    1    3    3    0    0  0.45932254271E+01  0.39319309467E+01  0.11596369966E+02  0.13077981398E+02  0.51100000000E-03 0.  1.
         12    1    3    3    0    0 -0.17762726201E+01 -0.10214567659E+01  0.11405783561E+02  0.11588374217E+02  0.00000000000E+00 0. -1.
</event>
<event>
 7    1  0.2812635E-010  0.4778727E+02  0.7816164E-02  0.1312668E+00
        -11   -1    0    0    0    0  0.00000000000E+00  0.00000000000E+00  0.45593999997E+02  0.45594000000E+02  0.51100000000E-03 0.  1.
         11   -1    0    0    0    0 -0.00000000000E+00 -0.00000000000E+00 -0.45593999997E+02  0.45594000000E+02  0.51100000000E-03 0. -1.
    9900012    2    1    2    0    0 -0.34732146114E+02  0.20259248866E+02  0.16335973360E+02  0.47787272311E+02  0.20000005776E+02 0.  0.
         12    1    1    2    0    0  0.34732146114E+02 -0.20259248866E+02 -0.16335973360E+02  0.43400727689E+02  0.00000000000E+00 0. -1.
         11    1    3    3    0    0 -0.32019275490E+01  0.72899266781E+01  0.10460341856E+01  0.80305391338E+01  0.51100000000E-03 0. -1.
        -11    1    3    3    0    0 -0.25687891806E+02  0.93727480457E+01  0.17598579828E+02  0.32518090405E+02  0.51100000000E-03 0.  1.
        -12    1    3    3    0    0 -0.58423267584E+01  0.35965741426E+01 -0.23086406539E+01  0.72386427722E+01  0.00000000000E+00 0.  1.
</event>
<event>
 7    1  0.2812635E-010  0.4778726E+02  0.7816164E-02  0.1312668E+00
        -11   -1    0    0    0    0  0.00000000000E+00  0.00000000000E+00  0.45593999997E+02  0.45594000000E+02  0.51100000000E-03 0.  1.
         11   -1    0    0    0    0 -0.00000000000E+00 -0.00000000000E+00 -0.45593999997E+02  0.45594000000E+02  0.51100000000E-03 0. -1.
    9900012    2    1    2    0    0  0.15381300263E+02 -0.38008120201E+01  0.40405362375E+02  0.47787264079E+02  0.19999968243E+02 0.  0.
         12    1    1    2    0    0 -0.15381300263E+02  0.38008120201E+01 -0.40405362375E+02  0.43400735921E+02  0.00000000000E+00 0. -1.
         11    1    3    3    0    0  0.37103662928E+01  0.60120429214E+01  0.86525090860E+01  0.11170380113E+02  0.51100000000E-03 0. -1.
        -11    1    3    3    0    0  0.78987916404E+01 -0.93636559754E+01  0.30055456860E+02  0.32456115756E+02  0.51100000000E-03 0.  1.
        -12    1    3    3    0    0  0.37721423300E+01 -0.44919896612E+00  0.16973964289E+01  0.41607682110E+01  0.00000000000E+00 0.  1.
</event>
<event>
 7    1  0.2812635E-010  0.4778727E+02  0.7816164E-02  0.1312668E+00
        -11   -1    0    0    0    0  0.00000000000E+00  0.00000000000E+00  0.45593999997E+02  0.45594000000E+02  0.51100000000E-03 0.  1.
         11   -1    0    0    0    0 -0.00000000000E+00 -0.00000000000E+00 -0.45593999997E+02  0.45594000000E+02  0.51100000000E-03 0. -1.
    9900012    2    1    2    0    0  0.20851865613E+02  0.19673761721E+02  0.32584754241E+02  0.47787269491E+02  0.19999992917E+02 0.  0.
         12    1    1    2    0    0 -0.20851865613E+02 -0.19673761721E+02 -0.32584754241E+02  0.43400730509E+02  0.00000000000E+00 0. -1.
         11    1    3    3    0    0  0.63896328642E+01  0.43773362780E+01  0.19224019532E+02  0.20725622023E+02  0.51100000000E-03 0. -1.
        -11    1    3    3    0    0  0.94170127813E+01  0.63575599765E+01  0.12296500608E+02  0.16742240771E+02  0.51100000000E-03 0.  1.
        -12    1    3    3    0    0  0.50452199673E+01  0.89388654664E+01  0.10642341011E+01  0.10319406696E+02  0.00000000000E+00 0.  1.
</event>
<event>
 7    1  0.2812635E-010  0.4778726E+02  0.7816164E-02  0.1312668E+00
        -11   -1    0    0    0    0  0.00000000000E+00  0.00000000000E+00  0.45593999997E+02  0.45594000000E+02  0.51100000000E-03 0.  1.
         11   -1    0    0    0    0 -0.00000000000E+00 -0.00000000000E+00 -0.45593999997E+02  0.45594000000E+02  0.51100000000E-03 0. -1.
    9900012    2    1    2    0    0 -0.18657271100E+01  0.31200650860E+02  0.30110834931E+02  0.47787263463E+02  0.19999965433E+02 0.  0.
         12    1    1    2    0    0  0.18657271100E+01 -0.31200650860E+02 -0.30110834931E+02  0.43400736537E+02  0.00000000000E+00 0. -1.
         11    1    3    3    0    0 -0.22470238991E+01  0.22537443310E+02  0.12520211313E+02  0.25879357777E+02  0.51100000000E-03 0. -1.
        -11    1    3    3    0    0 -0.37594450710E+01  0.41971745299E+01  0.13339399047E+02  0.14480651521E+02  0.51100000000E-03 0.  1.
         12    1    3    3    0    0  0.41407418601E+01  0.44660330202E+01  0.42512245710E+01  0.74272541657E+01  0.00000000000E+00 0. -1.
</event>
<event>
 7    1  0.2812635E-010  0.4778727E+02  0.7816164E-02  0.1312668E+00
        -11   -1    0    0    0    0  0.00000000000E+00  0.00000000000E+00  0.45593999997E+02  0.45594000000E+02  0.51100000000E-03 0. -1.
         11   -1    0    0    0    0 -0.00000000000E+00 -0.00000000000E+00 -0.45593999997E+02  0.45594000000E+02  0.51100000000E-03 0.  1.
    9900012    2    1    2    0    0  0.20835906843E+02  0.13278392442E+02 -0.35681545146E+02  0.47787269778E+02  0.19999994225E+02 0.  0.
         12    1    1    2    0    0 -0.20835906843E+02 -0.13278392442E+02  0.35681545146E+02  0.43400730222E+02  0.00000000000E+00 0. -1.
         11    1    3    3    0    0  0.12956570401E+02  0.60338512168E+01 -0.47637879520E+01  0.15065648110E+02  0.51100000000E-03 0. -1.
        -11    1    3    3    0    0  0.57072792367E+01  0.55100338204E+01 -0.22642869920E+02  0.23992354354E+02  0.51100000000E-03 0.  1.
         12    1    3    3    0    0  0.21720572059E+01  0.17345074045E+01 -0.82748872738E+01  0.87292673138E+01  0.00000000000E+00 0. -1.
</event>
<event>
 7    1  0.2812635E-010  0.4778727E+02  0.7816164E-02  0.1312668E+00
        -11   -1    0    0    0    0  0.00000000000E+00  0.00000000000E+00  0.45593999997E+02  0.45594000000E+02  0.51100000000E-03 0.  1.
         11   -1    0    0    0    0 -0.00000000000E+00 -0.00000000000E+00 -0.45593999997E+02  0.45594000000E+02  0.51100000000E-03 0. -1.
    9900012    2    1    2    0    0  0.17082392303E+02 -0.28069742141E+01  0.39798691423E+02  0.47787273393E+02  0.20000010710E+02 0.  0.
         12    1    1    2    0    0 -0.17082392303E+02  0.28069742141E+01 -0.39798691423E+02  0.43400726607E+02  0.00000000000E+00 0. -1.
         11    1    3    3    0    0  0.30438275424E+01  0.28430084066E+01  0.13690237114E+02  0.14309792990E+02  0.51100000000E-03 0.  1.
        -11    1    3    3    0    0  0.59579327057E+01 -0.10089401427E+02  0.15286951470E+02  0.19260941535E+02  0.51100000000E-03 0. -1.
        -12    1    3    3    0    0  0.80806320548E+01  0.44394188061E+01  0.10821502838E+02  0.14216538869E+02  0.00000000000E+00 0.  1.
</event>
<event>
 7    1  0.2812635E-010  0.4778727E+02  0.7816164E-02  0.1312668E+00
        -11   -1    0    0    0    0  0.00000000000E+00  0.00000000000E+00  0.45593999997E+02  0.45594000000E+02  0.51100000000E-03 0. -1.
         11   -1    0    0    0    0 -0.00000000000E+00 -0.00000000000E+00 -0.45593999997E+02  0.45594000000E+02  0.51100000000E-03 0.  1.
    9900012    2    1    2    0    0  0.29045795547E+02 -0.22737907234E+01 -0.32168227713E+02  0.47787271464E+02  0.20000001914E+02 0.  0.
         12    1    1    2    0    0 -0.29045795547E+02  0.22737907234E+01  0.32168227713E+02  0.43400728536E+02  0.00000000000E+00 0. -1.
         11    1    3    3    0    0  0.79195373032E+00 -0.64691823380E+01 -0.60117113563E+01  0.88666896036E+01  0.51100000000E-03 0. -1.
        -11    1    3    3    0    0  0.13623517416E+02  0.27072024335E+01 -0.10283595521E+02  0.17282404604E+02  0.51100000000E-03 0.  1.
         12    1    3    3    0    0  0.14630324401E+02  0.14881891811E+01 -0.15872920837E+02  0.21638177257E+02  0.00000000000E+00 0. -1.
</event>
<event>
 7    1  0.2812635E-010  0.4778727E+02  0.7816164E-02  0.1312668E+00
        -11   -1    0    0    0    0  0.00000000000E+00  0.00000000000E+00  0.45593999997E+02  0.45594000000E+02  0.51100000000E-03 0.  1.
         11   -1    0    0    0    0 -0.00000000000E+00 -0.00000000000E+00 -0.45593999997E+02  0.45594000000E+02  0.51100000000E-03 0. -1.
    9900012    2    1    2    0    0 -0.32155749154E+02  0.26608389330E+01  0.29026729005E+02  0.47787271156E+02  0.20000000507E+02 0.  0.
         12    1    1    2    0    0  0.32155749154E+02 -0.26608389330E+01 -0.29026729005E+02  0.43400728844E+02  0.00000000000E+00 0. -1.
         11    1    3    3    0    0 -0.63366715631E+01 -0.26895693251E+01  0.43463076723E+01  0.81411043659E+01  0.51100000000E-03 0. -1.
        -11    1    3    3    0    0 -0.16946627150E+02  0.34839527935E+01  0.50498606150E+01  0.18022962889E+02  0.51100000000E-03 0.  1.
        -12    1    3    3    0    0 -0.88724504413E+01  0.18664554646E+01  0.19630560717E+02  0.21623203900E+02  0.00000000000E+00 0.  1.
</event>
<event>
 7    1  0.2812635E-010  0.4778727E+02  0.7816164E-02  0.1312668E+00
        -11   -1    0    0    0    0  0.00000000000E+00  0.00000000000E+00  0.45593999997E+02  0.45594000000E+02  0.51100000000E-03 0. -1.
         11   -1    0    0    0    0 -0.00000000000E+00 -0.00000000000E+00 -0.45593999997E+02  0.45594000000E+02  0.51100000000E-03 0.  1.
    9900012    2    1    2    0    0  0.40610480177E+02 -0.14346522395E+02 -0.53469197424E+01  0.47787270101E+02  0.19999995699E+02 0.  0.
         12    1    1    2    0    0 -0.40610480177E+02  0.14346522395E+02  0.53469197424E+01  0.43400729899E+02  0.00000000000E+00 0. -1.
         11    1    3    3    0    0  0.20025799653E+02 -0.10634385638E+02  0.22362468310E+01  0.22784284272E+02  0.51100000000E-03 0.  1.
        -11    1    3    3    0    0  0.20802742107E+02 -0.90329068471E+00 -0.56144936089E+01  0.21566004544E+02  0.51100000000E-03 0. -1.
         12    1    3    3    0    0 -0.21806158330E+00 -0.28088460729E+01 -0.19686729645E+01  0.34369812854E+01  0.00000000000E+00 0. -1.
</event>
<event>
 7    1  0.2812635E-010  0.4778726E+02  0.7816164E-02  0.1312668E+00
        -11   -1    0    0    0    0  0.00000000000E+00  0.00000000000E+00  0.45593999997E+02  0.45594000000E+02  0.51100000000E-03 0. -1.
         11   -1    0    0    0    0 -0.00000000000E+00 -0.00000000000E+00 -0.45593999997E+02  0.45594000000E+02  0.51100000000E-03 0.  1.
    9900012    2    1    2    0    0 -0.19013383495E+02  0.38562330711E+02 -0.59213195747E+01  0.47787261212E+02  0.19999955172E+02 0.  0.
         12    1    1    2    0    0  0.19013383495E+02 -0.38562330711E+02  0.59213195747E+01  0.43400738788E+02  0.00000000000E+00 0. -1.
         11    1    3    3    0    0 -0.85047237781E+00 -0.64576885224E+00 -0.38027424307E+01  0.39498317599E+01  0.51100000000E-03 0. -1.
        -11    1    3    3    0    0 -0.13184449954E+02  0.21858809607E+02 -0.33497472221E+01  0.25746030465E+02  0.51100000000E-03 0.  1.
         12    1    3    3    0    0 -0.49784611635E+01  0.17349289956E+02  0.12311700781E+01  0.18091398987E+02  0.00000000000E+00 0. -1.
</event>
<event>
 7    1  0.2812635E-010  0.4778727E+02  0.7816164E-02  0.1312668E+00
        -11   -1    0    0    0    0  0.00000000000E+00  0.00000000000E+00  0.45593999997E+02  0.45594000000E+02  0.51100000000E-03 0.  1.
         11   -1    0    0    0    0 -0.00000000000E+00 -0.00000000000E+00 -0.45593999997E+02  0.45594000000E+02  0.51100000000E-03 0. -1.
    9900012    2    1    2    0    0 -0.20916579432E+02 -0.24561885262E+02  0.29031598422E+02  0.47787271784E+02  0.20000003371E+02 0.  0.
         12    1    1    2    0    0  0.20916579432E+02  0.24561885262E+02 -0.29031598422E+02  0.43400728216E+02  0.00000000000E+00 0. -1.
         11    1    3    3    0    0  0.11715597786E+01 -0.56981429167E+01  0.21311945587E+01  0.61954318269E+01  0.51100000000E-03 0. -1.
        -11    1    3    3    0    0 -0.22923678519E+02 -0.16017281574E+02  0.26624743787E+02  0.38612502222E+02  0.51100000000E-03 0.  1.
        -12    1    3    3    0    0  0.83553930844E+00 -0.28464607715E+01  0.27566007634E+00  0.29793377347E+01  0.00000000000E+00 0.  1.
</event>
<event>
 7    1  0.2812635E-010  0.4778728E+02  0.7816164E-02  0.1312668E+00
        -11   -1    0    0    0    0  0.00000000000E+00  0.00000000000E+00  0.45593999997E+02  0.45594000000E+02  0.51100000000E-03 0.  1.
         11   -1    0    0    0    0 -0.00000000000E+00 -0.00000000000E+00 -0.45593999997E+02  0.45594000000E+02  0.51100000000E-03 0. -1.
    9900012    2    1    2    0    0 -0.26993960213E+02 -0.28018388295E+02  0.19233269687E+02  0.47787278422E+02  0.20000033638E+02 0.  0.
         12    1    1    2    0    0  0.26993960213E+02  0.28018388295E+02 -0.19233269687E+02  0.43400721578E+02  0.00000000000E+00 0. -1.
         11    1    3    3    0    0 -0.76963030834E+01 -0.62231831262E+01  0.16618722397E+01  0.10036080359E+02  0.51100000000E-03 0. -1.
        -11    1    3    3    0    0 -0.58611081189E+01 -0.18314832671E+02  0.76770904358E+01  0.20705636961E+02  0.51100000000E-03 0.  1.
        -12    1    3    3    0    0 -0.13436549011E+02 -0.34803724976E+01  0.98943070110E+01  0.17045561102E+02  0.00000000000E+00 0.  1.
</event>
<event>
 7    1  0.2812635E-010  0.4778727E+02  0.7816164E-02  0.1312668E+00
        -11   -1    0    0    0    0  0.00000000000E+00  0.00000000000E+00  0.45593999997E+02  0.45594000000E+02  0.51100000000E-03 0.  1.
         11   -1    0    0    0    0 -0.00000000000E+00 -0.00000000000E+00 -0.45593999997E+02  0.45594000000E+02  0.51100000000E-03 0. -1.
    9900012    2    1    2    0    0 -0.25730764812E+01 -0.43301071804E+02 -0.14211185297E+01  0.47787272819E+02  0.20000008091E+02 0.  0.
         12    1    1    2    0    0  0.25730764812E+01  0.43301071804E+02  0.14211185297E+01  0.43400727181E+02  0.00000000000E+00 0. -1.
         11    1    3    3    0    0 -0.46747418580E+01 -0.43587979861E+02 -0.41203966762E+01  0.44031157932E+02  0.51100000000E-03 0.  1.
        -11    1    3    3    0    0  0.46850562091E+00  0.45007495654E+00  0.17347154928E+01  0.18523776843E+01  0.51100000000E-03 0. -1.
        -12    1    3    3    0    0  0.16331597558E+01 -0.16316690000E+00  0.96456265370E+00  0.19037372030E+01  0.00000000000E+00 0.  1.
</event>
<event>
 7    1  0.2812635E-010  0.4778727E+02  0.7816164E-02  0.1312668E+00
        -11   -1    0    0    0    0  0.00000000000E+00  0.00000000000E+00  0.45593999997E+02  0.45594000000E+02  0.51100000000E-03 0. -1.
         11   -1    0    0    0    0 -0.00000000000E+00 -0.00000000000E+00 -0.45593999997E+02  0.45594000000E+02  0.51100000000E-03 0.  1.
    9900012    2    1    2    0    0  0.41776692216E+02  0.83205883711E+01 -0.83125861628E+01  0.47787270835E+02  0.19999999047E+02 0.  0.
         12    1    1    2    0    0 -0.41776692216E+02 -0.83205883711E+01  0.83125861628E+01  0.43400729165E+02  0.00000000000E+00 0. -1.
         11    1    3    3    0    0  0.26153887595E+02  0.86239668283E+01 -0.10565995265E+02  0.29496421756E+02  0.51100000000E-03 0. -1.
        -11    1    3    3    0    0  0.15576760064E+02  0.21247358463E+01  0.18602995109E+01  0.15830687637E+02  0.51100000000E-03 0.  1.
         12    1    3    3    0    0  0.46044555560E-01 -0.24281143035E+01  0.39310959126E+00  0.24601614424E+01  0.00000000000E+00 0. -1.
</event>
<event>
 7    1  0.2812635E-010  0.4778727E+02  0.7816164E-02  0.1312668E+00
        -11   -1    0    0    0    0  0.00000000000E+00  0.00000000000E+00  0.45593999997E+02  0.45594000000E+02  0.51100000000E-03 0. -1.
         11   -1    0    0    0    0 -0.00000000000E+00 -0.00000000000E+00 -0.45593999997E+02  0.45594000000E+02  0.51100000000E-03 0.  1.
    9900012    2    1    2    0    0 -0.41414327096E+02 -0.12081019635E+02 -0.47461207552E+01  0.47787272052E+02  0.20000004592E+02 0.  0.
         12    1    1    2    0    0  0.41414327096E+02  0.12081019635E+02  0.47461207552E+01  0.43400727948E+02  0.00000000000E+00 0. -1.
         11    1    3    3    0    0 -0.56718578569E+01 -0.38220744927E+01 -0.66567313819E+01  0.95441237381E+01  0.51100000000E-03 0. -1.
        -11    1    3    3    0    0 -0.31751446219E+02 -0.47452393614E+01 -0.11184289015E+01  0.32123550816E+02  0.51100000000E-03 0.  1.
         12    1    3    3    0    0 -0.39910230200E+01 -0.35137057814E+01  0.30290395283E+01  0.61195974972E+01  0.00000000000E+00 0. -1.
</event>
<event>
 7    1  0.2812635E-010  0.4778727E+02  0.7816164E-02  0.1312668E+00
        -11   -1    0    0    0    0  0.00000000000E+00  0.00000000000E+00  0.45593999997E+02  0.45594000000E+02  0.51100000000E-03 0.  1.
         11   -1    0    0    0    0 -0.00000000000E+00 -0.00000000000E+00 -0.45593999997E+02  0.45594000000E+02  0.51100000000E-03 0. -1.
    9900012    2    1    2    0    0 -0.23015113423E+02  0.86854128620E+01  0.35755999533E+02  0.47787270225E+02  0.19999996262E+02 0.  0.
         12    1    1    2    0    0  0.23015113423E+02 -0.86854128620E+01 -0.35755999533E+02  0.43400729775E+02  0.00000000000E+00 0. -1.
         11    1    3    3    0    0 -0.74136513735E+01  0.56600652351E+01  0.43283247173E+01  0.10282653367E+02  0.51100000000E-03 0. -1.
        -11    1    3    3    0    0 -0.17711694981E+02  0.30242529063E+01  0.29957248873E+02  0.34932606617E+02  0.51100000000E-03 0.  1.
        -12    1    3    3    0    0  0.21102329319E+01  0.10947207027E-02  0.14704259423E+01  0.25720102405E+01  0.00000000000E+00 0.  1.
</event>
<event>
 7    1  0.2812635E-010  0.4778727E+02  0.7816164E-02  0.1312668E+00
        -11   -1    0    0    0    0  0.00000000000E+00  0.00000000000E+00  0.45593999997E+02  0.45594000000E+02  0.51100000000E-03 0.  1.
         11   -1    0    0    0    0 -0.00000000000E+00 -0.00000000000E+00 -0.45593999997E+02  0.45594000000E+02  0.51100000000E-03 0. -1.
    9900012    2    1    2    0    0 -0.41418805134E+02 -0.38215650049E+01  0.12389571230E+02  0.47787271284E+02  0.20000001094E+02 0.  0.
         12    1    1    2    0    0  0.41418805134E+02  0.38215650049E+01 -0.12389571230E+02  0.43400728716E+02  0.00000000000E+00 0. -1.
         11    1    3    3    0    0 -0.36684355054E+01  0.31396649408E+01  0.11571145039E+01  0.49652622523E+01  0.51100000000E-03 0. -1.
        -11    1    3    3    0    0 -0.15327642670E+02 -0.67674021967E+01  0.11628395537E+02  0.20394949015E+02  0.51100000000E-03 0.  1.
        -12    1    3    3    0    0 -0.22422726959E+02 -0.19382774909E+00 -0.39593881123E+00  0.22427060017E+02  0.00000000000E+00 0.  1.
</event>
<event>
 7    1  0.2812635E-010  0.4778728E+02  0.7816164E-02  0.1312668E+00
        -11   -1    0    0    0    0  0.00000000000E+00  0.00000000000E+00  0.45593999997E+02  0.45594000000E+02  0.51100000000E-03 0.  1.
         11   -1    0    0    0    0 -0.00000000000E+00 -0.00000000000E+00 -0.45593999997E+02  0.45594000000E+02  0.51100000000E-03 0. -1.
    9900012    2    1    2    0    0 -0.36675985032E+02 -0.10596080681E+02  0.20645045522E+02  0.47787277558E+02  0.20000029698E+02 0.  0.
         12    1    1    2    0    0  0.36675985032E+02  0.10596080681E+02 -0.20645045522E+02  0.43400722442E+02  0.00000000000E+00 0. -1.
         11    1    3    3    0    0 -0.15588848103E+02 -0.85107309972E+01  0.17967658353E+02  0.25264233102E+02  0.51100000000E-03 0. -1.
        -11    1    3    3    0    0 -0.16801370426E+02 -0.30055577797E+01  0.46884214599E+01  0.17700302873E+02  0.51100000000E-03 0.  1.
         12    1    3    3    0    0 -0.42857665039E+01  0.92020809630E+00 -0.20110342901E+01  0.48227415836E+01  0.00000000000E+00 0. -1.
</event>
<event>
 7    1  0.2812635E-010  0.4778727E+02  0.7816164E-02  0.1312668E+00
        -11   -1    0    0    0    0  0.00000000000E+00  0.00000000000E+00  0.45593999997E+02  0.45594000000E+02  0.51100000000E-03 0.  1.
         11   -1    0    0    0    0 -0.00000000000E+00 -0.00000000000E+00 -0.45593999997E+02  0.45594000000E+02  0.51100000000E-03 0. -1.
    9900012    2    1    2    0    0 -0.33110067582E+02 -0.27270654726E+02  0.66074383969E+01  0.47787269285E+02  0.19999991977E+02 0.  0.
         12    1    1    2    0    0  0.33110067582E+02  0.27270654726E+02 -0.66074383969E+01  0.43400730715E+02  0.00000000000E+00 0. -1.
         11    1    3    3    0    0 -0.87778259344E+01 -0.16596820450E+02  0.24734021437E+01  0.18937328101E+02  0.51100000000E-03 0. -1.
        -11    1    3    3    0    0 -0.68934757067E+01 -0.71803149322E+01 -0.17709102786E+01  0.10110047147E+02  0.51100000000E-03 0.  1.
         12    1    3    3    0    0 -0.17438765941E+02 -0.34935193434E+01  0.59049465317E+01  0.18739894036E+02  0.00000000000E+00 0. -1.
</event>
<event>
 7    1  0.2812635E-010  0.4778727E+02  0.7816164E-02  0.1312668E+00
        -11   -1    0    0    0    0  0.00000000000E+00  0.00000000000E+00  0.45593999997E+02  0.45594000000E+02  0.51100000000E-03 0.  1.
         11   -1    0    0    0    0 -0.00000000000E+00 -0.00000000000E+00 -0.45593999997E+02  0.45594000000E+02  0.51100000000E-03 0. -1.
    9900012    2    1    2    0    0  0.36769734025E+02 -0.22320612720E+02 -0.57793200622E+01  0.47787266909E+02  0.19999981144E+02 0.  0.
         12    1    1    2    0    0 -0.36769734025E+02  0.22320612720E+02  0.57793200622E+01  0.43400733091E+02  0.00000000000E+00 0. -1.
         11    1    3    3    0    0  0.22843543782E+02 -0.20664497694E+02 -0.89112384469E+00  0.30816279130E+02  0.51100000000E-03 0.  1.
        -11    1    3    3    0    0  0.97672414157E+01  0.27952818290E+01 -0.29937712807E+01  0.10591282836E+02  0.51100000000E-03 0. -1.
         12    1    3    3    0    0  0.41589488272E+01 -0.44513968556E+01 -0.18944249368E+01  0.63797049426E+01  0.00000000000E+00 0. -1.
</event>
<event>
 7    1  0.2812635E-010  0.4778727E+02  0.7816164E-02  0.1312668E+00
        -11   -1    0    0    0    0  0.00000000000E+00  0.00000000000E+00  0.45593999997E+02  0.45594000000E+02  0.51100000000E-03 0. -1.
         11   -1    0    0    0    0 -0.00000000000E+00 -0.00000000000E+00 -0.45593999997E+02  0.45594000000E+02  0.51100000000E-03 0.  1.
    9900012    2    1    2    0    0 -0.14498318831E+02 -0.40294728139E+02  0.70538600133E+01  0.47787270677E+02  0.19999998324E+02 0.  0.
         12    1    1    2    0    0  0.14498318831E+02  0.40294728139E+02 -0.70538600133E+01  0.43400729323E+02  0.00000000000E+00 0. -1.
         11    1    3    3    0    0 -0.15591654075E+02 -0.22682044221E+02  0.73449120547E+01  0.28487234688E+02  0.51100000000E-03 0. -1.
        -11    1    3    3    0    0  0.11437065615E+01 -0.18402284941E+02 -0.60773941846E+00  0.18447804834E+02  0.51100000000E-03 0.  1.
         12    1    3    3    0    0 -0.50371317482E-01  0.78960102306E+00  0.31668737700E+00  0.85223115408E+00  0.00000000000E+00 0. -1.
</event>
<event>
 7    1  0.2812635E-010  0.4778727E+02  0.7816164E-02  0.1312668E+00
        -11   -1    0    0    0    0  0.00000000000E+00  0.00000000000E+00  0.45593999997E+02  0.45594000000E+02  0.51100000000E-03 0. -1.
         11   -1    0    0    0    0 -0.00000000000E+00 -0.00000000000E+00 -0.45593999997E+02  0.45594000000E+02  0.51100000000E-03 0.  1.
    9900012    2    1    2    0    0  0.28009057796E+02 -0.27290156388E+02 -0.18824543151E+02  0.47787269831E+02  0.19999994469E+02 0.  0.
         12    1    1    2    0    0 -0.28009057796E+02  0.27290156388E+02  0.18824543151E+02  0.43400730169E+02  0.00000000000E+00 0. -1.
         11    1    3    3    0    0  0.13970770209E+02 -0.37253530333E+01 -0.96945688061E+01  0.17408197496E+02  0.51100000000E-03 0.  1.
        -11    1    3    3    0    0  0.98106875982E+00 -0.57882791216E+01  0.12493861058E+01  0.60023026418E+01  0.51100000000E-03 0. -1.
         12    1    3    3    0    0  0.13057218827E+02 -0.17776524233E+02 -0.10379360450E+02  0.24376769694E+02  0.00000000000E+00 0. -1.
</event>
<event>
 7    1  0.2812635E-010  0.4778727E+02  0.7816164E-02  0.1312668E+00
        -11   -1    0    0    0    0  0.00000000000E+00  0.00000000000E+00  0.45593999997E+02  0.45594000000E+02  0.51100000000E-03 0. -1.
         11   -1    0    0    0    0 -0.00000000000E+00 -0.00000000000E+00 -0.45593999997E+02  0.45594000000E+02  0.51100000000E-03 0.  1.
    9900012    2    1    2    0    0 -0.97228226911E+01  0.24186502053E+02 -0.34700187597E+02  0.47787272104E+02  0.20000004831E+02 0.  0.
         12    1    1    2    0    0  0.97228226911E+01 -0.24186502053E+02  0.34700187597E+02  0.43400727896E+02  0.00000000000E+00 0. -1.
         11    1    3    3    0    0  0.38923809636E+01  0.28668686285E+01 -0.51899357271E+00  0.48619872366E+01  0.51100000000E-03 0. -1.
        -11    1    3    3    0    0 -0.11154464302E+02  0.12765126692E+02 -0.20469452576E+02  0.26577603774E+02  0.51100000000E-03 0.  1.
         12    1    3    3    0    0 -0.24607393524E+01  0.85545067323E+01 -0.13711741448E+02  0.16347681093E+02  0.00000000000E+00 0. -1.
</event>
<event>
 7    1  0.2812635E-010  0.4778727E+02  0.7816164E-02  0.1312668E+00
        -11   -1    0    0    0    0  0.00000000000E+00  0.00000000000E+00  0.45593999997E+02  0.45594000000E+02  0.51100000000E-03 0.  1.
         11   -1    0    0    0    0 -0.00000000000E+00 -0.00000000000E+00 -0.45593999997E+02  0.45594000000E+02  0.51100000000E-03 0. -1.
    9900012    2    1    2    0    0 -0.13309186041E+02 -0.38991805893E+02 -0.13642860546E+02  0.47787274156E+02  0.20000014189E+02 0.  0.
         12    1    1    2    0    0  0.13309186041E+02  0.38991805893E+02  0.13642860546E+02  0.43400725844E+02  0.00000000000E+00 0. -1.
         11    1    3    3    0    0  0.10529738602E+01 -0.44547160034E+01 -0.39392534774E+01  0.60391197075E+01  0.51100000000E-03 0. -1.
        -11    1    3    3    0    0 -0.34320375900E+01 -0.19723723213E+01  0.31634864146E+01  0.50672261790E+01  0.51100000000E-03 0.  1.
        -12    1    3    3    0    0 -0.10930122312E+02 -0.32564717568E+02 -0.12867093483E+02  0.36680928270E+02  0.00000000000E+00 0.  1.
</event>
<event>
 7    1  0.2812635E-010  0.4778726E+02  0.7816164E-02  0.1312668E+00
        -11   -1    0    0    0    0  0.00000000000E+00  0.00000000000E+00  0.45593999997E+02  0.45594000000E+02  0.51100000000E-03 0.  1.
         11   -1    0    0    0    0 -0.00000000000E+00 -0.00000000000E+00 -0.45593999997E+02  0.45594000000E+02  0.51100000000E-03 0. -1.
    9900012    2    1    2    0    0  0.17857928754E+00 -0.13370543644E+02  0.41289472052E+02  0.47787264635E+02  0.19999970777E+02 0.  0.
         12    1    1    2    0    0 -0.17857928754E+00  0.13370543644E+02 -0.41289472052E+02  0.43400735365E+02  0.00000000000E+00 0. -1.
         11    1    3    3    0    0 -0.11974360907E+01 -0.73272178205E+01  0.13211182484E+02  0.15154448755E+02  0.51100000000E-03 0. -1.
        -11    1    3    3    0    0  0.15908853500E+01 -0.43389837806E+00 -0.16774259009E+01  0.23522206346E+01  0.51100000000E-03 0.  1.
        -12    1    3    3    0    0 -0.21486997175E+00 -0.56094274457E+01  0.29755715469E+02  0.30280595246E+02  0.00000000000E+00 0.  1.
</event>
<event>
 7    1  0.2812635E-010  0.4778727E+02  0.7816164E-02  0.1312668E+00
        -11   -1    0    0    0    0  0.00000000000E+00  0.00000000000E+00  0.45593999997E+02  0.45594000000E+02  0.51100000000E-03 0. -1.
         11   -1    0    0    0    0 -0.00000000000E+00 -0.00000000000E+00 -0.45593999997E+02  0.45594000000E+02  0.51100000000E-03 0.  1.
    9900012    2    1    2    0    0 -0.35984499801E+02 -0.12317178905E+01 -0.24232663198E+02  0.47787270506E+02  0.19999997547E+02 0.  0.
         12    1    1    2    0    0  0.35984499801E+02  0.12317178905E+01  0.24232663198E+02  0.43400729494E+02  0.00000000000E+00 0. -1.
         11    1    3    3    0    0 -0.28086783951E+01 -0.19666705758E+01 -0.72961712642E+01  0.80616737008E+01  0.51100000000E-03 0. -1.
        -11    1    3    3    0    0 -0.28980764299E+01  0.42785273656E+01 -0.43124642539E+01  0.67306754203E+01  0.51100000000E-03 0.  1.
        -12    1    3    3    0    0 -0.30277744976E+02 -0.35435746803E+01 -0.12624027680E+02  0.32994921385E+02  0.00000000000E+00 0.  1.
</event>
<event>
 7    1  0.2812635E-010  0.4778727E+02  0.7816164E-02  0.1312668E+00
        -11   -1    0    0    0    0  0.00000000000E+00  0.00000000000E+00  0.45593999997E+02  0.45594000000E+02  0.51100000000E-03 0.  1.
         11   -1    0    0    0    0 -0.00000000000E+00 -0.00000000000E+00 -0.45593999997E+02  0.45594000000E+02  0.51100000000E-03 0. -1.
    9900012    2    1    2    0    0  0.39900685250E+01  0.43161016358E+02 -0.21975657835E+01  0.47787271028E+02  0.19999999925E+02 0.  0.
         12    1    1    2    0    0 -0.39900685250E+01 -0.43161016358E+02  0.21975657835E+01  0.43400728972E+02  0.00000000000E+00 0. -1.
         11    1    3    3    0    0  0.81236885849E+01  0.22834629713E+02 -0.84050893957E+01  0.25652683259E+02  0.51100000000E-03 0. -1.
        -11    1    3    3    0    0 -0.41330565391E+01  0.11672377116E+02  0.21156227129E+01  0.12561942669E+02  0.51100000000E-03 0.  1.
         12    1    3    3    0    0 -0.56352069714E-03  0.86540095299E+01  0.40919008992E+01  0.95726451010E+01  0.00000000000E+00 0. -1.
</event>
<event>
 7    1  0.2812635E-010  0.4778726E+02  0.7816164E-02  0.1312668E+00
        -11   -1    0    0    0    0  0.00000000000E+00  0.00000000000E+00  0.45593999997E+02  0.45594000000E+02  0.51100000000E-03 0.  1.
         11   -1    0    0    0    0 -0.00000000000E+00 -0.00000000000E+00 -0.45593999997E+02  0.45594000000E+02  0.51100000000E-03 0. -1.
    9900012    2    1    2    0    0  0.56776264985E+01  0.34674421433E+02  0.25476910151E+02  0.47787263886E+02  0.19999967361E+02 0.  0.
         12    1    1    2    0    0 -0.56776264985E+01 -0.34674421433E+02 -0.25476910151E+02  0.43400736114E+02  0.00000000000E+00 0. -1.
         11    1    3    3    0    0  0.27130693694E+01  0.33467218408E+02  0.26646278839E+02  0.42865366319E+02  0.51100000000E-03 0.  1.
        -11    1    3    3    0    0  0.18018981847E+01  0.91271178028E+00 -0.24447019855E+01  0.31711903003E+01  0.51100000000E-03 0. -1.
        -12    1    3    3    0    0  0.11626589445E+01  0.29449124469E+00  0.12753332971E+01  0.17507072665E+01  0.00000000000E+00 0.  1.
</event>
<event>
 7    1  0.2812635E-010  0.4778727E+02  0.7816164E-02  0.1312668E+00
        -11   -1    0    0    0    0  0.00000000000E+00  0.00000000000E+00  0.45593999997E+02  0.45594000000E+02  0.51100000000E-03 0.  1.
         11   -1    0    0    0    0 -0.00000000000E+00 -0.00000000000E+00 -0.45593999997E+02  0.45594000000E+02  0.51100000000E-03 0. -1.
    9900012    2    1    2    0    0  0.27984756397E+02 -0.18772064321E+02  0.27351163448E+02  0.47787272685E+02  0.20000007482E+02 0.  0.
         12    1    1    2    0    0 -0.27984756397E+02  0.18772064321E+02 -0.27351163448E+02  0.43400727315E+02  0.00000000000E+00 0. -1.
         11    1    3    3    0    0  0.38761211916E+00 -0.15008399618E+01 -0.71774482333E+00  0.17081925062E+01  0.51100000000E-03 0. -1.
        -11    1    3    3    0    0  0.15823191179E+02 -0.13075541463E+02  0.71989028164E+01  0.21752410571E+02  0.51100000000E-03 0.  1.
        -12    1    3    3    0    0  0.11773953099E+02 -0.41956828969E+01  0.20870005455E+02  0.24326669608E+02  0.00000000000E+00 0.  1.
</event>
<event>
 7    1  0.2812635E-010  0.4778727E+02  0.7816164E-02  0.1312668E+00
        -11   -1    0    0    0    0  0.00000000000E+00  0.00000000000E+00  0.45593999997E+02  0.45594000000E+02  0.51100000000E-03 0. -1.
         11   -1    0    0    0    0 -0.00000000000E+00 -0.00000000000E+00 -0.45593999997E+02  0.45594000000E+02  0.51100000000E-03 0.  1.
    9900012    2    1    2    0    0  0.27130222599E+02 -0.24300192299E+02 -0.23602432586E+02  0.47787272494E+02  0.20000006609E+02 0.  0.
         12    1    1    2    0    0 -0.27130222599E+02  0.24300192299E+02  0.23602432586E+02  0.43400727506E+02  0.00000000000E+00 0. -1.
         11    1    3    3    0    0  0.13460707843E+02 -0.16655769181E+02 -0.18399919179E+02  0.28234063269E+02  0.51100000000E-03 0. -1.
        -11    1    3    3    0    0  0.12371442463E+02 -0.13907867868E+01 -0.31059955446E+01  0.12830981454E+02  0.51100000000E-03 0.  1.
        -12    1    3    3    0    0  0.12980722933E+01 -0.62536363316E+01 -0.20965178631E+01  0.67222277704E+01  0.00000000000E+00 0.  1.
</event>
<event>
 7    1  0.2812635E-010  0.4778727E+02  0.7816164E-02  0.1312668E+00
        -11   -1    0    0    0    0  0.00000000000E+00  0.00000000000E+00  0.45593999997E+02  0.45594000000E+02  0.51100000000E-03 0. -1.
         11   -1    0    0    0    0 -0.00000000000E+00 -0.00000000000E+00 -0.45593999997E+02  0.45594000000E+02  0.51100000000E-03 0.  1.
    9900012    2    1    2    0    0 -0.43322065861E+02 -0.24875062146E+01 -0.79654515331E+00  0.47787267728E+02  0.19999984878E+02 0.  0.
         12    1    1    2    0    0  0.43322065861E+02  0.24875062146E+01  0.79654515331E+00  0.43400732272E+02  0.00000000000E+00 0. -1.
         11    1    3    3    0    0 -0.48796288423E+01  0.35927486878E+01  0.29673653876E+01  0.67471385325E+01  0.51100000000E-03 0. -1.
        -11    1    3    3    0    0 -0.33022079097E+02 -0.32797598003E+01 -0.73144889362E+01  0.33981116534E+02  0.51100000000E-03 0.  1.
        -12    1    3    3    0    0 -0.54203579214E+01 -0.28004951021E+01  0.35505783953E+01  0.70590126614E+01  0.00000000000E+00 0.  1.
</event>
<event>
 7    1  0.2812635E-010  0.4778727E+02  0.7816164E-02  0.1312668E+00
        -11   -1    0    0    0    0  0.00000000000E+00  0.00000000000E+00  0.45593999997E+02  0.45594000000E+02  0.51100000000E-03 0.  1.
         11   -1    0    0    0    0 -0.00000000000E+00 -0.00000000000E+00 -0.45593999997E+02  0.45594000000E+02  0.51100000000E-03 0. -1.
    9900012    2    1    2    0    0  0.23350748923E+02  0.28293069444E+02  0.23191986276E+02  0.47787268655E+02  0.19999989104E+02 0.  0.
         12    1    1    2    0    0 -0.23350748923E+02 -0.28293069444E+02 -0.23191986276E+02  0.43400731345E+02  0.00000000000E+00 0. -1.
         11    1    3    3    0    0  0.21584565991E+01  0.12100922730E+02  0.61122715353E+01  0.13727750340E+02  0.51100000000E-03 0. -1.
        -11    1    3    3    0    0  0.15978226669E+02  0.72479078851E+01  0.15830526290E+02  0.23631366001E+02  0.51100000000E-03 0.  1.
        -12    1    3    3    0    0  0.52140656551E+01  0.89442388294E+01  0.12491884510E+01  0.10428152314E+02  0.00000000000E+00 0.  1.
</event>
<event>
 7    1  0.2812635E-010  0.4778727E+02  0.7816164E-02  0.1312668E+00
        -11   -1    0    0    0    0  0.00000000000E+00  0.00000000000E+00  0.45593999997E+02  0.45594000000E+02  0.51100000000E-03 0.  1.
         11   -1    0    0    0    0 -0.00000000000E+00 -0.00000000000E+00 -0.45593999997E+02  0.45594000000E+02  0.51100000000E-03 0. -1.
    9900012    2    1    2    0    0  0.81648486769E+01  0.75959112732E+01  0.41943541114E+02  0.47787271168E+02  0.20000000562E+02 0.  0.
         12    1    1    2    0    0 -0.81648486769E+01 -0.75959112732E+01 -0.41943541114E+02  0.43400728832E+02  0.00000000000E+00 0. -1.
         11    1    3    3    0    0 -0.22897087317E+01 -0.15765828249E+01  0.32479082651E+01  0.42751944797E+01  0.51100000000E-03 0. -1.
        -11    1    3    3    0    0  0.87373973007E+01  0.10685115634E+02  0.17963054055E+02  0.22653589538E+02  0.51100000000E-03 0.  1.
        -12    1    3    3    0    0  0.17171601080E+01 -0.15126215356E+01  0.20732578794E+02  0.20858487150E+02  0.00000000000E+00 0.  1.
</event>
<event>
 7    1  0.2812635E-010  0.4778726E+02  0.7816164E-02  0.1312668E+00
        -11   -1    0    0    0    0  0.00000000000E+00  0.00000000000E+00  0.45593999997E+02  0.45594000000E+02  0.51100000000E-03 0.  1.
         11   -1    0    0    0    0 -0.00000000000E+00 -0.00000000000E+00 -0.45593999997E+02  0.45594000000E+02  0.51100000000E-03 0. -1.
    9900012    2    1    2    0    0 -0.43013423697E+02 -0.30876233196E+01  0.48925013001E+01  0.47787255710E+02  0.19999930086E+02 0.  0.
         12    1    1    2    0    0  0.43013423697E+02  0.30876233196E+01 -0.48925013001E+01  0.43400744290E+02  0.00000000000E+00 0. -1.
         11    1    3    3    0    0 -0.78240288140E+01 -0.68139317726E+01 -0.33710365788E+01  0.10909123749E+02  0.51100000000E-03 0. -1.
        -11    1    3    3    0    0 -0.25694184068E+02  0.22621581168E+01  0.88061242645E+01  0.27255389909E+02  0.51100000000E-03 0.  1.
         12    1    3    3    0    0 -0.94952108154E+01  0.14641503362E+01 -0.54258638555E+00  0.96227420532E+01  0.00000000000E+00 0. -1.
</event>
<event>
 7    1  0.2812635E-010  0.4778727E+02  0.7816164E-02  0.1312668E+00
        -11   -1    0    0    0    0  0.00000000000E+00  0.00000000000E+00  0.45593999997E+02  0.45594000000E+02  0.51100000000E-03 0.  1.
         11   -1    0    0    0    0 -0.00000000000E+00 -0.00000000000E+00 -0.45593999997E+02  0.45594000000E+02  0.51100000000E-03 0. -1.
    9900012    2    1    2    0    0  0.38835423432E+02  0.11024572837E+02  0.15933990785E+02  0.47787269802E+02  0.19999994337E+02 0.  0.
         12    1    1    2    0    0 -0.38835423432E+02 -0.11024572837E+02 -0.15933990785E+02  0.43400730198E+02  0.00000000000E+00 0. -1.
         11    1    3    3    0    0  0.18394301508E+01  0.43026078273E+01  0.27356666910E+01  0.54203145573E+01  0.51100000000E-03 0. -1.
        -11    1    3    3    0    0  0.36919238968E+02  0.71911823564E+01  0.15007368838E+02  0.40496474283E+02  0.51100000000E-03 0.  1.
        -12    1    3    3    0    0  0.76754312830E-01 -0.46921734673E+00 -0.18090447440E+01  0.18704809619E+01  0.00000000000E+00 0.  1.
</event>
<event>
 7    1  0.2812635E-010  0.4778727E+02  0.7816164E-02  0.1312668E+00
        -11   -1    0    0    0    0  0.00000000000E+00  0.00000000000E+00  0.45593999997E+02  0.45594000000E+02  0.51100000000E-03 0.  1.
         11   -1    0    0    0    0 -0.00000000000E+00 -0.00000000000E+00 -0.45593999997E+02  0.45594000000E+02  0.51100000000E-03 0. -1.
    9900012    2    1    2    0    0  0.34736971671E+02 -0.24389815455E+02  0.90610754653E+01  0.47787269736E+02  0.19999994036E+02 0.  0.
         12    1    1    2    0    0 -0.34736971671E+02  0.24389815455E+02 -0.90610754653E+01  0.43400730264E+02  0.00000000000E+00 0. -1.
         11    1    3    3    0    0  0.82658688526E+00 -0.14430400676E+01 -0.35870811740E+01  0.39538287931E+01  0.51100000000E-03 0. -1.
        -11    1    3    3    0    0  0.30463263903E+02 -0.16466511116E+02  0.10404484817E+02  0.36158121363E+02  0.51100000000E-03 0.  1.
         12    1    3    3    0    0  0.34471208833E+01 -0.64802642714E+01  0.22436718219E+01  0.76753195800E+01  0.00000000000E+00 0. -1.
</event>
<event>
 7    1  0.2812635E-010  0.4778727E+02  0.7816164E-02  0.1312668E+00
        -11   -1    0    0    0    0  0.00000000000E+00  0.00000000000E+00  0.45593999997E+02  0.45594000000E+02  0.51100000000E-03 0.  1.
         11   -1    0    0    0    0 -0.00000000000E+00 -0.00000000000E+00 -0.45593999997E+02  0.45594000000E+02  0.51100000000E-03 0. -1.
    9900012    2    1    2    0    0  0.78369951272E+01 -0.12184165832E+02  0.40911505240E+02  0.47787266704E+02  0.19999980209E+02 0.  0.
         12    1    1    2    0    0 -0.78369951272E+01  0.12184165832E+02 -0.40911505240E+02  0.43400733296E+02  0.00000000000E+00 0. -1.
         11    1    3    3    0    0  0.63212084905E+01  0.28677511343E+01  0.15176278846E+02  0.16688352622E+02  0.51100000000E-03 0. -1.
        -11    1    3    3    0    0  0.28500443498E+01 -0.15036513007E+02  0.19852397450E+02  0.25066654363E+02  0.51100000000E-03 0.  1.
        -12    1    3    3    0    0 -0.13342577130E+01 -0.15403958975E-01  0.58828289443E+01  0.60322597188E+01  0.00000000000E+00 0.  1.
</event>
<event>
 7    1  0.2812635E-010  0.4778728E+02  0.7816164E-02  0.1312668E+00
        -11   -1    0    0    0    0  0.00000000000E+00  0.00000000000E+00  0.45593999997E+02  0.45594000000E+02  0.51100000000E-03 0. -1.
         11   -1    0    0    0    0 -0.00000000000E+00 -0.00000000000E+00 -0.45593999997E+02  0.45594000000E+02  0.51100000000E-03 0.  1.
    9900012    2    1    2    0    0 -0.38614083995E+02  0.16720864052E+02 -0.10629582372E+02  0.47787276518E+02  0.20000024954E+02 0.  0.
         12    1    1    2    0    0  0.38614083995E+02 -0.16720864052E+02  0.10629582372E+02  0.43400723482E+02  0.00000000000E+00 0. -1.
         11    1    3    3    0    0 -0.11654514497E+02 -0.18269588426E+01 -0.20911996031E+01  0.11980759693E+02  0.51100000000E-03 0.  1.
        -11    1    3    3    0    0 -0.49350247274E+01  0.96672399355E+01 -0.10422359311E+01  0.10903955843E+02  0.51100000000E-03 0. -1.
        -12    1    3    3    0    0 -0.22024544770E+02  0.88805829596E+01 -0.74961468374E+01  0.24902560982E+02  0.00000000000E+00 0.  1.
</event>
<event>
 7    1  0.2812635E-010  0.4778728E+02  0.7816164E-02  0.1312668E+00
        -11   -1    0    0    0    0  0.00000000000E+00  0.00000000000E+00  0.45593999997E+02  0.45594000000E+02  0.51100000000E-03 0.  1.
         11   -1    0    0    0    0 -0.00000000000E+00 -0.00000000000E+00 -0.45593999997E+02  0.45594000000E+02  0.51100000000E-03 0. -1.
    9900012    2    1    2    0    0  0.14690319100E+01 -0.43010720903E+02  0.56162181403E+01  0.47787284873E+02  0.20000063049E+02 0.  0.
         12    1    1    2    0    0 -0.14690319100E+01  0.43010720903E+02 -0.56162181403E+01  0.43400715127E+02  0.00000000000E+00 0. -1.
         11    1    3    3    0    0  0.70097948932E+01 -0.28117490984E+02  0.73625344497E+01  0.29898786555E+02  0.51100000000E-03 0.  1.
        -11    1    3    3    0    0 -0.19517430674E+01 -0.10547289377E+02 -0.44798575203E+01  0.11624273649E+02  0.51100000000E-03 0. -1.
        -12    1    3    3    0    0 -0.35890199158E+01 -0.43459405424E+01  0.27335412108E+01  0.62642246692E+01  0.00000000000E+00 0.  1.
</event>
<event>
 7    1  0.2812635E-010  0.4778727E+02  0.7816164E-02  0.1312668E+00
        -11   -1    0    0    0    0  0.00000000000E+00  0.00000000000E+00  0.45593999997E+02  0.45594000000E+02  0.51100000000E-03 0. -1.
         11   -1    0    0    0    0 -0.00000000000E+00 -0.00000000000E+00 -0.45593999997E+02  0.45594000000E+02  0.51100000000E-03 0.  1.
    9900012    2    1    2    0    0 -0.73212944706E+01  0.42725042533E+02 -0.21430351733E+01  0.47787271758E+02  0.20000003254E+02 0.  0.
         12    1    1    2    0    0  0.73212944706E+01 -0.42725042533E+02  0.21430351733E+01  0.43400728242E+02  0.00000000000E+00 0. -1.
         11    1    3    3    0    0 -0.12511597820E+02  0.20059208508E+02  0.40249513566E+00  0.23644744206E+02  0.51100000000E-03 0. -1.
        -11    1    3    3    0    0  0.54488250132E+01  0.20477631077E+02 -0.39141763321E+01  0.21548639056E+02  0.51100000000E-03 0.  1.
        -12    1    3    3    0    0 -0.25852166347E+00  0.21882029478E+01  0.13686460231E+01  0.25938884957E+01  0.00000000000E+00 0.  1.
</event>
<event>
 7    1  0.2812635E-010  0.4778727E+02  0.7816164E-02  0.1312668E+00
        -11   -1    0    0    0    0  0.00000000000E+00  0.00000000000E+00  0.45593999997E+02  0.45594000000E+02  0.51100000000E-03 0.  1.
         11   -1    0    0    0    0 -0.00000000000E+00 -0.00000000000E+00 -0.45593999997E+02  0.45594000000E+02  0.51100000000E-03 0. -1.
    9900012    2    1    2    0    0 -0.34251311833E+02 -0.82786282061E+01  0.25336439354E+02  0.47787271821E+02  0.20000003543E+02 0.  0.
         12    1    1    2    0    0  0.34251311833E+02  0.82786282061E+01 -0.25336439354E+02  0.43400728179E+02  0.00000000000E+00 0. -1.
         11    1    3    3    0    0 -0.84682056083E+01  0.22572334130E+01  0.12925876719E+02  0.15616782579E+02  0.51100000000E-03 0. -1.
        -11    1    3    3    0    0 -0.15236650969E+02 -0.10341464750E+02  0.11199462391E+02  0.21552943744E+02  0.51100000000E-03 0.  1.
        -12    1    3    3    0    0 -0.10546455256E+02 -0.19439686918E+00  0.12111002446E+01  0.10617545499E+02  0.00000000000E+00 0.  1.
</event>
<event>
 7    1  0.2812635E-010  0.4778728E+02  0.7816164E-02  0.1312668E+00
        -11   -1    0    0    0    0  0.00000000000E+00  0.00000000000E+00  0.45593999997E+02  0.45594000000E+02  0.51100000000E-03 0.  1.
         11   -1    0    0    0    0 -0.00000000000E+00 -0.00000000000E+00 -0.45593999997E+02  0.45594000000E+02  0.51100000000E-03 0. -1.
    9900012    2    1    2    0    0 -0.23687333943E+02  0.83187088315E+01  0.35402426269E+02  0.47787280056E+02  0.20000041087E+02 0.  0.
         12    1    1    2    0    0  0.23687333943E+02 -0.83187088315E+01 -0.35402426269E+02  0.43400719944E+02  0.00000000000E+00 0. -1.
         11    1    3    3    0    0 -0.45178417458E+01 -0.38446355789E+01  0.12731035356E+02  0.14045332971E+02  0.51100000000E-03 0. -1.
        -11    1    3    3    0    0 -0.17542508069E+02  0.88633874298E+01  0.13456416926E+02  0.23819621802E+02  0.51100000000E-03 0.  1.
         12    1    3    3    0    0 -0.16269841285E+01  0.32999569806E+01  0.92149739873E+01  0.99223252827E+01  0.00000000000E+00 0. -1.
</event>
<event>
 7    1  0.2812635E-010  0.4778727E+02  0.7816164E-02  0.1312668E+00
        -11   -1    0    0    0    0  0.00000000000E+00  0.00000000000E+00  0.45593999997E+02  0.45594000000E+02  0.51100000000E-03 0.  1.
         11   -1    0    0    0    0 -0.00000000000E+00 -0.00000000000E+00 -0.45593999997E+02  0.45594000000E+02  0.51100000000E-03 0. -1.
    9900012    2    1    2    0    0  0.13374564145E+01 -0.23857690671E+02  0.36230443795E+02  0.47787271304E+02  0.20000001182E+02 0.  0.
         12    1    1    2    0    0 -0.13374564145E+01  0.23857690671E+02 -0.36230443795E+02  0.43400728696E+02  0.00000000000E+00 0. -1.
         11    1    3    3    0    0  0.27009672564E+01 -0.11157924455E+02  0.79883740831E+01  0.13986015266E+02  0.51100000000E-03 0.  1.
        -11    1    3    3    0    0 -0.70329986853E+01 -0.86596861784E+01  0.20850952569E+02  0.23647736858E+02  0.51100000000E-03 0. -1.
        -12    1    3    3    0    0  0.56694878435E+01 -0.40400800373E+01  0.73911171427E+01  0.10153519180E+02  0.00000000000E+00 0.  1.
</event>
<event>
 7    1  0.2812635E-010  0.4778727E+02  0.7816164E-02  0.1312668E+00
        -11   -1    0    0    0    0  0.00000000000E+00  0.00000000000E+00  0.45593999997E+02  0.45594000000E+02  0.51100000000E-03 0.  1.
         11   -1    0    0    0    0 -0.00000000000E+00 -0.00000000000E+00 -0.45593999997E+02  0.45594000000E+02  0.51100000000E-03 0. -1.
    9900012    2    1    2    0    0 -0.41181267309E+02  0.63203920977E+01  0.12156455570E+02  0.47787267915E+02  0.19999985734E+02 0.  0.
         12    1    1    2    0    0  0.41181267309E+02 -0.63203920977E+01 -0.12156455570E+02  0.43400732085E+02  0.00000000000E+00 0. -1.
         11    1    3    3    0    0 -0.15296199840E+00  0.18881124384E+01 -0.12826078820E+01  0.22876733143E+01  0.51100000000E-03 0. -1.
        -11    1    3    3    0    0 -0.23766956045E+02 -0.42558555111E+01  0.75001539401E+01  0.25283053913E+02  0.51100000000E-03 0.  1.
        -12    1    3    3    0    0 -0.17261349266E+02  0.86881351703E+01  0.59389095121E+01  0.20216540688E+02  0.00000000000E+00 0.  1.
</event>
<event>
 7    1  0.2812635E-010  0.4778728E+02  0.7816164E-02  0.1312668E+00
        -11   -1    0    0    0    0  0.00000000000E+00  0.00000000000E+00  0.45593999997E+02  0.45594000000E+02  0.51100000000E-03 0.  1.
         11   -1    0    0    0    0 -0.00000000000E+00 -0.00000000000E+00 -0.45593999997E+02  0.45594000000E+02  0.51100000000E-03 0. -1.
    9900012    2    1    2    0    0  0.38142827060E+01 -0.41148791944E+02  0.13260869255E+02  0.47787280140E+02  0.20000041470E+02 0.  0.
         12    1    1    2    0    0 -0.38142827060E+01  0.41148791944E+02 -0.13260869255E+02  0.43400719860E+02  0.00000000000E+00 0. -1.
         11    1    3    3    0    0 -0.97815579042E+00  0.79973495970E+00 -0.13328543055E+01  0.18365363097E+01  0.51100000000E-03 0. -1.
        -11    1    3    3    0    0  0.87862356124E+00 -0.27062245871E+02  0.14152833117E+02  0.30552247323E+02  0.51100000000E-03 0.  1.
        -12    1    3    3    0    0  0.39138149352E+01 -0.14886281032E+02  0.44089044264E+00  0.15398496508E+02  0.00000000000E+00 0.  1.
</event>
<event>
 7    1  0.2812635E-010  0.4778727E+02  0.7816164E-02  0.1312668E+00
        -11   -1    0    0    0    0  0.00000000000E+00  0.00000000000E+00  0.45593999997E+02  0.45594000000E+02  0.51100000000E-03 0.  1.
         11   -1    0    0    0    0 -0.00000000000E+00 -0.00000000000E+00 -0.45593999997E+02  0.45594000000E+02  0.51100000000E-03 0. -1.
    9900012    2    1    2    0    0  0.32196487236E+02 -0.17356089149E+02  0.23361840710E+02  0.47787271640E+02  0.20000002715E+02 0.  0.
         12    1    1    2    0    0 -0.32196487236E+02  0.17356089149E+02 -0.23361840710E+02  0.43400728360E+02  0.00000000000E+00 0. -1.
         11    1    3    3    0    0  0.67182104295E+01 -0.54785021302E+01  0.15542414447E+02  0.17796487970E+02  0.51100000000E-03 0. -1.
        -11    1    3    3    0    0  0.23062989062E+02 -0.12689173782E+02  0.64668005350E+01  0.27106016033E+02  0.51100000000E-03 0.  1.
        -12    1    3    3    0    0  0.24152877439E+01  0.81158676362E+00  0.13526257280E+01  0.28847676372E+01  0.00000000000E+00 0.  1.
</event>
<event>
 7    1  0.2812635E-010  0.4778727E+02  0.7816164E-02  0.1312668E+00
        -11   -1    0    0    0    0  0.00000000000E+00  0.00000000000E+00  0.45593999997E+02  0.45594000000E+02  0.51100000000E-03 0.  1.
         11   -1    0    0    0    0 -0.00000000000E+00 -0.00000000000E+00 -0.45593999997E+02  0.45594000000E+02  0.51100000000E-03 0. -1.
    9900012    2    1    2    0    0 -0.63200573051E+01 -0.12692138287E+02  0.41019382294E+02  0.47787271638E+02  0.20000002705E+02 0.  0.
         12    1    1    2    0    0  0.63200573051E+01  0.12692138287E+02 -0.41019382294E+02  0.43400728362E+02  0.00000000000E+00 0. -1.
         11    1    3    3    0    0 -0.33413161281E+01 -0.21874650741E+01 -0.21887465500E-01  0.39937296153E+01  0.51100000000E-03 0. -1.
        -11    1    3    3    0    0 -0.25638106197E+01 -0.12642155497E+02  0.37265430495E+02  0.39434877086E+02  0.51100000000E-03 0.  1.
        -12    1    3    3    0    0 -0.41493055730E+00  0.21374822845E+01  0.37758392636E+01  0.43586649365E+01  0.00000000000E+00 0.  1.
</event>
<event>
 7    1  0.2812635E-010  0.4778727E+02  0.7816164E-02  0.1312668E+00
        -11   -1    0    0    0    0  0.00000000000E+00  0.00000000000E+00  0.45593999997E+02  0.45594000000E+02  0.51100000000E-03 0.  1.
         11   -1    0    0    0    0 -0.00000000000E+00 -0.00000000000E+00 -0.45593999997E+02  0.45594000000E+02  0.51100000000E-03 0. -1.
    9900012    2    1    2    0    0  0.31059670027E+02 -0.62067853653E+01  0.29671464639E+02  0.47787273041E+02  0.20000009103E+02 0.  0.
         12    1    1    2    0    0 -0.31059670027E+02  0.62067853653E+01 -0.29671464639E+02  0.43400726959E+02  0.00000000000E+00 0. -1.
         11    1    3    3    0    0 -0.10141619948E+01  0.25594229265E+01  0.88215126932E-01  0.27544423098E+01  0.51100000000E-03 0. -1.
        -11    1    3    3    0    0  0.22709066403E+02 -0.80279237626E+01  0.24478464413E+02  0.34341585244E+02  0.51100000000E-03 0.  1.
         12    1    3    3    0    0  0.93647656193E+01 -0.73828452916E+00  0.51047850987E+01  0.10691245487E+02  0.00000000000E+00 0. -1.
</event>
<event>
 7    1  0.2812635E-010  0.4778727E+02  0.7816164E-02  0.1312668E+00
        -11   -1    0    0    0    0  0.00000000000E+00  0.00000000000E+00  0.45593999997E+02  0.45594000000E+02  0.51100000000E-03 0. -1.
         11   -1    0    0    0    0 -0.00000000000E+00 -0.00000000000E+00 -0.45593999997E+02  0.45594000000E+02  0.51100000000E-03 0.  1.
    9900012    2    1    2    0    0  0.21761839051E+02  0.20197677878E+02 -0.31655952072E+02  0.47787272678E+02  0.20000007448E+02 0.  0.
         12    1    1    2    0    0 -0.21761839051E+02 -0.20197677878E+02  0.31655952072E+02  0.43400727322E+02  0.00000000000E+00 0. -1.
         11    1    3    3    0    0 -0.31827103444E+01  0.20199930417E+01 -0.13250883470E+01  0.39957322750E+01  0.51100000000E-03 0. -1.
        -11    1    3    3    0    0  0.18581866606E+02  0.11079859171E+02 -0.17610075062E+02  0.27895587281E+02  0.51100000000E-03 0.  1.
         12    1    3    3    0    0  0.63626827889E+01  0.70978256657E+01 -0.12720788663E+02  0.15895953122E+02  0.00000000000E+00 0. -1.
</event>
<event>
 7    1  0.2812635E-010  0.4778727E+02  0.7816164E-02  0.1312668E+00
        -11   -1    0    0    0    0  0.00000000000E+00  0.00000000000E+00  0.45593999997E+02  0.45594000000E+02  0.51100000000E-03 0.  1.
         11   -1    0    0    0    0 -0.00000000000E+00 -0.00000000000E+00 -0.45593999997E+02  0.45594000000E+02  0.51100000000E-03 0. -1.
    9900012    2    1    2    0    0 -0.33055328239E+02  0.99241946558E+01  0.26314996306E+02  0.47787269647E+02  0.19999993629E+02 0.  0.
         12    1    1    2    0    0  0.33055328239E+02 -0.99241946558E+01 -0.26314996306E+02  0.43400730353E+02  0.00000000000E+00 0. -1.
         11    1    3    3    0    0 -0.12188725654E+01  0.41414002557E+01 -0.78968251679E+00  0.43886723673E+01  0.51100000000E-03 0. -1.
        -11    1    3    3    0    0 -0.18627091792E+02  0.11807288314E+01  0.21116169791E+02  0.28182535303E+02  0.51100000000E-03 0.  1.
        -12    1    3    3    0    0 -0.13209363882E+02  0.46020655687E+01  0.59885090324E+01  0.15216061977E+02  0.00000000000E+00 0.  1.
</event>
<event>
 7    1  0.2812635E-010  0.4778727E+02  0.7816164E-02  0.1312668E+00
        -11   -1    0    0    0    0  0.00000000000E+00  0.00000000000E+00  0.45593999997E+02  0.45594000000E+02  0.51100000000E-03 0.  1.
         11   -1    0    0    0    0 -0.00000000000E+00 -0.00000000000E+00 -0.45593999997E+02  0.45594000000E+02  0.51100000000E-03 0. -1.
    9900012    2    1    2    0    0  0.13295755895E+02 -0.53798083824E+01  0.40962223383E+02  0.47787271808E+02  0.20000003484E+02 0.  0.
         12    1    1    2    0    0 -0.13295755895E+02  0.53798083824E+01 -0.40962223383E+02  0.43400728192E+02  0.00000000000E+00 0. -1.
         11    1    3    3    0    0  0.12844528425E+02 -0.27439921405E+01  0.97107246801E+01  0.16334306762E+02  0.51100000000E-03 0. -1.
        -11    1    3    3    0    0  0.11654423673E+01 -0.63101561251E+00  0.15817544889E+02  0.15872969577E+02  0.51100000000E-03 0.  1.
         12    1    3    3    0    0 -0.71421489725E+00 -0.20048006295E+01  0.15433953814E+02  0.15579995469E+02  0.00000000000E+00 0. -1.
</event>
<event>
 7    1  0.2812635E-010  0.4778727E+02  0.7816164E-02  0.1312668E+00
        -11   -1    0    0    0    0  0.00000000000E+00  0.00000000000E+00  0.45593999997E+02  0.45594000000E+02  0.51100000000E-03 0. -1.
         11   -1    0    0    0    0 -0.00000000000E+00 -0.00000000000E+00 -0.45593999997E+02  0.45594000000E+02  0.51100000000E-03 0.  1.
    9900012    2    1    2    0    0 -0.29575484544E+02 -0.30872593004E+02 -0.74697363298E+01  0.47787271369E+02  0.20000001481E+02 0.  0.
         12    1    1    2    0    0  0.29575484544E+02  0.30872593004E+02  0.74697363298E+01  0.43400728631E+02  0.00000000000E+00 0. -1.
         11    1    3    3    0    0 -0.80390521032E+01 -0.16316045782E+02  0.28910330203E+01  0.18417322848E+02  0.51100000000E-03 0. -1.
        -11    1    3    3    0    0 -0.68479552412E+00  0.10361422869E+01 -0.13089908784E+01  0.18044370672E+01  0.51100000000E-03 0.  1.
         12    1    3    3    0    0 -0.20851636917E+02 -0.15592689509E+02 -0.90517784717E+01  0.27565511454E+02  0.00000000000E+00 0. -1.
</event>
<event>
 7    1  0.2955984E-010  0.4778727E+02  0.7816164E-02  0.1312668E+00
        -11   -1    0    0    0    0  0.00000000000E+00  0.00000000000E+00  0.45593999997E+02  0.45594000000E+02  0.51100000000E-03 0.  1.
         11   -1    0    0    0    0 -0.00000000000E+00 -0.00000000000E+00 -0.45593999997E+02  0.45594000000E+02  0.51100000000E-03 0. -1.
    9900012    2    1    2    0    0  0.26859919353E+02  0.30310242175E+02  0.15603117848E+02  0.47787270341E+02  0.19999996794E+02 0.  0.
         12    1    1    2    0    0 -0.26859919353E+02 -0.30310242175E+02 -0.15603117848E+02  0.43400729659E+02  0.00000000000E+00 0. -1.
         11    1    3    3    0    0  0.48139335017E+01  0.53755630013E+01 -0.44162697962E+01  0.84601461284E+01  0.51100000000E-03 0. -1.
        -11    1    3    3    0    0  0.15473455919E+02  0.19384807438E+02  0.11947464602E+02  0.27530719354E+02  0.51100000000E-03 0.  1.
         12    1    3    3    0    0  0.65725299324E+01  0.55498717355E+01  0.80719230423E+01  0.11796404859E+02  0.00000000000E+00 0. -1.
</event>
<event>
 7    1  0.2812635E-010  0.4778728E+02  0.7816164E-02  0.1312668E+00
        -11   -1    0    0    0    0  0.00000000000E+00  0.00000000000E+00  0.45593999997E+02  0.45594000000E+02  0.51100000000E-03 0.  1.
         11   -1    0    0    0    0 -0.00000000000E+00 -0.00000000000E+00 -0.45593999997E+02  0.45594000000E+02  0.51100000000E-03 0. -1.
    9900012    2    1    2    0    0  0.17353109628E+02  0.22006170393E+02  0.33139407730E+02  0.47787282335E+02  0.20000051480E+02 0.  0.
         12    1    1    2    0    0 -0.17353109628E+02 -0.22006170393E+02 -0.33139407730E+02  0.43400717665E+02  0.00000000000E+00 0. -1.
         11    1    3    3    0    0  0.76102478552E+01  0.19645782972E+02  0.20398566352E+02  0.29325316204E+02  0.51100000000E-03 0. -1.
        -11    1    3    3    0    0  0.41759467900E+01  0.55189829493E+01  0.73271285373E+01  0.10078914488E+02  0.51100000000E-03 0.  1.
         12    1    3    3    0    0  0.55669149826E+01 -0.31585955285E+01  0.54137128410E+01  0.83830516437E+01  0.00000000000E+00 0. -1.
</event>
<event>
 7    1  0.2812635E-010  0.4778726E+02  0.7816164E-02  0.1312668E+00
        -11   -1    0    0    0    0  0.00000000000E+00  0.00000000000E+00  0.45593999997E+02  0.45594000000E+02  0.51100000000E-03 0.  1.
         11   -1    0    0    0    0 -0.00000000000E+00 -0.00000000000E+00 -0.45593999997E+02  0.45594000000E+02  0.51100000000E-03 0. -1.
    9900012    2    1    2    0    0 -0.22636192580E+02  0.17581349385E+02  0.32590226689E+02  0.47787263413E+02  0.19999965204E+02 0.  0.
         12    1    1    2    0    0  0.22636192580E+02 -0.17581349385E+02 -0.32590226689E+02  0.43400736587E+02  0.00000000000E+00 0. -1.
         11    1    3    3    0    0 -0.47333981576E+01  0.22269975816E+01 -0.18144683377E+01  0.55368648129E+01  0.51100000000E-03 0. -1.
        -11    1    3    3    0    0 -0.17300966529E+02  0.15204253519E+02  0.30099885064E+02  0.37901132556E+02  0.51100000000E-03 0.  1.
         12    1    3    3    0    0 -0.60182789328E+00  0.15009828401E+00  0.43048099626E+01  0.43492660440E+01  0.00000000000E+00 0. -1.
</event>
<event>
 7    1  0.2812635E-010  0.4778727E+02  0.7816164E-02  0.1312668E+00
        -11   -1    0    0    0    0  0.00000000000E+00  0.00000000000E+00  0.45593999997E+02  0.45594000000E+02  0.51100000000E-03 0.  1.
         11   -1    0    0    0    0 -0.00000000000E+00 -0.00000000000E+00 -0.45593999997E+02  0.45594000000E+02  0.51100000000E-03 0. -1.
    9900012    2    1    2    0    0 -0.33501019467E+02 -0.22515213704E+02 -0.15948991674E+02  0.47787268567E+02  0.19999988706E+02 0.  0.
         12    1    1    2    0    0  0.33501019467E+02  0.22515213704E+02  0.15948991674E+02  0.43400731433E+02  0.00000000000E+00 0. -1.
         11    1    3    3    0    0 -0.11319555659E+01 -0.60794411181E+01 -0.80419571141E+01  0.10144653873E+02  0.51100000000E-03 0. -1.
        -11    1    3    3    0    0 -0.22203316125E+02 -0.13007278149E+02 -0.32140161629E+01  0.25932728972E+02  0.51100000000E-03 0.  1.
        -12    1    3    3    0    0 -0.10165747776E+02 -0.34284944360E+01 -0.46930183974E+01  0.11709885722E+02  0.00000000000E+00 0.  1.
</event>
<event>
 7    1  0.2812635E-010  0.4778728E+02  0.7816164E-02  0.1312668E+00
        -11   -1    0    0    0    0  0.00000000000E+00  0.00000000000E+00  0.45593999997E+02  0.45594000000E+02  0.51100000000E-03 0.  1.
         11   -1    0    0    0    0 -0.00000000000E+00 -0.00000000000E+00 -0.45593999997E+02  0.45594000000E+02  0.51100000000E-03 0. -1.
    9900012    2    1    2    0    0 -0.43654899770E+01  0.37659257962E+02  0.21126894609E+02  0.47787275481E+02  0.20000020226E+02 0.  0.
         12    1    1    2    0    0  0.43654899770E+01 -0.37659257962E+02 -0.21126894609E+02  0.43400724519E+02  0.00000000000E+00 0. -1.
         11    1    3    3    0    0 -0.74274822097E+01  0.18115246256E+02  0.50906869061E+01  0.20229798129E+02  0.51100000000E-03 0. -1.
        -11    1    3    3    0    0  0.17128955764E+01  0.50714173852E+01  0.10896302787E+02  0.12140127686E+02  0.51100000000E-03 0.  1.
        -12    1    3    3    0    0  0.13490966563E+01  0.14472594321E+02  0.51399049155E+01  0.15417349666E+02  0.00000000000E+00 0.  1.
</event>
<event>
 7    1  0.2812635E-010  0.4778727E+02  0.7816164E-02  0.1312668E+00
        -11   -1    0    0    0    0  0.00000000000E+00  0.00000000000E+00  0.45593999997E+02  0.45594000000E+02  0.51100000000E-03 0.  1.
         11   -1    0    0    0    0 -0.00000000000E+00 -0.00000000000E+00 -0.45593999997E+02  0.45594000000E+02  0.51100000000E-03 0. -1.
    9900012    2    1    2    0    0  0.42863869338E+02  0.41107405651E+01  0.54234414911E+01  0.47787271893E+02  0.20000003869E+02 0.  0.
         12    1    1    2    0    0 -0.42863869338E+02 -0.41107405651E+01 -0.54234414911E+01  0.43400728107E+02  0.00000000000E+00 0. -1.
         11    1    3    3    0    0  0.12487776280E+01 -0.24361292332E+01  0.35537429836E+00  0.27605184944E+01  0.51100000000E-03 0. -1.
        -11    1    3    3    0    0  0.13878800642E+02  0.10234967868E+01 -0.53194937826E+01  0.14898512252E+02  0.51100000000E-03 0.  1.
        -12    1    3    3    0    0  0.27736291067E+02  0.55233730115E+01  0.10387560975E+02  0.30128241147E+02  0.00000000000E+00 0.  1.
</event>
<event>
 7    1  0.2812635E-010  0.4778727E+02  0.7816164E-02  0.1312668E+00
        -11   -1    0    0    0    0  0.00000000000E+00  0.00000000000E+00  0.45593999997E+02  0.45594000000E+02  0.51100000000E-03 0.  1.
         11   -1    0    0    0    0 -0.00000000000E+00 -0.00000000000E+00 -0.45593999997E+02  0.45594000000E+02  0.51100000000E-03 0. -1.
    9900012    2    1    2    0    0  0.20546326722E+02  0.32765602650E+02  0.19694846066E+02  0.47787271661E+02  0.20000002811E+02 0.  0.
         12    1    1    2    0    0 -0.20546326722E+02 -0.32765602650E+02 -0.19694846066E+02  0.43400728339E+02  0.00000000000E+00 0. -1.
         11    1    3    3    0    0  0.45425382588E+01  0.67971910653E+01  0.29395662364E+01  0.86877793555E+01  0.51100000000E-03 0. -1.
        -11    1    3    3    0    0  0.18260257898E+02  0.16771400089E+02  0.76110766940E+01  0.25935407615E+02  0.51100000000E-03 0.  1.
        -12    1    3    3    0    0 -0.22564694343E+01  0.91970114951E+01  0.91442031359E+01  0.13164084691E+02  0.00000000000E+00 0.  1.
</event>
<event>
 7    1  0.2812635E-010  0.4778728E+02  0.7816164E-02  0.1312668E+00
        -11   -1    0    0    0    0  0.00000000000E+00  0.00000000000E+00  0.45593999997E+02  0.45594000000E+02  0.51100000000E-03 0.  1.
         11   -1    0    0    0    0 -0.00000000000E+00 -0.00000000000E+00 -0.45593999997E+02  0.45594000000E+02  0.51100000000E-03 0. -1.
    9900012    2    1    2    0    0  0.37206978948E+01 -0.13089489321E+02  0.41212188230E+02  0.47787276708E+02  0.20000025825E+02 0.  0.
         12    1    1    2    0    0 -0.37206978948E+01  0.13089489321E+02 -0.41212188230E+02  0.43400723292E+02  0.00000000000E+00 0. -1.
         11    1    3    3    0    0  0.15523487287E+01  0.20774488166E+01 -0.72633557162E+00  0.26931661265E+01  0.51100000000E-03 0. -1.
        -11    1    3    3    0    0 -0.11573493635E+01 -0.11642073687E+02  0.28463220096E+02  0.30773888864E+02  0.51100000000E-03 0.  1.
         12    1    3    3    0    0  0.33256985297E+01 -0.35248644502E+01  0.13475303706E+02  0.14320221718E+02  0.00000000000E+00 0. -1.
</event>
<event>
 7    1  0.2812635E-010  0.4778727E+02  0.7816164E-02  0.1312668E+00
        -11   -1    0    0    0    0  0.00000000000E+00  0.00000000000E+00  0.45593999997E+02  0.45594000000E+02  0.51100000000E-03 0. -1.
         11   -1    0    0    0    0 -0.00000000000E+00 -0.00000000000E+00 -0.45593999997E+02  0.45594000000E+02  0.51100000000E-03 0.  1.
    9900012    2    1    2    0    0  0.39772189840E+02 -0.16986768723E+02 -0.36395097972E+01  0.47787269270E+02  0.19999991908E+02 0.  0.
         12    1    1    2    0    0 -0.39772189840E+02  0.16986768723E+02  0.36395097972E+01  0.43400730730E+02  0.00000000000E+00 0. -1.
         11    1    3    3    0    0  0.45387674782E+01 -0.81826550502E+01 -0.57169826339E+01  0.10965406722E+02  0.51100000000E-03 0. -1.
        -11    1    3    3    0    0  0.31535727336E+02 -0.96312311512E+01  0.19200123033E+01  0.33029519518E+02  0.51100000000E-03 0.  1.
        -12    1    3    3    0    0  0.36976950262E+01  0.82711747812E+00  0.15746053346E+00  0.37923430289E+01  0.00000000000E+00 0.  1.
</event>
<event>
 7    1  0.2812635E-010  0.4778727E+02  0.7816164E-02  0.1312668E+00
        -11   -1    0    0    0    0  0.00000000000E+00  0.00000000000E+00  0.45593999997E+02  0.45594000000E+02  0.51100000000E-03 0.  1.
         11   -1    0    0    0    0 -0.00000000000E+00 -0.00000000000E+00 -0.45593999997E+02  0.45594000000E+02  0.51100000000E-03 0. -1.
    9900012    2    1    2    0    0 -0.29617280195E+02 -0.12889502284E+02  0.28987937941E+02  0.47787273032E+02  0.20000009061E+02 0.  0.
         12    1    1    2    0    0  0.29617280195E+02  0.12889502284E+02 -0.28987937941E+02  0.43400726968E+02  0.00000000000E+00 0. -1.
         11    1    3    3    0    0 -0.10203243407E+02 -0.68292476577E+01  0.17675942295E+01  0.12404402010E+02  0.51100000000E-03 0.  1.
        -11    1    3    3    0    0 -0.49529332102E+01  0.21435189162E+01  0.10486377350E+02  0.11793656384E+02  0.51100000000E-03 0. -1.
         12    1    3    3    0    0 -0.14461103578E+02 -0.82037735423E+01  0.16733966362E+02  0.23589214638E+02  0.00000000000E+00 0. -1.
</event>
<event>
 7    1  0.2812635E-010  0.4778727E+02  0.7816164E-02  0.1312668E+00
        -11   -1    0    0    0    0  0.00000000000E+00  0.00000000000E+00  0.45593999997E+02  0.45594000000E+02  0.51100000000E-03 0. -1.
         11   -1    0    0    0    0 -0.00000000000E+00 -0.00000000000E+00 -0.45593999997E+02  0.45594000000E+02  0.51100000000E-03 0.  1.
    9900012    2    1    2    0    0 -0.30219168469E+02 -0.87139212022E+00 -0.31139458051E+02  0.47787270572E+02  0.19999997847E+02 0.  0.
         12    1    1    2    0    0  0.30219168469E+02  0.87139212022E+00  0.31139458051E+02  0.43400729428E+02  0.00000000000E+00 0. -1.
         11    1    3    3    0    0 -0.44836775558E+01  0.43236730079E+01 -0.15277825854E+02  0.16498771948E+02  0.51100000000E-03 0. -1.
        -11    1    3    3    0    0 -0.13100646709E+02 -0.47496407032E+01 -0.56501033607E+01  0.15036944478E+02  0.51100000000E-03 0.  1.
        -12    1    3    3    0    0 -0.12634844204E+02 -0.44542442498E+00 -0.10211528836E+02  0.16251554145E+02  0.00000000000E+00 0.  1.
</event>
<event>
 7    1  0.2812635E-010  0.4778727E+02  0.7816164E-02  0.1312668E+00
        -11   -1    0    0    0    0  0.00000000000E+00  0.00000000000E+00  0.45593999997E+02  0.45594000000E+02  0.51100000000E-03 0. -1.
         11   -1    0    0    0    0 -0.00000000000E+00 -0.00000000000E+00 -0.45593999997E+02  0.45594000000E+02  0.51100000000E-03 0.  1.
    9900012    2    1    2    0    0 -0.12488245642E+02  0.85465669993E+01 -0.40677057456E+02  0.47787273163E+02  0.20000009659E+02 0.  0.
         12    1    1    2    0    0  0.12488245642E+02 -0.85465669993E+01  0.40677057456E+02  0.43400726837E+02  0.00000000000E+00 0. -1.
         11    1    3    3    0    0 -0.86601575641E+01 -0.46641205511E+01 -0.16403486840E+02  0.19126597458E+02  0.51100000000E-03 0. -1.
        -11    1    3    3    0    0 -0.43304033609E+01  0.66732030521E+01 -0.17552720583E+02  0.19271274798E+02  0.51100000000E-03 0.  1.
         12    1    3    3    0    0  0.50231528281E+00  0.65374844983E+01 -0.67208500338E+01  0.93894009067E+01  0.00000000000E+00 0. -1.
</event>
<event>
 7    1  0.2812635E-010  0.4778727E+02  0.7816164E-02  0.1312668E+00
        -11   -1    0    0    0    0  0.00000000000E+00  0.00000000000E+00  0.45593999997E+02  0.45594000000E+02  0.51100000000E-03 0. -1.
         11   -1    0    0    0    0 -0.00000000000E+00 -0.00000000000E+00 -0.45593999997E+02  0.45594000000E+02  0.51100000000E-03 0.  1.
    9900012    2    1    2    0    0 -0.15816959175E+02  0.10362886143E+02 -0.39064793163E+02  0.47787266462E+02  0.19999979108E+02 0.  0.
         12    1    1    2    0    0  0.15816959175E+02 -0.10362886143E+02  0.39064793163E+02  0.43400733538E+02  0.00000000000E+00 0. -1.
         11    1    3    3    0    0 -0.36313631122E+01 -0.27938933999E+01 -0.34104457311E+01  0.57117229212E+01  0.51100000000E-03 0. -1.
        -11    1    3    3    0    0 -0.10424409972E+02  0.10732141214E+02 -0.36070203499E+02  0.39050054533E+02  0.51100000000E-03 0.  1.
        -12    1    3    3    0    0 -0.17611860909E+01  0.24246383287E+01  0.41585606684E+00  0.30254890084E+01  0.00000000000E+00 0.  1.
</event>
<event>
 7    1  0.2812635E-010  0.4778726E+02  0.7816164E-02  0.1312668E+00
        -11   -1    0    0    0    0  0.00000000000E+00  0.00000000000E+00  0.45593999997E+02  0.45594000000E+02  0.51100000000E-03 0.  1.
         11   -1    0    0    0    0 -0.00000000000E+00 -0.00000000000E+00 -0.45593999997E+02  0.45594000000E+02  0.51100000000E-03 0. -1.
    9900012    2    1    2    0    0  0.16543228678E+02  0.83323912106E+01  0.39249418659E+02  0.47787262409E+02  0.19999960625E+02 0.  0.
         12    1    1    2    0    0 -0.16543228678E+02 -0.83323912106E+01 -0.39249418659E+02  0.43400737591E+02  0.00000000000E+00 0. -1.
         11    1    3    3    0    0  0.27268038360E+01  0.40921863445E+01  0.68529842999E+01  0.84347402043E+01  0.51100000000E-03 0. -1.
        -11    1    3    3    0    0  0.11459450121E+02  0.80121160493E+01  0.11845035207E+02  0.18325333830E+02  0.51100000000E-03 0.  1.
        -12    1    3    3    0    0  0.23569747216E+01 -0.37719111832E+01  0.20551399152E+02  0.21027188374E+02  0.00000000000E+00 0.  1.
</event>
<event>
 7    1  0.2812635E-010  0.4778727E+02  0.7816164E-02  0.1312668E+00
        -11   -1    0    0    0    0  0.00000000000E+00  0.00000000000E+00  0.45593999997E+02  0.45594000000E+02  0.51100000000E-03 0. -1.
         11   -1    0    0    0    0 -0.00000000000E+00 -0.00000000000E+00 -0.45593999997E+02  0.45594000000E+02  0.51100000000E-03 0.  1.
    9900012    2    1    2    0    0 -0.33423137333E+02 -0.12903873470E+01 -0.27655960928E+02  0.47787269781E+02  0.19999994239E+02 0.  0.
         12    1    1    2    0    0  0.33423137333E+02  0.12903873470E+01  0.27655960928E+02  0.43400730219E+02  0.00000000000E+00 0. -1.
         11    1    3    3    0    0 -0.66176243879E+01 -0.40910079280E+00 -0.10395495885E+02  0.12329908798E+02  0.51100000000E-03 0. -1.
        -11    1    3    3    0    0 -0.28574138944E+02 -0.20297774942E+01 -0.14890850067E+02  0.32285272634E+02  0.51100000000E-03 0.  1.
        -12    1    3    3    0    0  0.17686259986E+01  0.11484909400E+01 -0.23696149756E+01  0.31720883491E+01  0.00000000000E+00 0.  1.
</event>
<event>
 7    1  0.2812635E-010  0.4778727E+02  0.7816164E-02  0.1312668E+00
        -11   -1    0    0    0    0  0.00000000000E+00  0.00000000000E+00  0.45593999997E+02  0.45594000000E+02  0.51100000000E-03 0.  1.
         11   -1    0    0    0    0 -0.00000000000E+00 -0.00000000000E+00 -0.45593999997E+02  0.45594000000E+02  0.51100000000E-03 0. -1.
    9900012    2    1    2    0    0 -0.26860277454E+02 -0.17196462232E+02  0.29435188925E+02  0.47787272296E+02  0.20000005707E+02 0.  0.
         12    1    1    2    0    0  0.26860277454E+02  0.17196462232E+02 -0.29435188925E+02  0.43400727704E+02  0.00000000000E+00 0. -1.
         11    1    3    3    0    0 -0.11431117504E+02  0.39570059092E+00  0.55503650627E+01  0.12713519534E+02  0.51100000000E-03 0. -1.
        -11    1    3    3    0    0 -0.83763755692E-01 -0.64627355544E+01  0.83871411935E+01  0.10588583705E+02  0.51100000000E-03 0.  1.
        -12    1    3    3    0    0 -0.15345396194E+02 -0.11129427269E+02  0.15497682669E+02  0.24485169057E+02  0.00000000000E+00 0.  1.
</event>
<event>
 7    1  0.2812635E-010  0.4778727E+02  0.7816164E-02  0.1312668E+00
        -11   -1    0    0    0    0  0.00000000000E+00  0.00000000000E+00  0.45593999997E+02  0.45594000000E+02  0.51100000000E-03 0.  1.
         11   -1    0    0    0    0 -0.00000000000E+00 -0.00000000000E+00 -0.45593999997E+02  0.45594000000E+02  0.51100000000E-03 0. -1.
    9900012    2    1    2    0    0 -0.66990265587E+01  0.40453436411E+02  0.14222011528E+02  0.47787273207E+02  0.20000009859E+02 0.  0.
         12    1    1    2    0    0  0.66990265587E+01 -0.40453436411E+02 -0.14222011528E+02  0.43400726793E+02  0.00000000000E+00 0. -1.
         11    1    3    3    0    0 -0.18682836000E+00  0.67563302685E+00  0.44069262371E+01  0.44623294302E+01  0.51100000000E-03 0. -1.
        -11    1    3    3    0    0 -0.10273224370E+02  0.29176517859E+02  0.77479695914E+01  0.31887918816E+02  0.51100000000E-03 0.  1.
        -12    1    3    3    0    0  0.37610261715E+01  0.10601285525E+02  0.20671156993E+01  0.11437024961E+02  0.00000000000E+00 0.  1.
</event>
<event>
 7    1  0.2812635E-010  0.4778727E+02  0.7816164E-02  0.1312668E+00
        -11   -1    0    0    0    0  0.00000000000E+00  0.00000000000E+00  0.45593999997E+02  0.45594000000E+02  0.51100000000E-03 0.  1.
         11   -1    0    0    0    0 -0.00000000000E+00 -0.00000000000E+00 -0.45593999997E+02  0.45594000000E+02  0.51100000000E-03 0. -1.
    9900012    2    1    2    0    0 -0.28886520687E+01  0.18726729220E+02  0.39045979196E+02  0.47787272018E+02  0.20000004438E+02 0.  0.
         12    1    1    2    0    0  0.28886520687E+01 -0.18726729220E+02 -0.39045979196E+02  0.43400727982E+02  0.00000000000E+00 0. -1.
         11    1    3    3    0    0 -0.90833453957E+01  0.85637695137E+01  0.18858052986E+02  0.22615735110E+02  0.51100000000E-03 0. -1.
        -11    1    3    3    0    0  0.68248343981E+00 -0.10733021181E+01  0.65045053726E+01  0.66276957901E+01  0.51100000000E-03 0.  1.
         12    1    3    3    0    0  0.55122098871E+01  0.11236261824E+02  0.13683420837E+02  0.18543841118E+02  0.00000000000E+00 0. -1.
</event>
<event>
 7    1  0.2812635E-010  0.4778727E+02  0.7816164E-02  0.1312668E+00
        -11   -1    0    0    0    0  0.00000000000E+00  0.00000000000E+00  0.45593999997E+02  0.45594000000E+02  0.51100000000E-03 0.  1.
         11   -1    0    0    0    0 -0.00000000000E+00 -0.00000000000E+00 -0.45593999997E+02  0.45594000000E+02  0.51100000000E-03 0. -1.
    9900012    2    1    2    0    0 -0.20073570655E+02  0.37206769679E+02  0.98148638353E+01  0.47787268429E+02  0.19999988075E+02 0.  0.
         12    1    1    2    0    0  0.20073570655E+02 -0.37206769679E+02 -0.98148638353E+01  0.43400731571E+02  0.00000000000E+00 0. -1.
         11    1    3    3    0    0 -0.18977473770E+01  0.69045294608E+01  0.66738430679E+01  0.97884704493E+01  0.51100000000E-03 0. -1.
        -11    1    3    3    0    0 -0.13454676721E+02  0.18748431459E+02 -0.42913506669E+01  0.23472275106E+02  0.51100000000E-03 0.  1.
        -12    1    3    3    0    0 -0.47211465568E+01  0.11553808759E+02  0.74323714343E+01  0.14526522874E+02  0.00000000000E+00 0.  1.
</event>
<event>
 7    1  0.2812635E-010  0.4778727E+02  0.7816164E-02  0.1312668E+00
        -11   -1    0    0    0    0  0.00000000000E+00  0.00000000000E+00  0.45593999997E+02  0.45594000000E+02  0.51100000000E-03 0.  1.
         11   -1    0    0    0    0 -0.00000000000E+00 -0.00000000000E+00 -0.45593999997E+02  0.45594000000E+02  0.51100000000E-03 0. -1.
    9900012    2    1    2    0    0  0.20976195950E+02 -0.29999999292E+02  0.23315710794E+02  0.47787272773E+02  0.20000007880E+02 0.  0.
         12    1    1    2    0    0 -0.20976195950E+02  0.29999999292E+02 -0.23315710794E+02  0.43400727227E+02  0.00000000000E+00 0. -1.
         11    1    3    3    0    0  0.41323547515E+01  0.12618389388E+01  0.16307281652E+01  0.46182104661E+01  0.51100000000E-03 0. -1.
        -11    1    3    3    0    0  0.14191596164E+02 -0.20426875417E+02  0.94375486526E+01  0.26603119475E+02  0.51100000000E-03 0.  1.
        -12    1    3    3    0    0  0.26522450347E+01 -0.10834962814E+02  0.12247433976E+02  0.16565942832E+02  0.00000000000E+00 0.  1.
</event>
<event>
 7    1  0.2812635E-010  0.4778727E+02  0.7816164E-02  0.1312668E+00
        -11   -1    0    0    0    0  0.00000000000E+00  0.00000000000E+00  0.45593999997E+02  0.45594000000E+02  0.51100000000E-03 0.  1.
         11   -1    0    0    0    0 -0.00000000000E+00 -0.00000000000E+00 -0.45593999997E+02  0.45594000000E+02  0.51100000000E-03 0. -1.
    9900012    2    1    2    0    0 -0.16457068203E+02 -0.23033247533E+02  0.32897683552E+02  0.47787272254E+02  0.20000005517E+02 0.  0.
         12    1    1    2    0    0  0.16457068203E+02  0.23033247533E+02 -0.32897683552E+02  0.43400727746E+02  0.00000000000E+00 0. -1.
         11    1    3    3    0    0 -0.12304303172E+02 -0.24787796639E+02  0.28179479256E+02  0.39495743951E+02  0.51100000000E-03 0. -1.
        -11    1    3    3    0    0 -0.41403747913E+01 -0.17210853853E+00  0.12573396556E+01  0.43304997439E+01  0.51100000000E-03 0.  1.
         12    1    3    3    0    0 -0.12390239511E-01  0.19266576445E+01  0.34608646399E+01  0.39610285599E+01  0.00000000000E+00 0. -1.
</event>
<event>
 7    1  0.2812635E-010  0.4778727E+02  0.7816164E-02  0.1312668E+00
        -11   -1    0    0    0    0  0.00000000000E+00  0.00000000000E+00  0.45593999997E+02  0.45594000000E+02  0.51100000000E-03 0. -1.
         11   -1    0    0    0    0 -0.00000000000E+00 -0.00000000000E+00 -0.45593999997E+02  0.45594000000E+02  0.51100000000E-03 0.  1.
    9900012    2    1    2    0    0 -0.29725185731E+02 -0.64799548713E+01 -0.30952329007E+02  0.47787272439E+02  0.20000006359E+02 0.  0.
         12    1    1    2    0    0  0.29725185731E+02  0.64799548713E+01  0.30952329007E+02  0.43400727561E+02  0.00000000000E+00 0. -1.
         11    1    3    3    0    0 -0.12541490743E+02 -0.36476668499E+01 -0.46093405826E+01  0.13850649240E+02  0.51100000000E-03 0. -1.
        -11    1    3    3    0    0 -0.60516004134E+01 -0.38386864725E+01 -0.19632272127E+02  0.20899365793E+02  0.51100000000E-03 0.  1.
        -12    1    3    3    0    0 -0.11132094575E+02  0.10063984511E+01 -0.67107162969E+01  0.13037257407E+02  0.00000000000E+00 0.  1.
</event>
<event>
 7    1  0.2812635E-010  0.4778727E+02  0.7816164E-02  0.1312668E+00
        -11   -1    0    0    0    0  0.00000000000E+00  0.00000000000E+00  0.45593999997E+02  0.45594000000E+02  0.51100000000E-03 0.  1.
         11   -1    0    0    0    0 -0.00000000000E+00 -0.00000000000E+00 -0.45593999997E+02  0.45594000000E+02  0.51100000000E-03 0. -1.
    9900012    2    1    2    0    0  0.12014195882E+02  0.41652340625E+02  0.20892443688E+01  0.47787270464E+02  0.19999997354E+02 0.  0.
         12    1    1    2    0    0 -0.12014195882E+02 -0.41652340625E+02 -0.20892443688E+01  0.43400729536E+02  0.00000000000E+00 0. -1.
         11    1    3    3    0    0  0.25252116598E+01  0.74545387442E+01  0.78317076560E+01  0.11103264695E+02  0.51100000000E-03 0. -1.
        -11    1    3    3    0    0  0.98823000198E+01  0.33873652447E+02 -0.63902815452E+01  0.35859725072E+02  0.51100000000E-03 0.  1.
        -12    1    3    3    0    0 -0.39331579747E+00  0.32414943376E+00  0.64781825804E+00  0.82428069697E+00  0.00000000000E+00 0.  1.
</event>
<event>
 7    1  0.2812635E-010  0.4778727E+02  0.7816164E-02  0.1312668E+00
        -11   -1    0    0    0    0  0.00000000000E+00  0.00000000000E+00  0.45593999997E+02  0.45594000000E+02  0.51100000000E-03 0. -1.
         11   -1    0    0    0    0 -0.00000000000E+00 -0.00000000000E+00 -0.45593999997E+02  0.45594000000E+02  0.51100000000E-03 0.  1.
    9900012    2    1    2    0    0  0.33917116879E+02  0.14453963478E+02 -0.22898368783E+02  0.47787272235E+02  0.20000005427E+02 0.  0.
         12    1    1    2    0    0 -0.33917116879E+02 -0.14453963478E+02  0.22898368783E+02  0.43400727765E+02  0.00000000000E+00 0. -1.
         11    1    3    3    0    0  0.14665853334E+02  0.12020946562E+02 -0.59903960162E+01  0.19886559656E+02  0.51100000000E-03 0. -1.
        -11    1    3    3    0    0  0.20638685123E+02  0.20476849088E+01 -0.15556709007E+02  0.25926039660E+02  0.51100000000E-03 0.  1.
         12    1    3    3    0    0 -0.13874215769E+01  0.38533200712E+00 -0.13512637602E+01  0.19746729191E+01  0.00000000000E+00 0. -1.
</event>
<event>
 7    1  0.2812635E-010  0.4778727E+02  0.7816164E-02  0.1312668E+00
        -11   -1    0    0    0    0  0.00000000000E+00  0.00000000000E+00  0.45593999997E+02  0.45594000000E+02  0.51100000000E-03 0.  1.
         11   -1    0    0    0    0 -0.00000000000E+00 -0.00000000000E+00 -0.45593999997E+02  0.45594000000E+02  0.51100000000E-03 0. -1.
    9900012    2    1    2    0    0  0.23418702935E+02  0.35111978540E+02  0.10116147774E+02  0.47787272702E+02  0.20000007559E+02 0.  0.
         12    1    1    2    0    0 -0.23418702935E+02 -0.35111978540E+02 -0.10116147774E+02  0.43400727298E+02  0.00000000000E+00 0. -1.
         11    1    3    3    0    0 -0.20595281507E+01  0.24706871199E+01  0.45453315375E+00  0.32484691313E+01  0.51100000000E-03 0. -1.
        -11    1    3    3    0    0  0.22461968854E+02  0.28911330779E+02  0.35699667611E+01  0.36785183908E+02  0.51100000000E-03 0.  1.
        -12    1    3    3    0    0  0.30162622323E+01  0.37299606407E+01  0.60916478593E+01  0.77536196629E+01  0.00000000000E+00 0.  1.
</event>
<event>
 7    1  0.2812635E-010  0.4778727E+02  0.7816164E-02  0.1312668E+00
        -11   -1    0    0    0    0  0.00000000000E+00  0.00000000000E+00  0.45593999997E+02  0.45594000000E+02  0.51100000000E-03 0.  1.
         11   -1    0    0    0    0 -0.00000000000E+00 -0.00000000000E+00 -0.45593999997E+02  0.45594000000E+02  0.51100000000E-03 0. -1.
    9900012    2    1    2    0    0 -0.18866994537E+02  0.39068242535E+02 -0.11543171622E+01  0.47787268373E+02  0.19999987819E+02 0.  0.
         12    1    1    2    0    0  0.18866994537E+02 -0.39068242535E+02  0.11543171622E+01  0.43400731627E+02  0.00000000000E+00 0. -1.
         11    1    3    3    0    0 -0.17096714337E+02  0.13936942513E+02 -0.37124195289E+01  0.22367790833E+02  0.51100000000E-03 0. -1.
        -11    1    3    3    0    0  0.21447340830E-01  0.15092902713E+02  0.16026687512E+01  0.15177770576E+02  0.51100000000E-03 0.  1.
         12    1    3    3    0    0 -0.17917275409E+01  0.10038397310E+02  0.95543361553E+00  0.10241706964E+02  0.00000000000E+00 0. -1.
</event>
<event>
 7    1  0.2812635E-010  0.4778727E+02  0.7816164E-02  0.1312668E+00
        -11   -1    0    0    0    0  0.00000000000E+00  0.00000000000E+00  0.45593999997E+02  0.45594000000E+02  0.51100000000E-03 0.  1.
         11   -1    0    0    0    0 -0.00000000000E+00 -0.00000000000E+00 -0.45593999997E+02  0.45594000000E+02  0.51100000000E-03 0. -1.
    9900012    2    1    2    0    0  0.39319099319E+02  0.17817349632E+02 -0.44915464583E+01  0.47787268339E+02  0.19999987663E+02 0.  0.
         12    1    1    2    0    0 -0.39319099319E+02 -0.17817349632E+02  0.44915464583E+01  0.43400731661E+02  0.00000000000E+00 0. -1.
         11    1    3    3    0    0  0.28708033178E+01 -0.14460148421E+01 -0.30890139465E+01  0.44580800841E+01  0.51100000000E-03 0. -1.
        -11    1    3    3    0    0  0.29863902702E+02  0.16751589253E+02  0.39657289748E+01  0.34470210816E+02  0.51100000000E-03 0.  1.
        -12    1    3    3    0    0  0.65843932991E+01  0.25117752206E+01 -0.53682614866E+01  0.88589774390E+01  0.00000000000E+00 0.  1.
</event>
<event>
 7    1  0.2812635E-010  0.4778727E+02  0.7816164E-02  0.1312668E+00
        -11   -1    0    0    0    0  0.00000000000E+00  0.00000000000E+00  0.45593999997E+02  0.45594000000E+02  0.51100000000E-03 0. -1.
         11   -1    0    0    0    0 -0.00000000000E+00 -0.00000000000E+00 -0.45593999997E+02  0.45594000000E+02  0.51100000000E-03 0.  1.
    9900012    2    1    2    0    0 -0.41649411132E+02  0.90782065938E+00 -0.12170697807E+02  0.47787268772E+02  0.19999989639E+02 0.  0.
         12    1    1    2    0    0  0.41649411132E+02 -0.90782065938E+00  0.12170697807E+02  0.43400731228E+02  0.00000000000E+00 0. -1.
         11    1    3    3    0    0 -0.11553394731E+02 -0.63709504966E+01  0.86332715188E+00  0.13221772728E+02  0.51100000000E-03 0. -1.
        -11    1    3    3    0    0 -0.18834639977E+01  0.86775504277E+00  0.11201686156E+01  0.23569500278E+01  0.51100000000E-03 0.  1.
         12    1    3    3    0    0 -0.28212552403E+02  0.64110161132E+01 -0.14154193574E+02  0.32208546016E+02  0.00000000000E+00 0. -1.
</event>
<event>
 7    1  0.2812635E-010  0.4778727E+02  0.7816164E-02  0.1312668E+00
        -11   -1    0    0    0    0  0.00000000000E+00  0.00000000000E+00  0.45593999997E+02  0.45594000000E+02  0.51100000000E-03 0.  1.
         11   -1    0    0    0    0 -0.00000000000E+00 -0.00000000000E+00 -0.45593999997E+02  0.45594000000E+02  0.51100000000E-03 0. -1.
    9900012    2    1    2    0    0  0.16907281697E+00  0.25955544365E+02  0.34783680421E+02  0.47787270830E+02  0.19999999021E+02 0.  0.
         12    1    1    2    0    0 -0.16907281697E+00 -0.25955544365E+02 -0.34783680421E+02  0.43400729170E+02  0.00000000000E+00 0. -1.
         11    1    3    3    0    0  0.36449346783E+01  0.25187234561E+02  0.25855751871E+02  0.36279501633E+02  0.51100000000E-03 0.  1.
        -11    1    3    3    0    0 -0.13451253058E+00 -0.25250188618E+01  0.37228686628E+01  0.45003961175E+01  0.51100000000E-03 0. -1.
         12    1    3    3    0    0 -0.33413493307E+01  0.32933286658E+01  0.52050598867E+01  0.70073730795E+01  0.00000000000E+00 0. -1.
</event>
<event>
 7    1  0.2812635E-010  0.4778727E+02  0.7816164E-02  0.1312668E+00
        -11   -1    0    0    0    0  0.00000000000E+00  0.00000000000E+00  0.45593999997E+02  0.45594000000E+02  0.51100000000E-03 0.  1.
         11   -1    0    0    0    0 -0.00000000000E+00 -0.00000000000E+00 -0.45593999997E+02  0.45594000000E+02  0.51100000000E-03 0. -1.
    9900012    2    1    2    0    0  0.78227176838E+01  0.20926277272E+02  0.37209126633E+02  0.47787273080E+02  0.20000009280E+02 0.  0.
         12    1    1    2    0    0 -0.78227176838E+01 -0.20926277272E+02 -0.37209126633E+02  0.43400726920E+02  0.00000000000E+00 0. -1.
         11    1    3    3    0    0 -0.79254021800E+00  0.88535806115E-02  0.89893416912E+00  0.11984495336E+01  0.51100000000E-03 0. -1.
        -11    1    3    3    0    0 -0.35507881549E+01 -0.12601199567E+01  0.62927439208E+01  0.73344819272E+01  0.51100000000E-03 0.  1.
        -12    1    3    3    0    0  0.12166046057E+02  0.22177543648E+02  0.30017448543E+02  0.39254341619E+02  0.00000000000E+00 0.  1.
</event>
<event>
 7    1  0.2812635E-010  0.4778727E+02  0.7816164E-02  0.1312668E+00
        -11   -1    0    0    0    0  0.00000000000E+00  0.00000000000E+00  0.45593999997E+02  0.45594000000E+02  0.51100000000E-03 0.  1.
         11   -1    0    0    0    0 -0.00000000000E+00 -0.00000000000E+00 -0.45593999997E+02  0.45594000000E+02  0.51100000000E-03 0. -1.
    9900012    2    1    2    0    0  0.33014427319E+02  0.66686718178E+01  0.27371514707E+02  0.47787269449E+02  0.19999992726E+02 0.  0.
         12    1    1    2    0    0 -0.33014427319E+02 -0.66686718178E+01 -0.27371514707E+02  0.43400730551E+02  0.00000000000E+00 0. -1.
         11    1    3    3    0    0 -0.14706930242E+01  0.11078354195E+01 -0.42062882179E+00  0.18886942990E+01  0.51100000000E-03 0. -1.
        -11    1    3    3    0    0  0.21408217949E+02  0.82432237437E+01  0.20045540992E+02  0.30464507995E+02  0.51100000000E-03 0.  1.
        -12    1    3    3    0    0  0.13076902394E+02 -0.26823873455E+01  0.77466025367E+01  0.15434067155E+02  0.00000000000E+00 0.  1.
</event>
<event>
 7    1  0.2812635E-010  0.4778727E+02  0.7816164E-02  0.1312668E+00
        -11   -1    0    0    0    0  0.00000000000E+00  0.00000000000E+00  0.45593999997E+02  0.45594000000E+02  0.51100000000E-03 0.  1.
         11   -1    0    0    0    0 -0.00000000000E+00 -0.00000000000E+00 -0.45593999997E+02  0.45594000000E+02  0.51100000000E-03 0. -1.
    9900012    2    1    2    0    0 -0.29754488071E+02 -0.17004979955E+02  0.26629385623E+02  0.47787273251E+02  0.20000010063E+02 0.  0.
         12    1    1    2    0    0  0.29754488071E+02  0.17004979955E+02 -0.26629385623E+02  0.43400726749E+02  0.00000000000E+00 0. -1.
         11    1    3    3    0    0  0.24730318586E+01 -0.28511303013E+01  0.42884825177E+01  0.57127850593E+01  0.51100000000E-03 0. -1.
        -11    1    3    3    0    0 -0.29793655649E+02 -0.12312829481E+02  0.18499837708E+02  0.37168692232E+02  0.51100000000E-03 0.  1.
        -12    1    3    3    0    0 -0.24338642803E+01 -0.18410201723E+01  0.38410653977E+01  0.49057959598E+01  0.00000000000E+00 0.  1.
</event>
<event>
 7    1  0.2812635E-010  0.4778727E+02  0.7816164E-02  0.1312668E+00
        -11   -1    0    0    0    0  0.00000000000E+00  0.00000000000E+00  0.45593999997E+02  0.45594000000E+02  0.51100000000E-03 0.  1.
         11   -1    0    0    0    0 -0.00000000000E+00 -0.00000000000E+00 -0.45593999997E+02  0.45594000000E+02  0.51100000000E-03 0. -1.
    9900012    2    1    2    0    0  0.15087111213E+02 -0.14681195160E+02  0.37953455712E+02  0.47787271705E+02  0.20000003012E+02 0.  0.
         12    1    1    2    0    0 -0.15087111213E+02  0.14681195160E+02 -0.37953455712E+02  0.43400728295E+02  0.00000000000E+00 0. -1.
         11    1    3    3    0    0  0.11308600685E+02 -0.49878970930E+01  0.70948170690E+01  0.14251315601E+02  0.51100000000E-03 0. -1.
        -11    1    3    3    0    0 -0.16491338902E+01 -0.31011498905E+01  0.16156994161E+02  0.16534365237E+02  0.51100000000E-03 0.  1.
        -12    1    3    3    0    0  0.54276444180E+01 -0.65921481761E+01  0.14701644482E+02  0.17001590866E+02  0.00000000000E+00 0.  1.
</event>
<event>
 7    1  0.2812635E-010  0.4778728E+02  0.7816164E-02  0.1312668E+00
        -11   -1    0    0    0    0  0.00000000000E+00  0.00000000000E+00  0.45593999997E+02  0.45594000000E+02  0.51100000000E-03 0. -1.
         11   -1    0    0    0    0 -0.00000000000E+00 -0.00000000000E+00 -0.45593999997E+02  0.45594000000E+02  0.51100000000E-03 0.  1.
    9900012    2    1    2    0    0 -0.14614340848E+02  0.34559159168E+02  0.21810730160E+02  0.47787281217E+02  0.20000046380E+02 0.  0.
         12    1    1    2    0    0  0.14614340848E+02 -0.34559159168E+02 -0.21810730160E+02  0.43400718783E+02  0.00000000000E+00 0. -1.
         11    1    3    3    0    0  0.39958030740E+01  0.61026268747E+01  0.60088590346E+01  0.94506552226E+01  0.51100000000E-03 0. -1.
        -11    1    3    3    0    0 -0.89659059113E+01  0.15197015247E+02  0.38846903484E+01  0.18067306401E+02  0.51100000000E-03 0.  1.
        -12    1    3    3    0    0 -0.96442380103E+01  0.13259517046E+02  0.11917180777E+02  0.20269319593E+02  0.00000000000E+00 0.  1.
</event>
<event>
 7    1  0.2812635E-010  0.4778727E+02  0.7816164E-02  0.1312668E+00
        -11   -1    0    0    0    0  0.00000000000E+00  0.00000000000E+00  0.45593999997E+02  0.45594000000E+02  0.51100000000E-03 0. -1.
         11   -1    0    0    0    0 -0.00000000000E+00 -0.00000000000E+00 -0.45593999997E+02  0.45594000000E+02  0.51100000000E-03 0.  1.
    9900012    2    1    2    0    0 -0.24109271863E+02 -0.25489641134E+02 -0.25546916063E+02  0.47787265960E+02  0.19999976818E+02 0.  0.
         12    1    1    2    0    0  0.24109271863E+02  0.25489641134E+02  0.25546916063E+02  0.43400734040E+02  0.00000000000E+00 0. -1.
         11    1    3    3    0    0 -0.23592040119E+01 -0.40245955608E+01  0.28500094389E+01  0.54667876363E+01  0.51100000000E-03 0. -1.
        -11    1    3    3    0    0 -0.18800288830E+02 -0.21320110373E+02 -0.25670738020E+02  0.38301237019E+02  0.51100000000E-03 0.  1.
        -12    1    3    3    0    0 -0.29497790203E+01 -0.14493520014E+00 -0.27261874814E+01  0.40192413046E+01  0.00000000000E+00 0.  1.
</event>
<event>
 7    1  0.2812635E-010  0.4778727E+02  0.7816164E-02  0.1312668E+00
        -11   -1    0    0    0    0  0.00000000000E+00  0.00000000000E+00  0.45593999997E+02  0.45594000000E+02  0.51100000000E-03 0.  1.
         11   -1    0    0    0    0 -0.00000000000E+00 -0.00000000000E+00 -0.45593999997E+02  0.45594000000E+02  0.51100000000E-03 0. -1.
    9900012    2    1    2    0    0 -0.30110251199E+01  0.39079575405E+02  0.18637160093E+02  0.47787271637E+02  0.20000002701E+02 0.  0.
         12    1    1    2    0    0  0.30110251199E+01 -0.39079575405E+02 -0.18637160093E+02  0.43400728363E+02  0.00000000000E+00 0. -1.
         11    1    3    3    0    0  0.26265724193E+01  0.63140428293E+01 -0.11025723430E+01  0.69268813731E+01  0.51100000000E-03 0. -1.
        -11    1    3    3    0    0 -0.31021136280E+01  0.21757661304E+02  0.19774354592E+02  0.29564235728E+02  0.51100000000E-03 0.  1.
        -12    1    3    3    0    0 -0.25354839112E+01  0.11007871272E+02 -0.34622155771E-01  0.11296154536E+02  0.00000000000E+00 0.  1.
</event>
<event>
 7    1  0.2812635E-010  0.4778728E+02  0.7816164E-02  0.1312668E+00
        -11   -1    0    0    0    0  0.00000000000E+00  0.00000000000E+00  0.45593999997E+02  0.45594000000E+02  0.51100000000E-03 0. -1.
         11   -1    0    0    0    0 -0.00000000000E+00 -0.00000000000E+00 -0.45593999997E+02  0.45594000000E+02  0.51100000000E-03 0.  1.
    9900012    2    1    2    0    0  0.99348931707E+01  0.35037754023E+02 -0.23606696645E+02  0.47787280700E+02  0.20000044021E+02 0.  0.
         12    1    1    2    0    0 -0.99348931707E+01 -0.35037754023E+02  0.23606696645E+02  0.43400719300E+02  0.00000000000E+00 0. -1.
         11    1    3    3    0    0  0.28861439944E+01  0.10065774702E+01  0.15326127083E+01  0.34193460390E+01  0.51100000000E-03 0. -1.
        -11    1    3    3    0    0  0.39985228560E+01  0.33128065975E+02 -0.22669353590E+02  0.40340507343E+02  0.51100000000E-03 0.  1.
        -12    1    3    3    0    0  0.30502263203E+01  0.90311057810E+00 -0.24699557634E+01  0.40274273171E+01  0.00000000000E+00 0.  1.
</event>
<event>
 7    1  0.2812635E-010  0.4778727E+02  0.7816164E-02  0.1312668E+00
        -11   -1    0    0    0    0  0.00000000000E+00  0.00000000000E+00  0.45593999997E+02  0.45594000000E+02  0.51100000000E-03 0.  1.
         11   -1    0    0    0    0 -0.00000000000E+00 -0.00000000000E+00 -0.45593999997E+02  0.45594000000E+02  0.51100000000E-03 0. -1.
    9900012    2    1    2    0    0 -0.33363188280E+02  0.25109886447E+02  0.11832770500E+02  0.47787272042E+02  0.20000004548E+02 0.  0.
         12    1    1    2    0    0  0.33363188280E+02 -0.25109886447E+02 -0.11832770500E+02  0.43400727958E+02  0.00000000000E+00 0. -1.
         11    1    3    3    0    0 -0.14393820998E+01 -0.22433943895E+01  0.42436178460E+01  0.50112804651E+01  0.51100000000E-03 0. -1.
        -11    1    3    3    0    0 -0.17667562943E+01  0.98005572951E+00  0.12533119377E+00  0.20242641146E+01  0.51100000000E-03 0.  1.
         12    1    3    3    0    0 -0.30157049886E+02  0.26373225107E+02  0.74638214605E+01  0.40751727462E+02  0.00000000000E+00 0. -1.
</event>
<event>
 7    1  0.2812635E-010  0.4778727E+02  0.7816164E-02  0.1312668E+00
        -11   -1    0    0    0    0  0.00000000000E+00  0.00000000000E+00  0.45593999997E+02  0.45594000000E+02  0.51100000000E-03 0. -1.
         11   -1    0    0    0    0 -0.00000000000E+00 -0.00000000000E+00 -0.45593999997E+02  0.45594000000E+02  0.51100000000E-03 0.  1.
    9900012    2    1    2    0    0  0.39431861980E+01  0.16905775886E+02 -0.39777754536E+02  0.47787265771E+02  0.19999975955E+02 0.  0.
         12    1    1    2    0    0 -0.39431861980E+01 -0.16905775886E+02  0.39777754536E+02  0.43400734229E+02  0.00000000000E+00 0. -1.
         11    1    3    3    0    0 -0.41468176438E+01  0.35045357334E+01 -0.24024433836E+02  0.24630292095E+02  0.51100000000E-03 0. -1.
        -11    1    3    3    0    0  0.24996535846E+01  0.98599433145E+01 -0.11168128504E+02  0.15106086348E+02  0.51100000000E-03 0.  1.
         12    1    3    3    0    0  0.55903502571E+01  0.35412968377E+01 -0.45851921964E+01  0.80508873280E+01  0.00000000000E+00 0. -1.
</event>
<event>
 7    1  0.2812635E-010  0.4778727E+02  0.7816164E-02  0.1312668E+00
        -11   -1    0    0    0    0  0.00000000000E+00  0.00000000000E+00  0.45593999997E+02  0.45594000000E+02  0.51100000000E-03 0.  1.
         11   -1    0    0    0    0 -0.00000000000E+00 -0.00000000000E+00 -0.45593999997E+02  0.45594000000E+02  0.51100000000E-03 0. -1.
    9900012    2    1    2    0    0  0.37163431888E+02  0.87261889290E+01  0.20648391247E+02  0.47787273002E+02  0.20000008924E+02 0.  0.
         12    1    1    2    0    0 -0.37163431888E+02 -0.87261889290E+01 -0.20648391247E+02  0.43400726998E+02  0.00000000000E+00 0. -1.
         11    1    3    3    0    0  0.20314563369E+02 -0.20366499242E+01  0.61620303618E+01  0.21326041504E+02  0.51100000000E-03 0. -1.
        -11    1    3    3    0    0  0.80719791142E+01 -0.11141907433E+00  0.65106564495E+01  0.10371012906E+02  0.51100000000E-03 0.  1.
         12    1    3    3    0    0  0.87768894044E+01  0.10874257928E+02  0.79757044356E+01  0.16090218592E+02  0.00000000000E+00 0. -1.
</event>
<event>
 7    1  0.2812635E-010  0.4778727E+02  0.7816164E-02  0.1312668E+00
        -11   -1    0    0    0    0  0.00000000000E+00  0.00000000000E+00  0.45593999997E+02  0.45594000000E+02  0.51100000000E-03 0.  1.
         11   -1    0    0    0    0 -0.00000000000E+00 -0.00000000000E+00 -0.45593999997E+02  0.45594000000E+02  0.51100000000E-03 0. -1.
    9900012    2    1    2    0    0 -0.41458166193E+02  0.85354061137E+01  0.95911572198E+01  0.47787274218E+02  0.20000014468E+02 0.  0.
         12    1    1    2    0    0  0.41458166193E+02 -0.85354061137E+01 -0.95911572198E+01  0.43400725782E+02  0.00000000000E+00 0. -1.
         11    1    3    3    0    0 -0.34669788699E+02 -0.44717469058E+00  0.38421300124E+01  0.34884898982E+02  0.51100000000E-03 0. -1.
        -11    1    3    3    0    0 -0.23052196644E+01  0.37885591016E+01  0.36013147383E+01  0.57128526913E+01  0.51100000000E-03 0.  1.
         12    1    3    3    0    0 -0.44831578295E+01  0.51940217027E+01  0.21477124692E+01  0.71895225448E+01  0.00000000000E+00 0. -1.
</event>
<event>
 7    1  0.2812635E-010  0.4778727E+02  0.7816164E-02  0.1312668E+00
        -11   -1    0    0    0    0  0.00000000000E+00  0.00000000000E+00  0.45593999997E+02  0.45594000000E+02  0.51100000000E-03 0. -1.
         11   -1    0    0    0    0 -0.00000000000E+00 -0.00000000000E+00 -0.45593999997E+02  0.45594000000E+02  0.51100000000E-03 0.  1.
    9900012    2    1    2    0    0  0.30996070594E+02 -0.16311326562E+02 -0.25628257797E+02  0.47787270004E+02  0.19999995256E+02 0.  0.
         12    1    1    2    0    0 -0.30996070594E+02  0.16311326562E+02  0.25628257797E+02  0.43400729996E+02  0.00000000000E+00 0. -1.
         11    1    3    3    0    0  0.25781937830E+02 -0.15756285835E+02 -0.27481673740E+02  0.40843741912E+02  0.51100000000E-03 0. -1.
        -11    1    3    3    0    0  0.26397044187E+01 -0.57140047544E+00 -0.11950369722E+01  0.29534135415E+01  0.51100000000E-03 0.  1.
         12    1    3    3    0    0  0.25744283455E+01  0.16359748133E-01  0.30484529153E+01  0.39901145503E+01  0.00000000000E+00 0. -1.
</event>
<event>
 7    1  0.2812635E-010  0.4778727E+02  0.7816164E-02  0.1312668E+00
        -11   -1    0    0    0    0  0.00000000000E+00  0.00000000000E+00  0.45593999997E+02  0.45594000000E+02  0.51100000000E-03 0. -1.
         11   -1    0    0    0    0 -0.00000000000E+00 -0.00000000000E+00 -0.45593999997E+02  0.45594000000E+02  0.51100000000E-03 0.  1.
    9900012    2    1    2    0    0  0.13989361112E+02 -0.27444671055E+02 -0.30573043171E+02  0.47787272329E+02  0.20000005858E+02 0.  0.
         12    1    1    2    0    0 -0.13989361112E+02  0.27444671055E+02  0.30573043171E+02  0.43400727671E+02  0.00000000000E+00 0. -1.
         11    1    3    3    0    0  0.16147945759E+01  0.14830052746E+01 -0.90463794823E+00  0.23717580495E+01  0.51100000000E-03 0. -1.
        -11    1    3    3    0    0  0.72875839686E+01 -0.24408398869E+02 -0.15820442890E+02  0.29986083921E+02  0.51100000000E-03 0.  1.
        -12    1    3    3    0    0  0.50869825677E+01 -0.45192774603E+01 -0.13847962333E+02  0.15429430359E+02  0.00000000000E+00 0.  1.
</event>
<event>
 7    1  0.2812635E-010  0.4778727E+02  0.7816164E-02  0.1312668E+00
        -11   -1    0    0    0    0  0.00000000000E+00  0.00000000000E+00  0.45593999997E+02  0.45594000000E+02  0.51100000000E-03 0.  1.
         11   -1    0    0    0    0 -0.00000000000E+00 -0.00000000000E+00 -0.45593999997E+02  0.45594000000E+02  0.51100000000E-03 0. -1.
    9900012    2    1    2    0    0 -0.12626253615E+02 -0.25054637457E+02  0.33112928079E+02  0.47787272535E+02  0.20000006797E+02 0.  0.
         12    1    1    2    0    0  0.12626253615E+02  0.25054637457E+02 -0.33112928079E+02  0.43400727465E+02  0.00000000000E+00 0. -1.
         11    1    3    3    0    0 -0.54586034342E+01 -0.12793199117E+02  0.58599948730E+01  0.15093105554E+02  0.51100000000E-03 0.  1.
        -11    1    3    3    0    0 -0.36403629911E+01  0.10422807345E+01  0.95292435841E+01  0.10254027276E+02  0.51100000000E-03 0. -1.
        -12    1    3    3    0    0 -0.35272871901E+01 -0.13303719075E+02  0.17723689622E+02  0.22440139705E+02  0.00000000000E+00 0.  1.
</event>
<event>
 7    1  0.2812635E-010  0.4778729E+02  0.7816164E-02  0.1312668E+00
        -11   -1    0    0    0    0  0.00000000000E+00  0.00000000000E+00  0.45593999997E+02  0.45594000000E+02  0.51100000000E-03 0. -1.
         11   -1    0    0    0    0 -0.00000000000E+00 -0.00000000000E+00 -0.45593999997E+02  0.45594000000E+02  0.51100000000E-03 0.  1.
    9900012    2    1    2    0    0 -0.42213087466E+02 -0.37134448223E+01 -0.93748201821E+01  0.47787289415E+02  0.20000083759E+02 0.  0.
         12    1    1    2    0    0  0.42213087466E+02  0.37134448223E+01  0.93748201821E+01  0.43400710585E+02  0.00000000000E+00 0. -1.
         11    1    3    3    0    0 -0.34600028474E+01 -0.41002675299E+01 -0.36759929050E+01  0.65035942078E+01  0.51100000000E-03 0. -1.
        -11    1    3    3    0    0 -0.36486729288E+02  0.18933039798E+01 -0.18665572098E+01  0.36583466896E+02  0.51100000000E-03 0.  1.
        -12    1    3    3    0    0 -0.22663553306E+01 -0.15064812722E+01 -0.38322700673E+01  0.47002283111E+01  0.00000000000E+00 0.  1.
</event>
<event>
 7    1  0.2812635E-010  0.4778727E+02  0.7816164E-02  0.1312668E+00
        -11   -1    0    0    0    0  0.00000000000E+00  0.00000000000E+00  0.45593999997E+02  0.45594000000E+02  0.51100000000E-03 0. -1.
         11   -1    0    0    0    0 -0.00000000000E+00 -0.00000000000E+00 -0.45593999997E+02  0.45594000000E+02  0.51100000000E-03 0.  1.
    9900012    2    1    2    0    0 -0.17105257511E+02 -0.21911099676E+01 -0.39827531969E+02  0.47787273046E+02  0.20000009125E+02 0.  0.
         12    1    1    2    0    0  0.17105257511E+02  0.21911099676E+01  0.39827531969E+02  0.43400726954E+02  0.00000000000E+00 0. -1.
         11    1    3    3    0    0 -0.11911666580E+02  0.49275299831E+01 -0.10767658161E+02  0.16796154767E+02  0.51100000000E-03 0. -1.
        -11    1    3    3    0    0  0.73806434334E+00  0.64751308525E+00 -0.22145748190E+01  0.24224685881E+01  0.51100000000E-03 0.  1.
         12    1    3    3    0    0 -0.59316552739E+01 -0.77661530359E+01 -0.26845298990E+02  0.28568649690E+02  0.00000000000E+00 0. -1.
</event>
<event>
 7    1  0.2812635E-010  0.4778727E+02  0.7816164E-02  0.1312668E+00
        -11   -1    0    0    0    0  0.00000000000E+00  0.00000000000E+00  0.45593999997E+02  0.45594000000E+02  0.51100000000E-03 0.  1.
         11   -1    0    0    0    0 -0.00000000000E+00 -0.00000000000E+00 -0.45593999997E+02  0.45594000000E+02  0.51100000000E-03 0. -1.
    9900012    2    1    2    0    0  0.31572887849E+02  0.86793931650E+01  0.28485861609E+02  0.47787269310E+02  0.19999992093E+02 0.  0.
         12    1    1    2    0    0 -0.31572887849E+02 -0.86793931650E+01 -0.28485861609E+02  0.43400730690E+02  0.00000000000E+00 0. -1.
         11    1    3    3    0    0  0.16675067072E+02  0.87479232392E+01  0.45273772083E+01  0.19367012353E+02  0.51100000000E-03 0. -1.
        -11    1    3    3    0    0  0.95478279893E+01 -0.12025895152E+01  0.13014790888E+02  0.16186167643E+02  0.51100000000E-03 0.  1.
         12    1    3    3    0    0  0.53499927878E+01  0.11340594410E+01  0.10943693512E+02  0.12234089313E+02  0.00000000000E+00 0. -1.
</event>
<event>
 7    1  0.2812635E-010  0.4778729E+02  0.7816164E-02  0.1312668E+00
        -11   -1    0    0    0    0  0.00000000000E+00  0.00000000000E+00  0.45593999997E+02  0.45594000000E+02  0.51100000000E-03 0.  1.
         11   -1    0    0    0    0 -0.00000000000E+00 -0.00000000000E+00 -0.45593999997E+02  0.45594000000E+02  0.51100000000E-03 0. -1.
    9900012    2    1    2    0    0 -0.36794792412E+02  0.72007567715E+01  0.21861245371E+02  0.47787289223E+02  0.20000082883E+02 0.  0.
         12    1    1    2    0    0  0.36794792412E+02 -0.72007567715E+01 -0.21861245371E+02  0.43400710777E+02  0.00000000000E+00 0. -1.
         11    1    3    3    0    0  0.14471619630E+01  0.22994511504E+01  0.35761181225E+01  0.44911439999E+01  0.51100000000E-03 0. -1.
        -11    1    3    3    0    0 -0.38396342445E+02  0.48987198625E+01  0.18600656828E+02  0.42944860043E+02  0.51100000000E-03 0.  1.
        -12    1    3    3    0    0  0.15438806944E+00  0.25857586212E-02 -0.31552957930E+00  0.35128517980E+00  0.00000000000E+00 0.  1.
</event>
<event>
 7    1  0.2812635E-010  0.4778727E+02  0.7816164E-02  0.1312668E+00
        -11   -1    0    0    0    0  0.00000000000E+00  0.00000000000E+00  0.45593999997E+02  0.45594000000E+02  0.51100000000E-03 0.  1.
         11   -1    0    0    0    0 -0.00000000000E+00 -0.00000000000E+00 -0.45593999997E+02  0.45594000000E+02  0.51100000000E-03 0. -1.
    9900012    2    1    2    0    0  0.42190343853E+02  0.71043061252E+01  0.72888246629E+01  0.47787271378E+02  0.20000001522E+02 0.  0.
         12    1    1    2    0    0 -0.42190343853E+02 -0.71043061252E+01 -0.72888246629E+01  0.43400728622E+02  0.00000000000E+00 0. -1.
         11    1    3    3    0    0  0.17037609503E+02 -0.63697998392E+01  0.18116922614E+00  0.18190308137E+02  0.51100000000E-03 0. -1.
        -11    1    3    3    0    0  0.42974969264E+01  0.13805619536E+01  0.19722202742E+00  0.45181111019E+01  0.51100000000E-03 0.  1.
         12    1    3    3    0    0  0.20855237423E+02  0.12093544011E+02  0.69104334093E+01  0.25078852139E+02  0.00000000000E+00 0. -1.
</event>
<event>
 7    1  0.2812635E-010  0.4778727E+02  0.7816164E-02  0.1312668E+00
        -11   -1    0    0    0    0  0.00000000000E+00  0.00000000000E+00  0.45593999997E+02  0.45594000000E+02  0.51100000000E-03 0.  1.
         11   -1    0    0    0    0 -0.00000000000E+00 -0.00000000000E+00 -0.45593999997E+02  0.45594000000E+02  0.51100000000E-03 0. -1.
    9900012    2    1    2    0    0 -0.12087032211E+02  0.21009294637E+02  0.36001897279E+02  0.47787269401E+02  0.19999992507E+02 0.  0.
         12    1    1    2    0    0  0.12087032211E+02 -0.21009294637E+02 -0.36001897279E+02  0.43400730599E+02  0.00000000000E+00 0. -1.
         11    1    3    3    0    0 -0.65498742207E+01  0.12059762543E+02  0.92004600085E+01  0.16522323975E+02  0.51100000000E-03 0. -1.
        -11    1    3    3    0    0 -0.75113353141E+01  0.86865027284E+01  0.26922773994E+02  0.29269630125E+02  0.51100000000E-03 0.  1.
        -12    1    3    3    0    0  0.19741773236E+01  0.26302936541E+00 -0.12133672311E+00  0.19953153015E+01  0.00000000000E+00 0.  1.
</event>
<event>
 7    1  0.2812635E-010  0.4778727E+02  0.7816164E-02  0.1312668E+00
        -11   -1    0    0    0    0  0.00000000000E+00  0.00000000000E+00  0.45593999997E+02  0.45594000000E+02  0.51100000000E-03 0.  1.
         11   -1    0    0    0    0 -0.00000000000E+00 -0.00000000000E+00 -0.45593999997E+02  0.45594000000E+02  0.51100000000E-03 0. -1.
    9900012    2    1    2    0    0 -0.13368295467E+02  0.38248808501E+02  0.15554439310E+02  0.47787271231E+02  0.20000000851E+02 0.  0.
         12    1    1    2    0    0  0.13368295467E+02 -0.38248808501E+02 -0.15554439310E+02  0.43400728769E+02  0.00000000000E+00 0. -1.
         11    1    3    3    0    0 -0.10717297235E+01  0.16330772844E+02 -0.11309258462E+01  0.16404930350E+02  0.51100000000E-03 0. -1.
        -11    1    3    3    0    0 -0.68634685687E+01  0.17667930667E+02  0.15271546551E+02  0.24340975929E+02  0.51100000000E-03 0.  1.
        -12    1    3    3    0    0 -0.54330971745E+01  0.42501049898E+01  0.14138186059E+01  0.70413649517E+01  0.00000000000E+00 0.  1.
</event>
<event>
 7    1  0.2812635E-010  0.4778727E+02  0.7816164E-02  0.1312668E+00
        -11   -1    0    0    0    0  0.00000000000E+00  0.00000000000E+00  0.45593999997E+02  0.45594000000E+02  0.51100000000E-03 0. -1.
         11   -1    0    0    0    0 -0.00000000000E+00 -0.00000000000E+00 -0.45593999997E+02  0.45594000000E+02  0.51100000000E-03 0.  1.
    9900012    2    1    2    0    0 -0.12678804835E+02 -0.41504755751E+02 -0.47578876809E+00  0.47787271700E+02  0.20000002990E+02 0.  0.
         12    1    1    2    0    0  0.12678804835E+02  0.41504755751E+02  0.47578876809E+00  0.43400728300E+02  0.00000000000E+00 0. -1.
         11    1    3    3    0    0 -0.15667394421E+02 -0.25597855296E+02 -0.63108465523E+00  0.30018589437E+02  0.51100000000E-03 0. -1.
        -11    1    3    3    0    0  0.21178507302E+01 -0.16318557785E+02 -0.71450001202E+00  0.16470917717E+02  0.51100000000E-03 0.  1.
         12    1    3    3    0    0  0.87073885528E+00  0.41165733041E+00  0.86979589916E+00  0.12977645464E+01  0.00000000000E+00 0. -1.
</event>
<event>
 7    1  0.2812635E-010  0.4778727E+02  0.7816164E-02  0.1312668E+00
        -11   -1    0    0    0    0  0.00000000000E+00  0.00000000000E+00  0.45593999997E+02  0.45594000000E+02  0.51100000000E-03 0.  1.
         11   -1    0    0    0    0 -0.00000000000E+00 -0.00000000000E+00 -0.45593999997E+02  0.45594000000E+02  0.51100000000E-03 0. -1.
    9900012    2    1    2    0    0  0.38862748380E+02  0.87312479655E+01  0.17235876093E+02  0.47787270428E+02  0.19999997189E+02 0.  0.
         12    1    1    2    0    0 -0.38862748380E+02 -0.87312479655E+01 -0.17235876093E+02  0.43400729572E+02  0.00000000000E+00 0. -1.
         11    1    3    3    0    0  0.35216468144E+01  0.56006002992E+01 -0.20981428689E+01  0.69405276281E+01  0.51100000000E-03 0. -1.
        -11    1    3    3    0    0  0.27985339289E+02  0.24159091000E+01  0.12371402721E+02  0.30693117102E+02  0.51100000000E-03 0.  1.
         12    1    3    3    0    0  0.73557622769E+01  0.71473856628E+00  0.69626162410E+01  0.10153625698E+02  0.00000000000E+00 0. -1.
</event>
<event>
 7    1  0.2812635E-010  0.4778727E+02  0.7816164E-02  0.1312668E+00
        -11   -1    0    0    0    0  0.00000000000E+00  0.00000000000E+00  0.45593999997E+02  0.45594000000E+02  0.51100000000E-03 0.  1.
         11   -1    0    0    0    0 -0.00000000000E+00 -0.00000000000E+00 -0.45593999997E+02  0.45594000000E+02  0.51100000000E-03 0. -1.
    9900012    2    1    2    0    0 -0.87536938331E+01 -0.20981857019E+02  0.36969691144E+02  0.47787267944E+02  0.19999985865E+02 0.  0.
         12    1    1    2    0    0  0.87536938331E+01  0.20981857019E+02 -0.36969691144E+02  0.43400732056E+02  0.00000000000E+00 0. -1.
         11    1    3    3    0    0 -0.41381865340E+01 -0.22037993056E+02  0.20507543473E+02  0.30386790967E+02  0.51100000000E-03 0. -1.
        -11    1    3    3    0    0 -0.24846526255E+01 -0.89929183507E+00  0.95220867306E+01  0.98819208882E+01  0.51100000000E-03 0.  1.
         12    1    3    3    0    0 -0.21308546736E+01  0.19554278721E+01  0.69400609407E+01  0.75185560891E+01  0.00000000000E+00 0. -1.
</event>
<event>
 7    1  0.2812635E-010  0.4778728E+02  0.7816164E-02  0.1312668E+00
        -11   -1    0    0    0    0  0.00000000000E+00  0.00000000000E+00  0.45593999997E+02  0.45594000000E+02  0.51100000000E-03 0.  1.
         11   -1    0    0    0    0 -0.00000000000E+00 -0.00000000000E+00 -0.45593999997E+02  0.45594000000E+02  0.51100000000E-03 0. -1.
    9900012    2    1    2    0    0 -0.32670688620E+01  0.18479825717E+02  0.39133680218E+02  0.47787278521E+02  0.20000034089E+02 0.  0.
         12    1    1    2    0    0  0.32670688620E+01 -0.18479825717E+02 -0.39133680218E+02  0.43400721479E+02  0.00000000000E+00 0. -1.
         11    1    3    3    0    0 -0.22730393314E+01  0.25921914358E+01 -0.67585496911E+00  0.35132526869E+01  0.51100000000E-03 0. -1.
        -11    1    3    3    0    0 -0.42689322114E+01  0.12776343618E+02  0.35738934211E+02  0.38193326082E+02  0.51100000000E-03 0.  1.
        -12    1    3    3    0    0  0.32749026808E+01  0.31112906628E+01  0.40706009768E+01  0.60806997516E+01  0.00000000000E+00 0.  1.
</event>
<event>
 7    1  0.2812635E-010  0.4778727E+02  0.7816164E-02  0.1312668E+00
        -11   -1    0    0    0    0  0.00000000000E+00  0.00000000000E+00  0.45593999997E+02  0.45594000000E+02  0.51100000000E-03 0.  1.
         11   -1    0    0    0    0 -0.00000000000E+00 -0.00000000000E+00 -0.45593999997E+02  0.45594000000E+02  0.51100000000E-03 0. -1.
    9900012    2    1    2    0    0 -0.45253231674E+01 -0.18731748988E+01  0.43123496495E+02  0.47787270929E+02  0.19999999472E+02 0.  0.
         12    1    1    2    0    0  0.45253231674E+01  0.18731748988E+01 -0.43123496495E+02  0.43400729071E+02  0.00000000000E+00 0. -1.
         11    1    3    3    0    0 -0.39234152238E+01 -0.95822923272E+01  0.21245514060E+02  0.23634410955E+02  0.51100000000E-03 0. -1.
        -11    1    3    3    0    0  0.12414601187E+01  0.27300884771E+01  0.15801681767E+02  0.16083772979E+02  0.51100000000E-03 0.  1.
         12    1    3    3    0    0 -0.18433680623E+01  0.49790289513E+01  0.60763006683E+01  0.80690869944E+01  0.00000000000E+00 0. -1.
</event>
<event>
 7    1  0.2812635E-010  0.4778723E+02  0.7816164E-02  0.1312668E+00
        -11   -1    0    0    0    0  0.00000000000E+00  0.00000000000E+00  0.45593999997E+02  0.45594000000E+02  0.51100000000E-03 0.  1.
         11   -1    0    0    0    0 -0.00000000000E+00 -0.00000000000E+00 -0.45593999997E+02  0.45594000000E+02  0.51100000000E-03 0. -1.
    9900012    2    1    2    0    0  0.34539767253E+02 -0.56071120684E+01  0.25674729588E+02  0.47787228497E+02  0.19999806008E+02 0.  0.
         12    1    1    2    0    0 -0.34539767253E+02  0.56071120684E+01 -0.25674729588E+02  0.43400771503E+02  0.00000000000E+00 0. -1.
         11    1    3    3    0    0  0.33005449339E+01 -0.48926205809E+01  0.11838453280E+02  0.13228012297E+02  0.51100000000E-03 0. -1.
        -11    1    3    3    0    0  0.24403963542E+02  0.10616987604E+01  0.91548622023E+01  0.26086244326E+02  0.51100000000E-03 0.  1.
        -12    1    3    3    0    0  0.68352587775E+01 -0.17761902479E+01  0.46814141052E+01  0.84729718739E+01  0.00000000000E+00 0.  1.
</event>
<event>
 7    1  0.2812635E-010  0.4778727E+02  0.7816164E-02  0.1312668E+00
        -11   -1    0    0    0    0  0.00000000000E+00  0.00000000000E+00  0.45593999997E+02  0.45594000000E+02  0.51100000000E-03 0. -1.
         11   -1    0    0    0    0 -0.00000000000E+00 -0.00000000000E+00 -0.45593999997E+02  0.45594000000E+02  0.51100000000E-03 0.  1.
    9900012    2    1    2    0    0  0.39257279910E+02 -0.95595641077E+01 -0.15846257893E+02  0.47787272113E+02  0.20000004872E+02 0.  0.
         12    1    1    2    0    0 -0.39257279910E+02  0.95595641077E+01  0.15846257893E+02  0.43400727887E+02  0.00000000000E+00 0. -1.
         11    1    3    3    0    0  0.11365737315E+02  0.15326625934E+01 -0.12508796676E+02  0.16970534284E+02  0.51100000000E-03 0.  1.
        -11    1    3    3    0    0  0.17035186926E+02 -0.40645323558E+01 -0.22417282191E+00  0.17514801472E+02  0.51100000000E-03 0. -1.
        -12    1    3    3    0    0  0.10856355669E+02 -0.70276943452E+01 -0.31132883958E+01  0.13301936357E+02  0.00000000000E+00 0.  1.
</event>
<event>
 7    1  0.2812635E-010  0.4778727E+02  0.7816164E-02  0.1312668E+00
        -11   -1    0    0    0    0  0.00000000000E+00  0.00000000000E+00  0.45593999997E+02  0.45594000000E+02  0.51100000000E-03 0.  1.
         11   -1    0    0    0    0 -0.00000000000E+00 -0.00000000000E+00 -0.45593999997E+02  0.45594000000E+02  0.51100000000E-03 0. -1.
    9900012    2    1    2    0    0 -0.29572811281E+02 -0.19993532911E+02  0.24684635180E+02  0.47787265683E+02  0.19999975554E+02 0.  0.
         12    1    1    2    0    0  0.29572811281E+02  0.19993532911E+02 -0.24684635180E+02  0.43400734317E+02  0.00000000000E+00 0. -1.
         11    1    3    3    0    0 -0.56720706415E+01 -0.13010817422E+02  0.34157437677E+01  0.14598666415E+02  0.51100000000E-03 0. -1.
        -11    1    3    3    0    0 -0.19611436523E+02 -0.71821204329E+01  0.19401054526E+02  0.28506003112E+02  0.51100000000E-03 0.  1.
         12    1    3    3    0    0 -0.42893041158E+01  0.19940494366E+00  0.18678368862E+01  0.46825961562E+01  0.00000000000E+00 0. -1.
</event>
<event>
 7    1  0.2812635E-010  0.4778727E+02  0.7816164E-02  0.1312668E+00
        -11   -1    0    0    0    0  0.00000000000E+00  0.00000000000E+00  0.45593999997E+02  0.45594000000E+02  0.51100000000E-03 0.  1.
         11   -1    0    0    0    0 -0.00000000000E+00 -0.00000000000E+00 -0.45593999997E+02  0.45594000000E+02  0.51100000000E-03 0. -1.
    9900012    2    1    2    0    0 -0.42328196581E+02  0.95619641557E+01  0.71824428161E+00  0.47787271214E+02  0.20000000771E+02 0.  0.
         12    1    1    2    0    0  0.42328196581E+02 -0.95619641557E+01 -0.71824428161E+00  0.43400728786E+02  0.00000000000E+00 0. -1.
         11    1    3    3    0    0 -0.12941674357E+02  0.55353819042E+01 -0.12361965912E+01  0.14129952946E+02  0.51100000000E-03 0. -1.
        -11    1    3    3    0    0 -0.22758281079E+02  0.64228228684E+01  0.73697753998E+01  0.24769045217E+02  0.51100000000E-03 0.  1.
        -12    1    3    3    0    0 -0.66282411453E+01 -0.23962406169E+01 -0.54153345270E+01  0.88882730501E+01  0.00000000000E+00 0.  1.
</event>
<event>
 7    1  0.2812635E-010  0.4778728E+02  0.7816164E-02  0.1312668E+00
        -11   -1    0    0    0    0  0.00000000000E+00  0.00000000000E+00  0.45593999997E+02  0.45594000000E+02  0.51100000000E-03 0.  1.
         11   -1    0    0    0    0 -0.00000000000E+00 -0.00000000000E+00 -0.45593999997E+02  0.45594000000E+02  0.51100000000E-03 0. -1.
    9900012    2    1    2    0    0  0.33356008459E+02 -0.29940115817E+00  0.27765264306E+02  0.47787276004E+02  0.20000022613E+02 0.  0.
         12    1    1    2    0    0 -0.33356008459E+02  0.29940115817E+00 -0.27765264306E+02  0.43400723996E+02  0.00000000000E+00 0. -1.
         11    1    3    3    0    0  0.38803137078E+00 -0.22557557972E+00  0.21020735045E+01  0.21494571329E+01  0.51100000000E-03 0. -1.
        -11    1    3    3    0    0  0.13309913175E+02 -0.73591593069E+01  0.17383189798E+02  0.23097322404E+02  0.51100000000E-03 0.  1.
        -12    1    3    3    0    0  0.19658063914E+02  0.72853337284E+01  0.82800010036E+01  0.22540496468E+02  0.00000000000E+00 0.  1.
</event>
<event>
 7    1  0.2812635E-010  0.4778727E+02  0.7816164E-02  0.1312668E+00
        -11   -1    0    0    0    0  0.00000000000E+00  0.00000000000E+00  0.45593999997E+02  0.45594000000E+02  0.51100000000E-03 0.  1.
         11   -1    0    0    0    0 -0.00000000000E+00 -0.00000000000E+00 -0.45593999997E+02  0.45594000000E+02  0.51100000000E-03 0. -1.
    9900012    2    1    2    0    0 -0.24748730902E+01 -0.41351096137E+02 -0.12945463557E+02  0.47787272180E+02  0.20000005179E+02 0.  0.
         12    1    1    2    0    0  0.24748730902E+01  0.41351096137E+02  0.12945463557E+02  0.43400727820E+02  0.00000000000E+00 0. -1.
         11    1    3    3    0    0 -0.75743178225E+00 -0.16407755245E+00  0.90404135919E+00  0.11907625239E+01  0.51100000000E-03 0. -1.
        -11    1    3    3    0    0 -0.44526033167E+01 -0.86120652758E+01 -0.95792248843E+01  0.13629192722E+02  0.51100000000E-03 0.  1.
        -12    1    3    3    0    0  0.27351620088E+01 -0.32574953309E+02 -0.42702800323E+01  0.32967316934E+02  0.00000000000E+00 0.  1.
</event>
<event>
 7    1  0.2812635E-010  0.4778727E+02  0.7816164E-02  0.1312668E+00
        -11   -1    0    0    0    0  0.00000000000E+00  0.00000000000E+00  0.45593999997E+02  0.45594000000E+02  0.51100000000E-03 0.  1.
         11   -1    0    0    0    0 -0.00000000000E+00 -0.00000000000E+00 -0.45593999997E+02  0.45594000000E+02  0.51100000000E-03 0. -1.
    9900012    2    1    2    0    0  0.17658804028E+02  0.35626664257E+02  0.17393410157E+02  0.47787270943E+02  0.19999999537E+02 0.  0.
         12    1    1    2    0    0 -0.17658804028E+02 -0.35626664257E+02 -0.17393410157E+02  0.43400729057E+02  0.00000000000E+00 0. -1.
         11    1    3    3    0    0  0.47500453625E+01  0.59267759053E+01 -0.42589591162E+01  0.87079467495E+01  0.51100000000E-03 0. -1.
        -11    1    3    3    0    0  0.58035137294E+01  0.16027202540E+02  0.12722993223E+02  0.21270320865E+02  0.51100000000E-03 0.  1.
         12    1    3    3    0    0  0.71052449356E+01  0.13672685812E+02  0.89293760509E+01  0.17809003329E+02  0.00000000000E+00 0. -1.
</event>
<event>
 7    1  0.2812635E-010  0.4778727E+02  0.7816164E-02  0.1312668E+00
        -11   -1    0    0    0    0  0.00000000000E+00  0.00000000000E+00  0.45593999997E+02  0.45594000000E+02  0.51100000000E-03 0.  1.
         11   -1    0    0    0    0 -0.00000000000E+00 -0.00000000000E+00 -0.45593999997E+02  0.45594000000E+02  0.51100000000E-03 0. -1.
    9900012    2    1    2    0    0  0.21798148138E+01 -0.33913395643E+02  0.26995429502E+02  0.47787271773E+02  0.20000003321E+02 0.  0.
         12    1    1    2    0    0 -0.21798148138E+01  0.33913395643E+02 -0.26995429502E+02  0.43400728227E+02  0.00000000000E+00 0. -1.
         11    1    3    3    0    0 -0.21352436250E+01 -0.65722754285E+00  0.79826433602E+01  0.82893792686E+01  0.51100000000E-03 0. -1.
        -11    1    3    3    0    0  0.33182382306E+01 -0.17146680910E+02  0.14604443641E+02  0.22766403878E+02  0.51100000000E-03 0.  1.
         12    1    3    3    0    0  0.99682020811E+00 -0.16109487190E+02  0.44083425004E+01  0.16731488627E+02  0.00000000000E+00 0. -1.
</event>
<event>
 7    1  0.2812635E-010  0.4778729E+02  0.7816164E-02  0.1312668E+00
        -11   -1    0    0    0    0  0.00000000000E+00  0.00000000000E+00  0.45593999997E+02  0.45594000000E+02  0.51100000000E-03 0.  1.
         11   -1    0    0    0    0 -0.00000000000E+00 -0.00000000000E+00 -0.45593999997E+02  0.45594000000E+02  0.51100000000E-03 0. -1.
    9900012    2    1    2    0    0  0.17834550200E+02  0.32106623496E+02  0.23123910310E+02  0.47787289393E+02  0.20000083658E+02 0.  0.
         12    1    1    2    0    0 -0.17834550200E+02 -0.32106623496E+02 -0.23123910310E+02  0.43400710607E+02  0.00000000000E+00 0. -1.
         11    1    3    3    0    0  0.48654504242E+01  0.83294949422E+00  0.94321713155E+01  0.10645762945E+02  0.51100000000E-03 0. -1.
        -11    1    3    3    0    0  0.10810981502E+02  0.26323358624E+02  0.14036146358E+02  0.31730268437E+02  0.51100000000E-03 0.  1.
         12    1    3    3    0    0  0.21581182738E+01  0.49503153782E+01 -0.34440736272E+00  0.54112580107E+01  0.00000000000E+00 0. -1.
</event>
<event>
 7    1  0.2812635E-010  0.4778728E+02  0.7816164E-02  0.1312668E+00
        -11   -1    0    0    0    0  0.00000000000E+00  0.00000000000E+00  0.45593999997E+02  0.45594000000E+02  0.51100000000E-03 0.  1.
         11   -1    0    0    0    0 -0.00000000000E+00 -0.00000000000E+00 -0.45593999997E+02  0.45594000000E+02  0.51100000000E-03 0. -1.
    9900012    2    1    2    0    0 -0.15551975653E+01 -0.35181954787E+02  0.25365990903E+02  0.47787284838E+02  0.20000062891E+02 0.  0.
         12    1    1    2    0    0  0.15551975653E+01  0.35181954787E+02 -0.25365990903E+02  0.43400715162E+02  0.00000000000E+00 0. -1.
         11    1    3    3    0    0  0.55531441829E+01 -0.23118280024E+02  0.17260339994E+02  0.29380463212E+02  0.51100000000E-03 0. -1.
        -11    1    3    3    0    0 -0.37419711193E+01 -0.82616078787E+01  0.95065683101E+01  0.13138925142E+02  0.51100000000E-03 0.  1.
         12    1    3    3    0    0 -0.33663706290E+01 -0.38020668840E+01 -0.14009174008E+01  0.52678964839E+01  0.00000000000E+00 0. -1.
</event>
<event>
 7    1  0.2812635E-010  0.4778727E+02  0.7816164E-02  0.1312668E+00
        -11   -1    0    0    0    0  0.00000000000E+00  0.00000000000E+00  0.45593999997E+02  0.45594000000E+02  0.51100000000E-03 0.  1.
         11   -1    0    0    0    0 -0.00000000000E+00 -0.00000000000E+00 -0.45593999997E+02  0.45594000000E+02  0.51100000000E-03 0. -1.
    9900012    2    1    2    0    0 -0.16886175333E+02  0.25806874083E+02  0.30536634173E+02  0.47787266205E+02  0.19999977935E+02 0.  0.
         12    1    1    2    0    0  0.16886175333E+02 -0.25806874083E+02 -0.30536634173E+02  0.43400733795E+02  0.00000000000E+00 0. -1.
         11    1    3    3    0    0 -0.10475046412E+02  0.29002541187E+01  0.71823296534E+01  0.13027813738E+02  0.51100000000E-03 0. -1.
        -11    1    3    3    0    0 -0.19525530453E+01  0.16196348180E+02  0.20529697273E+02  0.26222178173E+02  0.51100000000E-03 0.  1.
        -12    1    3    3    0    0 -0.44585758758E+01  0.67102717844E+01  0.28246072466E+01  0.85372742933E+01  0.00000000000E+00 0.  1.
</event>
<event>
 7    1  0.2812635E-010  0.4778727E+02  0.7816164E-02  0.1312668E+00
        -11   -1    0    0    0    0  0.00000000000E+00  0.00000000000E+00  0.45593999997E+02  0.45594000000E+02  0.51100000000E-03 0. -1.
         11   -1    0    0    0    0 -0.00000000000E+00 -0.00000000000E+00 -0.45593999997E+02  0.45594000000E+02  0.51100000000E-03 0.  1.
    9900012    2    1    2    0    0  0.25191107744E+02  0.32101587310E+02  0.14782403381E+02  0.47787271124E+02  0.20000000364E+02 0.  0.
         12    1    1    2    0    0 -0.25191107744E+02 -0.32101587310E+02 -0.14782403381E+02  0.43400728876E+02  0.00000000000E+00 0. -1.
         11    1    3    3    0    0  0.77376860005E+01  0.19316919683E+02  0.94476151183E+01  0.22853284279E+02  0.51100000000E-03 0. -1.
        -11    1    3    3    0    0  0.97427120671E+01  0.42847602093E+01 -0.26315685153E+01  0.10963793212E+02  0.51100000000E-03 0.  1.
        -12    1    3    3    0    0  0.77107096762E+01  0.84999074186E+01  0.79663567783E+01  0.13970193633E+02  0.00000000000E+00 0.  1.
</event>
<event>
 7    1  0.2812635E-010  0.4778727E+02  0.7816164E-02  0.1312668E+00
        -11   -1    0    0    0    0  0.00000000000E+00  0.00000000000E+00  0.45593999997E+02  0.45594000000E+02  0.51100000000E-03 0. -1.
         11   -1    0    0    0    0 -0.00000000000E+00 -0.00000000000E+00 -0.45593999997E+02  0.45594000000E+02  0.51100000000E-03 0.  1.
    9900012    2    1    2    0    0  0.91322710661E+01  0.10022481527E+02 -0.41228323848E+02  0.47787271918E+02  0.20000003981E+02 0.  0.
         12    1    1    2    0    0 -0.91322710661E+01 -0.10022481527E+02  0.41228323848E+02  0.43400728082E+02  0.00000000000E+00 0. -1.
         11    1    3    3    0    0  0.14179056871E+01 -0.17191720109E+01 -0.16284652389E+01  0.27600558393E+01  0.51100000000E-03 0. -1.
        -11    1    3    3    0    0  0.99743617420E+01  0.74276285640E+01 -0.13020285233E+02  0.18005148876E+02  0.51100000000E-03 0.  1.
        -12    1    3    3    0    0 -0.22599963630E+01  0.43140249736E+01 -0.26579573376E+02  0.27022067202E+02  0.00000000000E+00 0.  1.
</event>
<event>
 7    1  0.2812635E-010  0.4778727E+02  0.7816164E-02  0.1312668E+00
        -11   -1    0    0    0    0  0.00000000000E+00  0.00000000000E+00  0.45593999997E+02  0.45594000000E+02  0.51100000000E-03 0.  1.
         11   -1    0    0    0    0 -0.00000000000E+00 -0.00000000000E+00 -0.45593999997E+02  0.45594000000E+02  0.51100000000E-03 0. -1.
    9900012    2    1    2    0    0  0.18429750823E+02 -0.16324541790E+02  0.35741809646E+02  0.47787270319E+02  0.19999996693E+02 0.  0.
         12    1    1    2    0    0 -0.18429750823E+02  0.16324541790E+02 -0.35741809646E+02  0.43400729681E+02  0.00000000000E+00 0. -1.
         11    1    3    3    0    0  0.71504135657E+01 -0.14979844738E+01  0.21218652925E+02  0.22441114140E+02  0.51100000000E-03 0. -1.
        -11    1    3    3    0    0  0.34637429891E+01 -0.77270989615E+01  0.15321225251E+01  0.86054037411E+01  0.51100000000E-03 0.  1.
         12    1    3    3    0    0  0.78155942682E+01 -0.70994583545E+01  0.12991034196E+02  0.16740752438E+02  0.00000000000E+00 0. -1.
</event>
<event>
 7    1  0.2812635E-010  0.4778726E+02  0.7816164E-02  0.1312668E+00
        -11   -1    0    0    0    0  0.00000000000E+00  0.00000000000E+00  0.45593999997E+02  0.45594000000E+02  0.51100000000E-03 0. -1.
         11   -1    0    0    0    0 -0.00000000000E+00 -0.00000000000E+00 -0.45593999997E+02  0.45594000000E+02  0.51100000000E-03 0.  1.
    9900012    2    1    2    0    0  0.81004294386E+01 -0.50873101882E+00 -0.42635065300E+02  0.47787256257E+02  0.19999932577E+02 0.  0.
         12    1    1    2    0    0 -0.81004294386E+01  0.50873101882E+00  0.42635065300E+02  0.43400743743E+02  0.00000000000E+00 0. -1.
         11    1    3    3    0    0 -0.23278979320E+01  0.59980277422E+01 -0.14537720637E+02  0.15897822717E+02  0.51100000000E-03 0. -1.
        -11    1    3    3    0    0  0.60650339008E+01 -0.72413425994E+01 -0.24254723066E+02  0.26029085081E+02  0.51100000000E-03 0.  1.
         12    1    3    3    0    0  0.43632934698E+01  0.73458383833E+00 -0.38426215972E+01  0.58603484588E+01  0.00000000000E+00 0. -1.
</event>
<event>
 7    1  0.2812635E-010  0.4778726E+02  0.7816164E-02  0.1312668E+00
        -11   -1    0    0    0    0  0.00000000000E+00  0.00000000000E+00  0.45593999997E+02  0.45594000000E+02  0.51100000000E-03 0.  1.
         11   -1    0    0    0    0 -0.00000000000E+00 -0.00000000000E+00 -0.45593999997E+02  0.45594000000E+02  0.51100000000E-03 0. -1.
    9900012    2    1    2    0    0  0.22075094326E+02  0.12821256001E+02  0.35098856249E+02  0.47787261470E+02  0.19999956347E+02 0.  0.
         12    1    1    2    0    0 -0.22075094326E+02 -0.12821256001E+02 -0.35098856249E+02  0.43400738530E+02  0.00000000000E+00 0. -1.
         11    1    3    3    0    0  0.23592633881E+01  0.25813971456E+01  0.64195344619E+01  0.73102775546E+01  0.51100000000E-03 0.  1.
        -11    1    3    3    0    0 -0.22698751408E+01  0.52759903543E+01  0.37002656012E+01  0.68323036491E+01  0.51100000000E-03 0. -1.
        -12    1    3    3    0    0  0.21985706079E+02  0.49638685006E+01  0.24979056186E+02  0.33644680266E+02  0.00000000000E+00 0.  1.
</event>
<event>
 7    1  0.2812635E-010  0.4778728E+02  0.7816164E-02  0.1312668E+00
        -11   -1    0    0    0    0  0.00000000000E+00  0.00000000000E+00  0.45593999997E+02  0.45594000000E+02  0.51100000000E-03 0.  1.
         11   -1    0    0    0    0 -0.00000000000E+00 -0.00000000000E+00 -0.45593999997E+02  0.45594000000E+02  0.51100000000E-03 0. -1.
    9900012    2    1    2    0    0 -0.24271120216E+02  0.14614679091E+02  0.32877751980E+02  0.47787277693E+02  0.20000030314E+02 0.  0.
         12    1    1    2    0    0  0.24271120216E+02 -0.14614679091E+02 -0.32877751980E+02  0.43400722307E+02  0.00000000000E+00 0. -1.
         11    1    3    3    0    0 -0.28502166260E+01 -0.22044941609E+01  0.10627398185E+02  0.11221636323E+02  0.51100000000E-03 0. -1.
        -11    1    3    3    0    0 -0.17356371844E+02  0.90770940098E+01  0.11518636198E+02  0.22722593589E+02  0.51100000000E-03 0.  1.
         12    1    3    3    0    0 -0.40645317460E+01  0.77420792420E+01  0.10731717597E+02  0.13843047782E+02  0.00000000000E+00 0. -1.
</event>
<event>
 7    1  0.2812635E-010  0.4778727E+02  0.7816164E-02  0.1312668E+00
        -11   -1    0    0    0    0  0.00000000000E+00  0.00000000000E+00  0.45593999997E+02  0.45594000000E+02  0.51100000000E-03 0.  1.
         11   -1    0    0    0    0 -0.00000000000E+00 -0.00000000000E+00 -0.45593999997E+02  0.45594000000E+02  0.51100000000E-03 0. -1.
    9900012    2    1    2    0    0  0.19554421433E+01  0.19391917256E+01  0.43313268161E+02  0.47787269392E+02  0.19999992466E+02 0.  0.
         12    1    1    2    0    0 -0.19554421433E+01 -0.19391917256E+01 -0.43313268161E+02  0.43400730608E+02  0.00000000000E+00 0. -1.
         11    1    3    3    0    0  0.30967053979E+01 -0.66094613998E+00 -0.67672646364E+00  0.32379612550E+01  0.51100000000E-03 0. -1.
        -11    1    3    3    0    0 -0.27017057734E+01 -0.93112997424E+00  0.25562745158E+02  0.25721978100E+02  0.51100000000E-03 0.  1.
         12    1    3    3    0    0  0.15604425189E+01  0.35312678398E+01  0.18427249466E+02  0.18827330037E+02  0.00000000000E+00 0. -1.
</event>
<event>
 7    1  0.2812635E-010  0.4778727E+02  0.7816164E-02  0.1312668E+00
        -11   -1    0    0    0    0  0.00000000000E+00  0.00000000000E+00  0.45593999997E+02  0.45594000000E+02  0.51100000000E-03 0. -1.
         11   -1    0    0    0    0 -0.00000000000E+00 -0.00000000000E+00 -0.45593999997E+02  0.45594000000E+02  0.51100000000E-03 0.  1.
    9900012    2    1    2    0    0  0.36328233257E+02  0.12818443261E+02 -0.19989253875E+02  0.47787270862E+02  0.19999999167E+02 0.  0.
         12    1    1    2    0    0 -0.36328233257E+02 -0.12818443261E+02  0.19989253875E+02  0.43400729138E+02  0.00000000000E+00 0. -1.
         11    1    3    3    0    0  0.51097145722E+01 -0.11419196875E+01  0.67716742108E+00  0.52793673446E+01  0.51100000000E-03 0. -1.
        -11    1    3    3    0    0  0.24821987239E+02  0.66206573839E+01 -0.20339189471E+02  0.32766549761E+02  0.51100000000E-03 0.  1.
        -12    1    3    3    0    0  0.63965314465E+01  0.73397055650E+01 -0.32723182530E+00  0.97413537557E+01  0.00000000000E+00 0.  1.
</event>
<event>
 7    1  0.2812635E-010  0.4778727E+02  0.7816164E-02  0.1312668E+00
        -11   -1    0    0    0    0  0.00000000000E+00  0.00000000000E+00  0.45593999997E+02  0.45594000000E+02  0.51100000000E-03 0.  1.
         11   -1    0    0    0    0 -0.00000000000E+00 -0.00000000000E+00 -0.45593999997E+02  0.45594000000E+02  0.51100000000E-03 0. -1.
    9900012    2    1    2    0    0 -0.17330173646E+02  0.32603416477E+02  0.22810202221E+02  0.47787274085E+02  0.20000013864E+02 0.  0.
         12    1    1    2    0    0  0.17330173646E+02 -0.32603416477E+02 -0.22810202221E+02  0.43400725915E+02  0.00000000000E+00 0. -1.
         11    1    3    3    0    0 -0.34546240840E+01 -0.21160796117E+01  0.26957957516E+01  0.48661622949E+01  0.51100000000E-03 0. -1.
        -11    1    3    3    0    0 -0.13054574692E+02  0.25504500447E+02  0.15688660417E+02  0.32665509783E+02  0.51100000000E-03 0.  1.
        -12    1    3    3    0    0 -0.82097486971E+00  0.92149956417E+01  0.44257460523E+01  0.10255602007E+02  0.00000000000E+00 0.  1.
</event>
<event>
 7    1  0.2812635E-010  0.4778727E+02  0.7816164E-02  0.1312668E+00
        -11   -1    0    0    0    0  0.00000000000E+00  0.00000000000E+00  0.45593999997E+02  0.45594000000E+02  0.51100000000E-03 0.  1.
         11   -1    0    0    0    0 -0.00000000000E+00 -0.00000000000E+00 -0.45593999997E+02  0.45594000000E+02  0.51100000000E-03 0. -1.
    9900012    2    1    2    0    0  0.14978732567E+02 -0.38912216409E+02 -0.12045761079E+02  0.47787269878E+02  0.19999994680E+02 0.  0.
         12    1    1    2    0    0 -0.14978732567E+02  0.38912216409E+02  0.12045761079E+02  0.43400730122E+02  0.00000000000E+00 0. -1.
         11    1    3    3    0    0  0.42097655895E+01 -0.84311858565E+01  0.97579566162E+00  0.94741331371E+01  0.51100000000E-03 0. -1.
        -11    1    3    3    0    0  0.21720055209E+01 -0.16709204815E+02  0.97473694826E+00  0.16877951473E+02  0.51100000000E-03 0.  1.
         12    1    3    3    0    0  0.85969614568E+01 -0.13771825738E+02 -0.13996293689E+02  0.21435185268E+02  0.00000000000E+00 0. -1.
</event>
<event>
 7    1  0.2812635E-010  0.4778727E+02  0.7816164E-02  0.1312668E+00
        -11   -1    0    0    0    0  0.00000000000E+00  0.00000000000E+00  0.45593999997E+02  0.45594000000E+02  0.51100000000E-03 0. -1.
         11   -1    0    0    0    0 -0.00000000000E+00 -0.00000000000E+00 -0.45593999997E+02  0.45594000000E+02  0.51100000000E-03 0.  1.
    9900012    2    1    2    0    0 -0.33132240490E+02 -0.24665760041E+02  0.13322082743E+02  0.47787274581E+02  0.20000016126E+02 0.  0.
         12    1    1    2    0    0  0.33132240490E+02  0.24665760041E+02 -0.13322082743E+02  0.43400725419E+02  0.00000000000E+00 0. -1.
         11    1    3    3    0    0 -0.19797697488E+02 -0.60528520913E+01  0.55963813111E+01  0.21445403431E+02  0.51100000000E-03 0. -1.
        -11    1    3    3    0    0 -0.11701328813E+02 -0.14164264276E+02  0.13831775502E+01  0.18424458170E+02  0.51100000000E-03 0.  1.
         12    1    3    3    0    0 -0.16332141893E+01 -0.44486436739E+01  0.63425238814E+01  0.79174129810E+01  0.00000000000E+00 0. -1.
</event>
<event>
 7    1  0.2812635E-010  0.4778727E+02  0.7816164E-02  0.1312668E+00
        -11   -1    0    0    0    0  0.00000000000E+00  0.00000000000E+00  0.45593999997E+02  0.45594000000E+02  0.51100000000E-03 0.  1.
         11   -1    0    0    0    0 -0.00000000000E+00 -0.00000000000E+00 -0.45593999997E+02  0.45594000000E+02  0.51100000000E-03 0. -1.
    9900012    2    1    2    0    0  0.17526343506E+02  0.39077486599E+02  0.70285721794E+01  0.47787268411E+02  0.19999987992E+02 0.  0.
         12    1    1    2    0    0 -0.17526343506E+02 -0.39077486599E+02 -0.70285721794E+01  0.43400731589E+02  0.00000000000E+00 0. -1.
         11    1    3    3    0    0 -0.16240732027E+01  0.17495519777E+01  0.43233624618E+01  0.49386242141E+01  0.51100000000E-03 0. -1.
        -11    1    3    3    0    0  0.13796281086E+02  0.27306796168E+02 -0.17511616352E+01  0.30644168386E+02  0.51100000000E-03 0.  1.
         12    1    3    3    0    0  0.53541356223E+01  0.10021138454E+02  0.44563713528E+01  0.12204475810E+02  0.00000000000E+00 0. -1.
</event>
<event>
 7    1  0.2812635E-010  0.4778727E+02  0.7816164E-02  0.1312668E+00
        -11   -1    0    0    0    0  0.00000000000E+00  0.00000000000E+00  0.45593999997E+02  0.45594000000E+02  0.51100000000E-03 0. -1.
         11   -1    0    0    0    0 -0.00000000000E+00 -0.00000000000E+00 -0.45593999997E+02  0.45594000000E+02  0.51100000000E-03 0.  1.
    9900012    2    1    2    0    0  0.25471918132E+02  0.11164678629E+02  0.33318984157E+02  0.47787269966E+02  0.19999995084E+02 0.  0.
         12    1    1    2    0    0 -0.25471918132E+02 -0.11164678629E+02 -0.33318984157E+02  0.43400730034E+02  0.00000000000E+00 0. -1.
         11    1    3    3    0    0  0.89707481616E+01  0.16310311959E+01  0.29868270326E+01  0.95945672818E+01  0.51100000000E-03 0.  1.
        -11    1    3    3    0    0  0.26707434951E+01  0.83181090874E+01  0.16054727521E+02  0.18277803086E+02  0.51100000000E-03 0. -1.
        -12    1    3    3    0    0  0.13830426475E+02  0.12155383461E+01  0.14277429604E+02  0.19914899599E+02  0.00000000000E+00 0.  1.
</event>
<event>
 7    1  0.2812635E-010  0.4778727E+02  0.7816164E-02  0.1312668E+00
        -11   -1    0    0    0    0  0.00000000000E+00  0.00000000000E+00  0.45593999997E+02  0.45594000000E+02  0.51100000000E-03 0.  1.
         11   -1    0    0    0    0 -0.00000000000E+00 -0.00000000000E+00 -0.45593999997E+02  0.45594000000E+02  0.51100000000E-03 0. -1.
    9900012    2    1    2    0    0 -0.14385534621E+01 -0.43373309548E+02 -0.55644568605E+00  0.47787273635E+02  0.20000011813E+02 0.  0.
         12    1    1    2    0    0  0.14385534621E+01  0.43373309548E+02  0.55644568605E+00  0.43400726365E+02  0.00000000000E+00 0. -1.
         11    1    3    3    0    0 -0.80975694752E+01 -0.19174927530E+02 -0.12660077468E+01  0.20853087375E+02  0.51100000000E-03 0. -1.
        -11    1    3    3    0    0  0.56483153008E+01 -0.22065479858E+02  0.37516591438E+01  0.23083843131E+02  0.51100000000E-03 0.  1.
         12    1    3    3    0    0  0.10107007123E+01 -0.21329021596E+01 -0.30420970831E+01  0.38503431296E+01  0.00000000000E+00 0. -1.
</event>
<event>
 7    1  0.2812635E-010  0.4778727E+02  0.7816164E-02  0.1312668E+00
        -11   -1    0    0    0    0  0.00000000000E+00  0.00000000000E+00  0.45593999997E+02  0.45594000000E+02  0.51100000000E-03 0.  1.
         11   -1    0    0    0    0 -0.00000000000E+00 -0.00000000000E+00 -0.45593999997E+02  0.45594000000E+02  0.51100000000E-03 0. -1.
    9900012    2    1    2    0    0  0.38013192255E+01 -0.19141057727E+02  0.38765876335E+02  0.47787270896E+02  0.19999999323E+02 0.  0.
         12    1    1    2    0    0 -0.38013192255E+01  0.19141057727E+02 -0.38765876335E+02  0.43400729104E+02  0.00000000000E+00 0. -1.
         11    1    3    3    0    0 -0.36929615822E+01 -0.20857865001E+01  0.13880885210E+02  0.14514387519E+02  0.51100000000E-03 0. -1.
        -11    1    3    3    0    0 -0.27377050075E+01 -0.73327944497E+01  0.10748018377E+02  0.13296044617E+02  0.51100000000E-03 0.  1.
         12    1    3    3    0    0  0.10231985815E+02 -0.97224767770E+01  0.14136972747E+02  0.19976838760E+02  0.00000000000E+00 0. -1.
</event>
<event>
 7    1  0.2812635E-010  0.4778727E+02  0.7816164E-02  0.1312668E+00
        -11   -1    0    0    0    0  0.00000000000E+00  0.00000000000E+00  0.45593999997E+02  0.45594000000E+02  0.51100000000E-03 0. -1.
         11   -1    0    0    0    0 -0.00000000000E+00 -0.00000000000E+00 -0.45593999997E+02  0.45594000000E+02  0.51100000000E-03 0.  1.
    9900012    2    1    2    0    0 -0.83391242053E+01 -0.39107367627E+02 -0.16872930921E+02  0.47787274279E+02  0.20000014750E+02 0.  0.
         12    1    1    2    0    0  0.83391242053E+01  0.39107367627E+02  0.16872930921E+02  0.43400725721E+02  0.00000000000E+00 0. -1.
         11    1    3    3    0    0 -0.12508947088E+02 -0.16303715220E+02 -0.66421581494E+01  0.21596368962E+02  0.51100000000E-03 0. -1.
        -11    1    3    3    0    0  0.21818319744E+01 -0.12358143079E+02 -0.90927659880E+01  0.15497176669E+02  0.51100000000E-03 0.  1.
         12    1    3    3    0    0  0.19879909081E+01 -0.10445509327E+02 -0.11380067835E+01  0.10693728648E+02  0.00000000000E+00 0. -1.
</event>
<event>
 7    1  0.2812635E-010  0.4778727E+02  0.7816164E-02  0.1312668E+00
        -11   -1    0    0    0    0  0.00000000000E+00  0.00000000000E+00  0.45593999997E+02  0.45594000000E+02  0.51100000000E-03 0.  1.
         11   -1    0    0    0    0 -0.00000000000E+00 -0.00000000000E+00 -0.45593999997E+02  0.45594000000E+02  0.51100000000E-03 0. -1.
    9900012    2    1    2    0    0 -0.40243780274E+02 -0.16186435814E+02  0.14355553606E+01  0.47787269888E+02  0.19999994726E+02 0.  0.
         12    1    1    2    0    0  0.40243780274E+02  0.16186435814E+02 -0.14355553606E+01  0.43400730112E+02  0.00000000000E+00 0. -1.
         11    1    3    3    0    0 -0.18978601083E+02 -0.54393070273E+01 -0.49278393440E+01  0.20348389638E+02  0.51100000000E-03 0. -1.
        -11    1    3    3    0    0 -0.36174315558E+01  0.23579579703E+00  0.55596607059E+01  0.66371106775E+01  0.51100000000E-03 0.  1.
        -12    1    3    3    0    0 -0.17647747635E+02 -0.10982924583E+02  0.80373399864E+00  0.20801769573E+02  0.00000000000E+00 0.  1.
</event>
<event>
 7    1  0.2812635E-010  0.4778727E+02  0.7816164E-02  0.1312668E+00
        -11   -1    0    0    0    0  0.00000000000E+00  0.00000000000E+00  0.45593999997E+02  0.45594000000E+02  0.51100000000E-03 0.  1.
         11   -1    0    0    0    0 -0.00000000000E+00 -0.00000000000E+00 -0.45593999997E+02  0.45594000000E+02  0.51100000000E-03 0. -1.
    9900012    2    1    2    0    0 -0.24322786390E+02 -0.28724069642E+02  0.21609097100E+02  0.47787271987E+02  0.20000004297E+02 0.  0.
         12    1    1    2    0    0  0.24322786390E+02  0.28724069642E+02 -0.21609097100E+02  0.43400728013E+02  0.00000000000E+00 0. -1.
         11    1    3    3    0    0 -0.19799551126E+02 -0.16632697299E+02  0.69089582079E+01  0.26765697227E+02  0.51100000000E-03 0. -1.
        -11    1    3    3    0    0 -0.55509615528E+01 -0.12597853674E+02  0.12772490939E+02  0.18779127147E+02  0.51100000000E-03 0.  1.
         12    1    3    3    0    0  0.10277262893E+01  0.50648133135E+00  0.19276479535E+01  0.22424476131E+01  0.00000000000E+00 0. -1.
</event>
<event>
 7    1  0.2812635E-010  0.4778726E+02  0.7816164E-02  0.1312668E+00
        -11   -1    0    0    0    0  0.00000000000E+00  0.00000000000E+00  0.45593999997E+02  0.45594000000E+02  0.51100000000E-03 0. -1.
         11   -1    0    0    0    0 -0.00000000000E+00 -0.00000000000E+00 -0.45593999997E+02  0.45594000000E+02  0.51100000000E-03 0.  1.
    9900012    2    1    2    0    0 -0.32825585635E+02 -0.19020543361E+02 -0.21079003887E+02  0.47787256378E+02  0.19999933131E+02 0.  0.
         12    1    1    2    0    0  0.32825585635E+02  0.19020543361E+02  0.21079003887E+02  0.43400743622E+02  0.00000000000E+00 0. -1.
         11    1    3    3    0    0 -0.25791688001E+01  0.26566560156E+01 -0.23134055710E+00  0.37099126134E+01  0.51100000000E-03 0. -1.
        -11    1    3    3    0    0 -0.21480594752E+02 -0.20969088169E+02 -0.16743732044E+02  0.34372535149E+02  0.51100000000E-03 0.  1.
         12    1    3    3    0    0 -0.87658220829E+01 -0.70811120759E+00 -0.41039312854E+01  0.97048086157E+01  0.00000000000E+00 0. -1.
</event>
<event>
 7    1  0.2812635E-010  0.4778727E+02  0.7816164E-02  0.1312668E+00
        -11   -1    0    0    0    0  0.00000000000E+00  0.00000000000E+00  0.45593999997E+02  0.45594000000E+02  0.51100000000E-03 0.  1.
         11   -1    0    0    0    0 -0.00000000000E+00 -0.00000000000E+00 -0.45593999997E+02  0.45594000000E+02  0.51100000000E-03 0. -1.
    9900012    2    1    2    0    0  0.11015613865E+02 -0.24146248210E+02  0.34340033188E+02  0.47787274997E+02  0.20000018022E+02 0.  0.
         12    1    1    2    0    0 -0.11015613865E+02  0.24146248210E+02 -0.34340033188E+02  0.43400725003E+02  0.00000000000E+00 0. -1.
         11    1    3    3    0    0  0.65193465393E+01 -0.17291365406E+02  0.25810846571E+02  0.31744180535E+02  0.51100000000E-03 0. -1.
        -11    1    3    3    0    0  0.60284972403E+01 -0.90373528693E+01  0.74158865512E+01  0.13153398780E+02  0.51100000000E-03 0.  1.
         12    1    3    3    0    0 -0.15322299149E+01  0.21824700652E+01  0.11133000661E+01  0.28896956821E+01  0.00000000000E+00 0. -1.
</event>
<event>
 7    1  0.2812635E-010  0.4778727E+02  0.7816164E-02  0.1312668E+00
        -11   -1    0    0    0    0  0.00000000000E+00  0.00000000000E+00  0.45593999997E+02  0.45594000000E+02  0.51100000000E-03 0. -1.
         11   -1    0    0    0    0 -0.00000000000E+00 -0.00000000000E+00 -0.45593999997E+02  0.45594000000E+02  0.51100000000E-03 0.  1.
    9900012    2    1    2    0    0 -0.42188020455E+01 -0.42550391252E+02 -0.74356804308E+01  0.47787269248E+02  0.19999991807E+02 0.  0.
         12    1    1    2    0    0  0.42188020455E+01  0.42550391252E+02  0.74356804308E+01  0.43400730752E+02  0.00000000000E+00 0. -1.
         11    1    3    3    0    0  0.86008495237E+00 -0.62914516234E+00 -0.11671214079E+01  0.15804247538E+01  0.51100000000E-03 0. -1.
        -11    1    3    3    0    0  0.58097780943E+01 -0.65748548379E+01 -0.66359931517E+00  0.87990114193E+01  0.51100000000E-03 0.  1.
        -12    1    3    3    0    0 -0.10888665092E+02 -0.35346391252E+02 -0.56049597077E+01  0.37407833074E+02  0.00000000000E+00 0.  1.
</event>
<event>
 7    1  0.2812635E-010  0.4778728E+02  0.7816164E-02  0.1312668E+00
        -11   -1    0    0    0    0  0.00000000000E+00  0.00000000000E+00  0.45593999997E+02  0.45594000000E+02  0.51100000000E-03 0.  1.
         11   -1    0    0    0    0 -0.00000000000E+00 -0.00000000000E+00 -0.45593999997E+02  0.45594000000E+02  0.51100000000E-03 0. -1.
    9900012    2    1    2    0    0 -0.20663492819E+02  0.37097094626E+02  0.89692946639E+01  0.47787278670E+02  0.20000034770E+02 0.  0.
         12    1    1    2    0    0  0.20663492819E+02 -0.37097094626E+02 -0.89692946639E+01  0.43400721330E+02  0.00000000000E+00 0. -1.
         11    1    3    3    0    0 -0.49054182668E+01  0.74424811586E+01 -0.47402536667E+01  0.10095724801E+02  0.51100000000E-03 0. -1.
        -11    1    3    3    0    0 -0.15647880040E+02  0.20219543006E+02  0.11299596979E+02  0.27952941908E+02  0.51100000000E-03 0.  1.
         12    1    3    3    0    0 -0.11019451245E+00  0.94350704608E+01  0.24099513511E+01  0.97386119620E+01  0.00000000000E+00 0. -1.
</event>
<event>
 7    1  0.2812635E-010  0.4778727E+02  0.7816164E-02  0.1312668E+00
        -11   -1    0    0    0    0  0.00000000000E+00  0.00000000000E+00  0.45593999997E+02  0.45594000000E+02  0.51100000000E-03 0. -1.
         11   -1    0    0    0    0 -0.00000000000E+00 -0.00000000000E+00 -0.45593999997E+02  0.45594000000E+02  0.51100000000E-03 0.  1.
    9900012    2    1    2    0    0  0.41383545763E+01  0.33465199285E+02 -0.27323571779E+02  0.47787272857E+02  0.20000008262E+02 0.  0.
         12    1    1    2    0    0 -0.41383545763E+01 -0.33465199285E+02  0.27323571779E+02  0.43400727143E+02  0.00000000000E+00 0. -1.
         11    1    3    3    0    0  0.12915526029E+00  0.30345584903E+02 -0.14435429608E+02  0.33604357343E+02  0.51100000000E-03 0.  1.
        -11    1    3    3    0    0  0.33569655266E+01  0.36592591999E+01 -0.11814456546E+02  0.12815645874E+02  0.51100000000E-03 0. -1.
         12    1    3    3    0    0  0.65223378940E+00 -0.53964481775E+00 -0.10736856249E+01  0.13672696393E+01  0.00000000000E+00 0. -1.
</event>
<event>
 7    1  0.2812635E-010  0.4778727E+02  0.7816164E-02  0.1312668E+00
        -11   -1    0    0    0    0  0.00000000000E+00  0.00000000000E+00  0.45593999997E+02  0.45594000000E+02  0.51100000000E-03 0. -1.
         11   -1    0    0    0    0 -0.00000000000E+00 -0.00000000000E+00 -0.45593999997E+02  0.45594000000E+02  0.51100000000E-03 0.  1.
    9900012    2    1    2    0    0 -0.40247058861E+02  0.25891407682E+01  0.16034158190E+02  0.47787266991E+02  0.19999981519E+02 0.  0.
         12    1    1    2    0    0  0.40247058861E+02 -0.25891407682E+01 -0.16034158190E+02  0.43400733009E+02  0.00000000000E+00 0. -1.
         11    1    3    3    0    0 -0.66833714413E+00  0.35566050207E+01  0.33299696371E+01  0.49178055936E+01  0.51100000000E-03 0. -1.
        -11    1    3    3    0    0 -0.96569539531E+01 -0.37354245636E+01  0.29477934631E+00  0.10358429005E+02  0.51100000000E-03 0.  1.
         12    1    3    3    0    0 -0.29921767763E+02  0.27679603111E+01  0.12409409207E+02  0.32511032393E+02  0.00000000000E+00 0. -1.
</event>
<event>
 7    1  0.2812635E-010  0.4778727E+02  0.7816164E-02  0.1312668E+00
        -11   -1    0    0    0    0  0.00000000000E+00  0.00000000000E+00  0.45593999997E+02  0.45594000000E+02  0.51100000000E-03 0.  1.
         11   -1    0    0    0    0 -0.00000000000E+00 -0.00000000000E+00 -0.45593999997E+02  0.45594000000E+02  0.51100000000E-03 0. -1.
    9900012    2    1    2    0    0  0.34459689124E+01 -0.10112621837E+02  0.42065232925E+02  0.47787266789E+02  0.19999980600E+02 0.  0.
         12    1    1    2    0    0 -0.34459689124E+01  0.10112621837E+02 -0.42065232925E+02  0.43400733211E+02  0.00000000000E+00 0. -1.
         11    1    3    3    0    0  0.82866675703E+01 -0.82901247103E+01  0.27979981821E+02  0.30336024956E+02  0.51100000000E-03 0. -1.
        -11    1    3    3    0    0 -0.19203747669E+01 -0.47851603584E+01  0.11367335642E+02  0.12482063883E+02  0.51100000000E-03 0.  1.
         12    1    3    3    0    0 -0.29203238909E+01  0.29626632320E+01  0.27179154615E+01  0.49691779512E+01  0.00000000000E+00 0. -1.
</event>
<event>
 7    1  0.2812635E-010  0.4778727E+02  0.7816164E-02  0.1312668E+00
        -11   -1    0    0    0    0  0.00000000000E+00  0.00000000000E+00  0.45593999997E+02  0.45594000000E+02  0.51100000000E-03 0.  1.
         11   -1    0    0    0    0 -0.00000000000E+00 -0.00000000000E+00 -0.45593999997E+02  0.45594000000E+02  0.51100000000E-03 0. -1.
    9900012    2    1    2    0    0  0.64144236468E+01 -0.42478102217E+02 -0.61716617941E+01  0.47787269499E+02  0.19999992954E+02 0.  0.
         12    1    1    2    0    0 -0.64144236468E+01  0.42478102217E+02  0.61716617941E+01  0.43400730501E+02  0.00000000000E+00 0. -1.
         11    1    3    3    0    0 -0.38888671129E+01 -0.34359918267E+01 -0.18502619982E+01  0.55093372540E+01  0.51100000000E-03 0. -1.
        -11    1    3    3    0    0  0.71153484279E+01 -0.37441771336E+02 -0.55314792871E+01  0.38511189119E+02  0.51100000000E-03 0.  1.
        -12    1    3    3    0    0  0.31879423318E+01 -0.16003390546E+01  0.12100794911E+01  0.37667431258E+01  0.00000000000E+00 0.  1.
</event>
<event>
 7    1  0.2812635E-010  0.4778727E+02  0.7816164E-02  0.1312668E+00
        -11   -1    0    0    0    0  0.00000000000E+00  0.00000000000E+00  0.45593999997E+02  0.45594000000E+02  0.51100000000E-03 0.  1.
         11   -1    0    0    0    0 -0.00000000000E+00 -0.00000000000E+00 -0.45593999997E+02  0.45594000000E+02  0.51100000000E-03 0. -1.
    9900012    2    1    2    0    0 -0.17640301648E+02  0.36618472728E+02  0.15216132640E+02  0.47787268673E+02  0.19999989188E+02 0.  0.
         12    1    1    2    0    0  0.17640301648E+02 -0.36618472728E+02 -0.15216132640E+02  0.43400731327E+02  0.00000000000E+00 0. -1.
         11    1    3    3    0    0 -0.61784740687E+01  0.30010410864E+02  0.10500844604E+02  0.32389288966E+02  0.51100000000E-03 0. -1.
        -11    1    3    3    0    0 -0.88208749576E+01  0.75557633937E+01  0.26473661012E+01  0.11912428091E+02  0.51100000000E-03 0.  1.
         12    1    3    3    0    0 -0.26409526220E+01 -0.94770152981E+00  0.20679219358E+01  0.34855516168E+01  0.00000000000E+00 0. -1.
</event>
<event>
 7    1  0.2812635E-010  0.4778724E+02  0.7816164E-02  0.1312668E+00
        -11   -1    0    0    0    0  0.00000000000E+00  0.00000000000E+00  0.45593999997E+02  0.45594000000E+02  0.51100000000E-03 0. -1.
         11   -1    0    0    0    0 -0.00000000000E+00 -0.00000000000E+00 -0.45593999997E+02  0.45594000000E+02  0.51100000000E-03 0.  1.
    9900012    2    1    2    0    0  0.32264817604E+02  0.12547092564E+02 -0.26175905232E+02  0.47787239620E+02  0.19999856723E+02 0.  0.
         12    1    1    2    0    0 -0.32264817604E+02 -0.12547092564E+02  0.26175905232E+02  0.43400760380E+02  0.00000000000E+00 0. -1.
         11    1    3    3    0    0  0.10814839093E+02  0.36666647368E+01  0.62584370419E-01  0.11419680029E+02  0.51100000000E-03 0. -1.
        -11    1    3    3    0    0  0.22448370181E+02  0.80086000744E+01 -0.24490350937E+02  0.34173736819E+02  0.51100000000E-03 0.  1.
         12    1    3    3    0    0 -0.99839166992E+00  0.87182775306E+00 -0.17481386655E+01  0.21938227712E+01  0.00000000000E+00 0. -1.
</event>
<event>
 7    1  0.2812635E-010  0.4778725E+02  0.7816164E-02  0.1312668E+00
        -11   -1    0    0    0    0  0.00000000000E+00  0.00000000000E+00  0.45593999997E+02  0.45594000000E+02  0.51100000000E-03 0.  1.
         11   -1    0    0    0    0 -0.00000000000E+00 -0.00000000000E+00 -0.45593999997E+02  0.45594000000E+02  0.51100000000E-03 0. -1.
    9900012    2    1    2    0    0 -0.15647708628E+02 -0.22992896103E+02  0.33318176435E+02  0.47787251879E+02  0.19999912617E+02 0.  0.
         12    1    1    2    0    0  0.15647708628E+02  0.22992896103E+02 -0.33318176435E+02  0.43400748121E+02  0.00000000000E+00 0. -1.
         11    1    3    3    0    0 -0.12264547948E+02 -0.95434524717E+01  0.65469274540E+01  0.16862944013E+02  0.51100000000E-03 0. -1.
        -11    1    3    3    0    0  0.10061591577E+01 -0.70899540643E+01  0.17144558990E+02  0.18579981381E+02  0.51100000000E-03 0.  1.
        -12    1    3    3    0    0 -0.43893198373E+01 -0.63594895671E+01  0.96266899912E+01  0.12344326485E+02  0.00000000000E+00 0.  1.
</event>
<event>
 7    1  0.2812635E-010  0.4778726E+02  0.7816164E-02  0.1312668E+00
        -11   -1    0    0    0    0  0.00000000000E+00  0.00000000000E+00  0.45593999997E+02  0.45594000000E+02  0.51100000000E-03 0.  1.
         11   -1    0    0    0    0 -0.00000000000E+00 -0.00000000000E+00 -0.45593999997E+02  0.45594000000E+02  0.51100000000E-03 0. -1.
    9900012    2    1    2    0    0 -0.95585444107E+01  0.86320060883E+01  0.41445705569E+02  0.47787264862E+02  0.19999971813E+02 0.  0.
         12    1    1    2    0    0  0.95585444107E+01 -0.86320060883E+01 -0.41445705569E+02  0.43400735138E+02  0.00000000000E+00 0. -1.
         11    1    3    3    0    0 -0.89663100587E+01  0.14298188443E+02  0.27189842198E+02  0.32001881630E+02  0.51100000000E-03 0. -1.
        -11    1    3    3    0    0 -0.21485009239E+01 -0.32592596471E+01  0.86108705045E+01  0.94544127673E+01  0.51100000000E-03 0.  1.
         12    1    3    3    0    0  0.15562665720E+01 -0.24069227080E+01  0.56449928668E+01  0.63309704652E+01  0.00000000000E+00 0. -1.
</event>
<event>
 7    1  0.2812635E-010  0.4778727E+02  0.7816164E-02  0.1312668E+00
        -11   -1    0    0    0    0  0.00000000000E+00  0.00000000000E+00  0.45593999997E+02  0.45594000000E+02  0.51100000000E-03 0.  1.
         11   -1    0    0    0    0 -0.00000000000E+00 -0.00000000000E+00 -0.45593999997E+02  0.45594000000E+02  0.51100000000E-03 0. -1.
    9900012    2    1    2    0    0  0.26926062800E+01  0.43043571340E+02  0.48604892094E+01  0.47787268237E+02  0.19999987198E+02 0.  0.
         12    1    1    2    0    0 -0.26926062800E+01 -0.43043571340E+02 -0.48604892094E+01  0.43400731763E+02  0.00000000000E+00 0. -1.
         11    1    3    3    0    0 -0.68364350700E+01  0.92084975695E+01  0.16898674723E+01  0.11592623702E+02  0.51100000000E-03 0. -1.
        -11    1    3    3    0    0  0.64660033383E+01  0.95285729754E+01  0.18242680403E+01  0.11658938900E+02  0.51100000000E-03 0.  1.
         12    1    3    3    0    0  0.30630380116E+01  0.24306500795E+02  0.13463536968E+01  0.24535705635E+02  0.00000000000E+00 0. -1.
</event>
<event>
 7    1  0.2812635E-010  0.4778726E+02  0.7816164E-02  0.1312668E+00
        -11   -1    0    0    0    0  0.00000000000E+00  0.00000000000E+00  0.45593999997E+02  0.45594000000E+02  0.51100000000E-03 0.  1.
         11   -1    0    0    0    0 -0.00000000000E+00 -0.00000000000E+00 -0.45593999997E+02  0.45594000000E+02  0.51100000000E-03 0. -1.
    9900012    2    1    2    0    0  0.73896138900E+01 -0.24264570236E+02  0.35217160662E+02  0.47787260752E+02  0.19999953071E+02 0.  0.
         12    1    1    2    0    0 -0.73896138900E+01  0.24264570236E+02 -0.35217160662E+02  0.43400739248E+02  0.00000000000E+00 0. -1.
         11    1    3    3    0    0 -0.12089923475E+01  0.14402938856E+00  0.12786139595E+02  0.12843978082E+02  0.51100000000E-03 0. -1.
        -11    1    3    3    0    0  0.72370484323E+01 -0.20095014272E+02  0.14507778544E+02  0.25819761950E+02  0.51100000000E-03 0.  1.
        -12    1    3    3    0    0  0.13615578052E+01 -0.43135853529E+01  0.79232425233E+01  0.91235207205E+01  0.00000000000E+00 0.  1.
</event>
<event>
 7    1  0.2812635E-010  0.4778727E+02  0.7816164E-02  0.1312668E+00
        -11   -1    0    0    0    0  0.00000000000E+00  0.00000000000E+00  0.45593999997E+02  0.45594000000E+02  0.51100000000E-03 0.  1.
         11   -1    0    0    0    0 -0.00000000000E+00 -0.00000000000E+00 -0.45593999997E+02  0.45594000000E+02  0.51100000000E-03 0. -1.
    9900012    2    1    2    0    0  0.13404760926E+02 -0.24986430263E+02  0.32857480103E+02  0.47787270611E+02  0.19999998025E+02 0.  0.
         12    1    1    2    0    0 -0.13404760926E+02  0.24986430263E+02 -0.32857480103E+02  0.43400729389E+02  0.00000000000E+00 0. -1.
         11    1    3    3    0    0 -0.12486261248E+01 -0.74792044176E+01  0.26468607339E+00  0.75873331875E+01  0.51100000000E-03 0. -1.
        -11    1    3    3    0    0  0.75067699679E+01 -0.69561761935E+01  0.18910382971E+02  0.21502152613E+02  0.51100000000E-03 0.  1.
        -12    1    3    3    0    0  0.71466170830E+01 -0.10551049651E+02  0.13682411058E+02  0.18697784811E+02  0.00000000000E+00 0.  1.
</event>
<event>
 7    1  0.2812635E-010  0.4778727E+02  0.7816164E-02  0.1312668E+00
        -11   -1    0    0    0    0  0.00000000000E+00  0.00000000000E+00  0.45593999997E+02  0.45594000000E+02  0.51100000000E-03 0.  1.
         11   -1    0    0    0    0 -0.00000000000E+00 -0.00000000000E+00 -0.45593999997E+02  0.45594000000E+02  0.51100000000E-03 0. -1.
    9900012    2    1    2    0    0  0.10880868858E+02  0.35220131053E+02  0.22907912156E+02  0.47787269846E+02  0.19999994537E+02 0.  0.
         12    1    1    2    0    0 -0.10880868858E+02 -0.35220131053E+02 -0.22907912156E+02  0.43400730154E+02  0.00000000000E+00 0. -1.
         11    1    3    3    0    0  0.37970694514E+01 -0.24460202688E+00  0.36188019004E+00  0.38221099020E+01  0.51100000000E-03 0. -1.
        -11    1    3    3    0    0  0.47067216605E+01  0.24892402589E+02  0.21222935638E+02  0.33048418007E+02  0.51100000000E-03 0.  1.
         12    1    3    3    0    0  0.23770777463E+01  0.10572330491E+02  0.13230963285E+01  0.10916741937E+02  0.00000000000E+00 0. -1.
</event>
<event>
 7    1  0.2812635E-010  0.4778727E+02  0.7816164E-02  0.1312668E+00
        -11   -1    0    0    0    0  0.00000000000E+00  0.00000000000E+00  0.45593999997E+02  0.45594000000E+02  0.51100000000E-03 0. -1.
         11   -1    0    0    0    0 -0.00000000000E+00 -0.00000000000E+00 -0.45593999997E+02  0.45594000000E+02  0.51100000000E-03 0.  1.
    9900012    2    1    2    0    0 -0.24732437560E+02  0.20145936902E+02 -0.29429086067E+02  0.47787270189E+02  0.19999996101E+02 0.  0.
         12    1    1    2    0    0  0.24732437560E+02 -0.20145936902E+02  0.29429086067E+02  0.43400729811E+02  0.00000000000E+00 0. -1.
         11    1    3    3    0    0 -0.12531071298E+02  0.85323468996E+01 -0.25242542143E+02  0.29445112083E+02  0.51100000000E-03 0. -1.
        -11    1    3    3    0    0 -0.97231698171E+01  0.11892907943E+02 -0.34968387010E+01  0.15754655560E+02  0.51100000000E-03 0.  1.
        -12    1    3    3    0    0 -0.24781964450E+01 -0.27931794107E+00 -0.68970522365E+00  0.25875025464E+01  0.00000000000E+00 0.  1.
</event>
<event>
 7    1  0.2812635E-010  0.4778727E+02  0.7816164E-02  0.1312668E+00
        -11   -1    0    0    0    0  0.00000000000E+00  0.00000000000E+00  0.45593999997E+02  0.45594000000E+02  0.51100000000E-03 0.  1.
         11   -1    0    0    0    0 -0.00000000000E+00 -0.00000000000E+00 -0.45593999997E+02  0.45594000000E+02  0.51100000000E-03 0. -1.
    9900012    2    1    2    0    0  0.13465621608E+02 -0.24698173650E+02  0.33049970731E+02  0.47787270602E+02  0.19999997982E+02 0.  0.
         12    1    1    2    0    0 -0.13465621608E+02  0.24698173650E+02 -0.33049970731E+02  0.43400729398E+02  0.00000000000E+00 0. -1.
         11    1    3    3    0    0 -0.24361929910E+01 -0.25142017691E+01  0.96675004305E+01  0.10281868102E+02  0.51100000000E-03 0. -1.
        -11    1    3    3    0    0  0.13588140283E+02 -0.11530842682E+02  0.18065649721E+02  0.25376477088E+02  0.51100000000E-03 0.  1.
         12    1    3    3    0    0  0.23136743162E+01 -0.10653129199E+02  0.53168205802E+01  0.12128925412E+02  0.00000000000E+00 0. -1.
</event>
<event>
 7    1  0.2812635E-010  0.4778727E+02  0.7816164E-02  0.1312668E+00
        -11   -1    0    0    0    0  0.00000000000E+00  0.00000000000E+00  0.45593999997E+02  0.45594000000E+02  0.51100000000E-03 0. -1.
         11   -1    0    0    0    0 -0.00000000000E+00 -0.00000000000E+00 -0.45593999997E+02  0.45594000000E+02  0.51100000000E-03 0.  1.
    9900012    2    1    2    0    0 -0.23267824605E+02  0.33293611836E+02 -0.15289454660E+02  0.47787266426E+02  0.19999978944E+02 0.  0.
         12    1    1    2    0    0  0.23267824605E+02 -0.33293611836E+02  0.15289454660E+02  0.43400733574E+02  0.00000000000E+00 0. -1.
         11    1    3    3    0    0 -0.83028603190E+00  0.72034193695E+00 -0.26859351719E+00  0.11315520931E+01  0.51100000000E-03 0. -1.
        -11    1    3    3    0    0 -0.69279854386E+01  0.13748960819E+02 -0.16054015295E+02  0.22243253206E+02  0.51100000000E-03 0.  1.
        -12    1    3    3    0    0 -0.15509553135E+02  0.18824309080E+02  0.10331541517E+01  0.24412461127E+02  0.00000000000E+00 0.  1.
</event>
<event>
 7    1  0.2812635E-010  0.4778727E+02  0.7816164E-02  0.1312668E+00
        -11   -1    0    0    0    0  0.00000000000E+00  0.00000000000E+00  0.45593999997E+02  0.45594000000E+02  0.51100000000E-03 0.  1.
         11   -1    0    0    0    0 -0.00000000000E+00 -0.00000000000E+00 -0.45593999997E+02  0.45594000000E+02  0.51100000000E-03 0. -1.
    9900012    2    1    2    0    0 -0.22763960231E+02  0.19629966249E+02  0.31306389738E+02  0.47787268453E+02  0.19999988186E+02 0.  0.
         12    1    1    2    0    0  0.22763960231E+02 -0.19629966249E+02 -0.31306389738E+02  0.43400731547E+02  0.00000000000E+00 0. -1.
         11    1    3    3    0    0 -0.12106488438E+02  0.21253975141E+01  0.59227609840E+01  0.13644173659E+02  0.51100000000E-03 0. -1.
        -11    1    3    3    0    0 -0.30413816515E+01  0.14154205069E+02  0.17043215357E+02  0.22362082046E+02  0.51100000000E-03 0.  1.
        -12    1    3    3    0    0 -0.76160901418E+01  0.33503636664E+01  0.83404133975E+01  0.11781012749E+02  0.00000000000E+00 0.  1.
</event>
<event>
 7    1  0.2812635E-010  0.4778727E+02  0.7816164E-02  0.1312668E+00
        -11   -1    0    0    0    0  0.00000000000E+00  0.00000000000E+00  0.45593999997E+02  0.45594000000E+02  0.51100000000E-03 0.  1.
         11   -1    0    0    0    0 -0.00000000000E+00 -0.00000000000E+00 -0.45593999997E+02  0.45594000000E+02  0.51100000000E-03 0. -1.
    9900012    2    1    2    0    0 -0.22390133424E+01  0.25913250299E+01  0.43265406646E+02  0.47787267766E+02  0.19999985054E+02 0.  0.
         12    1    1    2    0    0  0.22390133424E+01 -0.25913250299E+01 -0.43265406646E+02  0.43400732234E+02  0.00000000000E+00 0. -1.
         11    1    3    3    0    0 -0.23478037942E+00 -0.20529795515E+01  0.35274287225E+02  0.35334758898E+02  0.51100000000E-03 0.  1.
        -11    1    3    3    0    0 -0.32555024558E+01  0.63422516340E+01  0.46841344832E+01  0.85301563964E+01  0.51100000000E-03 0. -1.
        -12    1    3    3    0    0  0.12512694929E+01 -0.16979470525E+01  0.33069849376E+01  0.39223524720E+01  0.00000000000E+00 0.  1.
</event>
<event>
 7    1  0.2812635E-010  0.4778728E+02  0.7816164E-02  0.1312668E+00
        -11   -1    0    0    0    0  0.00000000000E+00  0.00000000000E+00  0.45593999997E+02  0.45594000000E+02  0.51100000000E-03 0.  1.
         11   -1    0    0    0    0 -0.00000000000E+00 -0.00000000000E+00 -0.45593999997E+02  0.45594000000E+02  0.51100000000E-03 0. -1.
    9900012    2    1    2    0    0  0.32210976490E+02 -0.15519630763E+02  0.24601155113E+02  0.47787276753E+02  0.20000026029E+02 0.  0.
         12    1    1    2    0    0 -0.32210976490E+02  0.15519630763E+02 -0.24601155113E+02  0.43400723247E+02  0.00000000000E+00 0. -1.
         11    1    3    3    0    0  0.23000952709E+02 -0.14160443448E+02  0.17962450718E+02  0.32437811582E+02  0.51100000000E-03 0. -1.
        -11    1    3    3    0    0  0.90703269450E+01 -0.30044635961E+01  0.11573596234E+01  0.96248176060E+01  0.51100000000E-03 0.  1.
         12    1    3    3    0    0  0.13969683628E+00  0.16452762813E+01  0.54813447713E+01  0.57246475655E+01  0.00000000000E+00 0. -1.
</event>
<event>
 7    1  0.2812635E-010  0.4778726E+02  0.7816164E-02  0.1312668E+00
        -11   -1    0    0    0    0  0.00000000000E+00  0.00000000000E+00  0.45593999997E+02  0.45594000000E+02  0.51100000000E-03 0.  1.
         11   -1    0    0    0    0 -0.00000000000E+00 -0.00000000000E+00 -0.45593999997E+02  0.45594000000E+02  0.51100000000E-03 0. -1.
    9900012    2    1    2    0    0 -0.42638225013E+02 -0.77828876899E+01 -0.22432726769E+01  0.47787264461E+02  0.19999969983E+02 0.  0.
         12    1    1    2    0    0  0.42638225013E+02  0.77828876899E+01  0.22432726769E+01  0.43400735539E+02  0.00000000000E+00 0. -1.
         11    1    3    3    0    0 -0.18608418522E+02 -0.18384165549E+01 -0.76976654438E+01  0.20221450711E+02  0.51100000000E-03 0. -1.
        -11    1    3    3    0    0 -0.24094504771E+02 -0.46255000052E+01  0.70186685872E+01  0.25518662180E+02  0.51100000000E-03 0.  1.
         12    1    3    3    0    0  0.64698279845E-01 -0.13189711298E+01 -0.15642758204E+01  0.20471515701E+01  0.00000000000E+00 0. -1.
</event>
<event>
 7    1  0.2812635E-010  0.4778727E+02  0.7816164E-02  0.1312668E+00
        -11   -1    0    0    0    0  0.00000000000E+00  0.00000000000E+00  0.45593999997E+02  0.45594000000E+02  0.51100000000E-03 0.  1.
         11   -1    0    0    0    0 -0.00000000000E+00 -0.00000000000E+00 -0.45593999997E+02  0.45594000000E+02  0.51100000000E-03 0. -1.
    9900012    2    1    2    0    0 -0.39636080190E+02  0.15812826626E+02 -0.79094242156E+01  0.47787270396E+02  0.19999997045E+02 0.  0.
         12    1    1    2    0    0  0.39636080190E+02 -0.15812826626E+02  0.79094242156E+01  0.43400729604E+02  0.00000000000E+00 0. -1.
         11    1    3    3    0    0 -0.71135802481E+01 -0.93327275808E+00 -0.59228375381E+01  0.93034416616E+01  0.51100000000E-03 0. -1.
        -11    1    3    3    0    0 -0.23075459830E+02  0.17387773149E+02 -0.48841675272E+00  0.28897232613E+02  0.51100000000E-03 0.  1.
        -12    1    3    3    0    0 -0.94470401113E+01 -0.64167376556E+00 -0.14981699248E+01  0.95865961222E+01  0.00000000000E+00 0.  1.
</event>
<event>
 7    1  0.2812635E-010  0.4778727E+02  0.7816164E-02  0.1312668E+00
        -11   -1    0    0    0    0  0.00000000000E+00  0.00000000000E+00  0.45593999997E+02  0.45594000000E+02  0.51100000000E-03 0.  1.
         11   -1    0    0    0    0 -0.00000000000E+00 -0.00000000000E+00 -0.45593999997E+02  0.45594000000E+02  0.51100000000E-03 0. -1.
    9900012    2    1    2    0    0 -0.19118767375E+02 -0.38406472507E+02  0.65604015953E+01  0.47787271141E+02  0.20000000441E+02 0.  0.
         12    1    1    2    0    0  0.19118767375E+02  0.38406472507E+02 -0.65604015953E+01  0.43400728859E+02  0.00000000000E+00 0. -1.
         11    1    3    3    0    0 -0.31652273400E+01 -0.78270087491E+01 -0.57338129003E+01  0.10205750375E+02  0.51100000000E-03 0. -1.
        -11    1    3    3    0    0 -0.83635400388E+01 -0.11743267158E+02  0.90337059482E+01  0.17013552508E+02  0.51100000000E-03 0.  1.
         12    1    3    3    0    0 -0.75899999964E+01 -0.18836196600E+02  0.32605085473E+01  0.20567968259E+02  0.00000000000E+00 0. -1.
</event>
<event>
 7    1  0.2812635E-010  0.4778727E+02  0.7816164E-02  0.1312668E+00
        -11   -1    0    0    0    0  0.00000000000E+00  0.00000000000E+00  0.45593999997E+02  0.45594000000E+02  0.51100000000E-03 0.  1.
         11   -1    0    0    0    0 -0.00000000000E+00 -0.00000000000E+00 -0.45593999997E+02  0.45594000000E+02  0.51100000000E-03 0. -1.
    9900012    2    1    2    0    0  0.26157175121E+02  0.34132830069E+02 -0.58630350290E+01  0.47787273294E+02  0.20000010256E+02 0.  0.
         12    1    1    2    0    0 -0.26157175121E+02 -0.34132830069E+02  0.58630350290E+01  0.43400726706E+02  0.00000000000E+00 0. -1.
         11    1    3    3    0    0  0.11002723008E+02  0.30415745591E+01  0.21392154691E+01  0.11614100588E+02  0.51100000000E-03 0.  1.
        -11    1    3    3    0    0  0.24886850644E+01  0.22600516387E+01  0.83916512909E+00  0.34649076661E+01  0.51100000000E-03 0. -1.
         12    1    3    3    0    0  0.12665767049E+02  0.28831203872E+02 -0.88414156271E+01  0.32708265040E+02  0.00000000000E+00 0. -1.
</event>
<event>
 7    1  0.2812635E-010  0.4778727E+02  0.7816164E-02  0.1312668E+00
        -11   -1    0    0    0    0  0.00000000000E+00  0.00000000000E+00  0.45593999997E+02  0.45594000000E+02  0.51100000000E-03 0. -1.
         11   -1    0    0    0    0 -0.00000000000E+00 -0.00000000000E+00 -0.45593999997E+02  0.45594000000E+02  0.51100000000E-03 0.  1.
    9900012    2    1    2    0    0 -0.28452375221E+00  0.40908925733E+02 -0.14491441181E+02  0.47787273901E+02  0.20000013025E+02 0.  0.
         12    1    1    2    0    0  0.28452375221E+00 -0.40908925733E+02  0.14491441181E+02  0.43400726099E+02  0.00000000000E+00 0. -1.
         11    1    3    3    0    0 -0.25078996536E+01  0.24714859352E+02 -0.15584160037E+02  0.29325413514E+02  0.51100000000E-03 0. -1.
        -11    1    3    3    0    0 -0.11265454537E+01  0.97342992252E+01 -0.28239158240E+01  0.10198048191E+02  0.51100000000E-03 0.  1.
         12    1    3    3    0    0  0.33499213551E+01  0.64597671563E+01  0.39166346801E+01  0.82638121963E+01  0.00000000000E+00 0. -1.
</event>
<event>
 7    1  0.2812635E-010  0.4778728E+02  0.7816164E-02  0.1312668E+00
        -11   -1    0    0    0    0  0.00000000000E+00  0.00000000000E+00  0.45593999997E+02  0.45594000000E+02  0.51100000000E-03 0. -1.
         11   -1    0    0    0    0 -0.00000000000E+00 -0.00000000000E+00 -0.45593999997E+02  0.45594000000E+02  0.51100000000E-03 0.  1.
    9900012    2    1    2    0    0 -0.13486858626E+00 -0.24501422058E+02 -0.35822957601E+02  0.47787283834E+02  0.20000058314E+02 0.  0.
         12    1    1    2    0    0  0.13486858626E+00  0.24501422058E+02  0.35822957601E+02  0.43400716166E+02  0.00000000000E+00 0. -1.
         11    1    3    3    0    0  0.69467947421E+01 -0.11919602603E+02 -0.23039582378E+02  0.26854370963E+02  0.51100000000E-03 0. -1.
        -11    1    3    3    0    0 -0.65614612102E+01 -0.43494721769E+01 -0.86861569914E+01  0.11722627904E+02  0.51100000000E-03 0.  1.
        -12    1    3    3    0    0 -0.52020211817E+00 -0.82323472777E+01 -0.40972182317E+01  0.92102849675E+01  0.00000000000E+00 0.  1.
</event>
<event>
 7    1  0.2812635E-010  0.4778727E+02  0.7816164E-02  0.1312668E+00
        -11   -1    0    0    0    0  0.00000000000E+00  0.00000000000E+00  0.45593999997E+02  0.45594000000E+02  0.51100000000E-03 0. -1.
         11   -1    0    0    0    0 -0.00000000000E+00 -0.00000000000E+00 -0.45593999997E+02  0.45594000000E+02  0.51100000000E-03 0.  1.
    9900012    2    1    2    0    0 -0.12417061718E+02  0.67666848738E+01 -0.41032324731E+02  0.47787272832E+02  0.20000008151E+02 0.  0.
         12    1    1    2    0    0  0.12417061718E+02 -0.67666848738E+01  0.41032324731E+02  0.43400727168E+02  0.00000000000E+00 0. -1.
         11    1    3    3    0    0 -0.38657040533E+01  0.72641006818E+01 -0.82476613444E+01  0.11650525501E+02  0.51100000000E-03 0. -1.
        -11    1    3    3    0    0 -0.10561641302E+00 -0.28327433591E+01 -0.22268881380E+02  0.22448578305E+02  0.51100000000E-03 0.  1.
        -12    1    3    3    0    0 -0.84457412516E+01  0.23353275511E+01 -0.10515782007E+02  0.13688169026E+02  0.00000000000E+00 0.  1.
</event>
<event>
 7    1  0.2812635E-010  0.4778726E+02  0.7816164E-02  0.1312668E+00
        -11   -1    0    0    0    0  0.00000000000E+00  0.00000000000E+00  0.45593999997E+02  0.45594000000E+02  0.51100000000E-03 0.  1.
         11   -1    0    0    0    0 -0.00000000000E+00 -0.00000000000E+00 -0.45593999997E+02  0.45594000000E+02  0.51100000000E-03 0. -1.
    9900012    2    1    2    0    0  0.38384768444E+02  0.12532280194E+02  0.15911494763E+02  0.47787260825E+02  0.19999953405E+02 0.  0.
         12    1    1    2    0    0 -0.38384768444E+02 -0.12532280194E+02 -0.15911494763E+02  0.43400739175E+02  0.00000000000E+00 0. -1.
         11    1    3    3    0    0 -0.10702050077E+01 -0.22289063240E+00 -0.34280459659E+00  0.11456588694E+01  0.51100000000E-03 0. -1.
        -11    1    3    3    0    0  0.26685147354E+02  0.15033540598E+02  0.98362085482E+01  0.32169168952E+02  0.51100000000E-03 0.  1.
        -12    1    3    3    0    0  0.12769826098E+02 -0.22783697711E+01  0.64180908115E+01  0.14472433004E+02  0.00000000000E+00 0.  1.
</event>
<event>
 7    1  0.2812635E-010  0.4778728E+02  0.7816164E-02  0.1312668E+00
        -11   -1    0    0    0    0  0.00000000000E+00  0.00000000000E+00  0.45593999997E+02  0.45594000000E+02  0.51100000000E-03 0.  1.
         11   -1    0    0    0    0 -0.00000000000E+00 -0.00000000000E+00 -0.45593999997E+02  0.45594000000E+02  0.51100000000E-03 0. -1.
    9900012    2    1    2    0    0 -0.59151179796E+01  0.37395995327E+02  0.21217296384E+02  0.47787277045E+02  0.20000027357E+02 0.  0.
         12    1    1    2    0    0  0.59151179796E+01 -0.37395995327E+02 -0.21217296384E+02  0.43400722955E+02  0.00000000000E+00 0. -1.
         11    1    3    3    0    0  0.14154081849E+01  0.22402009688E+02  0.43875734166E+01  0.22871471731E+02  0.51100000000E-03 0. -1.
        -11    1    3    3    0    0 -0.94648266892E+00  0.55122254332E+01  0.14944529072E+01  0.57891146492E+01  0.51100000000E-03 0.  1.
         12    1    3    3    0    0 -0.63840434956E+01  0.94817602060E+01  0.15335270060E+02  0.19126690664E+02  0.00000000000E+00 0. -1.
</event>
<event>
 7    1  0.2812635E-010  0.4778727E+02  0.7816164E-02  0.1312668E+00
        -11   -1    0    0    0    0  0.00000000000E+00  0.00000000000E+00  0.45593999997E+02  0.45594000000E+02  0.51100000000E-03 0.  1.
         11   -1    0    0    0    0 -0.00000000000E+00 -0.00000000000E+00 -0.45593999997E+02  0.45594000000E+02  0.51100000000E-03 0. -1.
    9900012    2    1    2    0    0 -0.22826921643E+02 -0.23249003784E+02  0.28671223448E+02  0.47787267487E+02  0.19999983782E+02 0.  0.
         12    1    1    2    0    0  0.22826921643E+02  0.23249003784E+02 -0.28671223448E+02  0.43400732513E+02  0.00000000000E+00 0. -1.
         11    1    3    3    0    0 -0.16626686412E+02 -0.97632336059E+01  0.23351575028E+02  0.30283056121E+02  0.51100000000E-03 0. -1.
        -11    1    3    3    0    0 -0.35000195434E+01 -0.74886351317E+01  0.68684226897E+01  0.10747326339E+02  0.51100000000E-03 0.  1.
         12    1    3    3    0    0 -0.27002156880E+01 -0.59971350464E+01 -0.15487742701E+01  0.67568850268E+01  0.00000000000E+00 0. -1.
</event>
<event>
 7    1  0.2812635E-010  0.4778726E+02  0.7816164E-02  0.1312668E+00
        -11   -1    0    0    0    0  0.00000000000E+00  0.00000000000E+00  0.45593999997E+02  0.45594000000E+02  0.51100000000E-03 0. -1.
         11   -1    0    0    0    0 -0.00000000000E+00 -0.00000000000E+00 -0.45593999997E+02  0.45594000000E+02  0.51100000000E-03 0.  1.
    9900012    2    1    2    0    0 -0.17801290131E+02  0.38128775747E+02 -0.10627073359E+02  0.47787260853E+02  0.19999953534E+02 0.  0.
         12    1    1    2    0    0  0.17801290131E+02 -0.38128775747E+02  0.10627073359E+02  0.43400739147E+02  0.00000000000E+00 0. -1.
         11    1    3    3    0    0 -0.69638378316E+01  0.23732903639E+01  0.30215468576E+01  0.79534451762E+01  0.51100000000E-03 0. -1.
        -11    1    3    3    0    0 -0.67841267708E+01  0.23589518567E+02 -0.99696540403E+01  0.26493088989E+02  0.51100000000E-03 0.  1.
         12    1    3    3    0    0 -0.40533255284E+01  0.12165966817E+02 -0.36789661763E+01  0.13340726688E+02  0.00000000000E+00 0. -1.
</event>
<event>
 7    1  0.2812635E-010  0.4778727E+02  0.7816164E-02  0.1312668E+00
        -11   -1    0    0    0    0  0.00000000000E+00  0.00000000000E+00  0.45593999997E+02  0.45594000000E+02  0.51100000000E-03 0.  1.
         11   -1    0    0    0    0 -0.00000000000E+00 -0.00000000000E+00 -0.45593999997E+02  0.45594000000E+02  0.51100000000E-03 0. -1.
    9900012    2    1    2    0    0  0.25873074696E+02 -0.33343185175E+02  0.10121224091E+02  0.47787272254E+02  0.20000005513E+02 0.  0.
         12    1    1    2    0    0 -0.25873074696E+02  0.33343185175E+02 -0.10121224091E+02  0.43400727746E+02  0.00000000000E+00 0. -1.
         11    1    3    3    0    0  0.59203301681E+01 -0.57876906095E+01 -0.32322416502E+01  0.88879164170E+01  0.51100000000E-03 0. -1.
        -11    1    3    3    0    0  0.17506611452E+02 -0.19402364301E+02  0.15139796871E+02  0.30201765421E+02  0.51100000000E-03 0.  1.
        -12    1    3    3    0    0  0.24461330759E+01 -0.81531302644E+01 -0.17863311298E+01  0.86975904156E+01  0.00000000000E+00 0.  1.
</event>
<event>
 7    1  0.2812635E-010  0.4778727E+02  0.7816164E-02  0.1312668E+00
        -11   -1    0    0    0    0  0.00000000000E+00  0.00000000000E+00  0.45593999997E+02  0.45594000000E+02  0.51100000000E-03 0. -1.
         11   -1    0    0    0    0 -0.00000000000E+00 -0.00000000000E+00 -0.45593999997E+02  0.45594000000E+02  0.51100000000E-03 0.  1.
    9900012    2    1    2    0    0  0.15194680755E+01 -0.38125577578E+02 -0.20682238121E+02  0.47787269331E+02  0.19999992186E+02 0.  0.
         12    1    1    2    0    0 -0.15194680755E+01  0.38125577578E+02  0.20682238121E+02  0.43400730669E+02  0.00000000000E+00 0. -1.
         11    1    3    3    0    0  0.11233971520E+01 -0.22271127701E+01 -0.49262204129E+01  0.55217479361E+01  0.51100000000E-03 0. -1.
        -11    1    3    3    0    0 -0.25000801437E+01 -0.36216307179E+02 -0.14718427245E+02  0.39172738062E+02  0.51100000000E-03 0.  1.
        -12    1    3    3    0    0  0.28961510672E+01  0.31784237057E+00 -0.10375904631E+01  0.30927833331E+01  0.00000000000E+00 0.  1.
</event>
<event>
 7    1  0.2812635E-010  0.4778727E+02  0.7816164E-02  0.1312668E+00
        -11   -1    0    0    0    0  0.00000000000E+00  0.00000000000E+00  0.45593999997E+02  0.45594000000E+02  0.51100000000E-03 0.  1.
         11   -1    0    0    0    0 -0.00000000000E+00 -0.00000000000E+00 -0.45593999997E+02  0.45594000000E+02  0.51100000000E-03 0. -1.
    9900012    2    1    2    0    0  0.16382620211E+02  0.14537941565E+02  0.37468402563E+02  0.47787272120E+02  0.20000004903E+02 0.  0.
         12    1    1    2    0    0 -0.16382620211E+02 -0.14537941565E+02 -0.37468402563E+02  0.43400727880E+02  0.00000000000E+00 0. -1.
         11    1    3    3    0    0  0.12255003672E+02 -0.16707393996E+01  0.14390622308E+02  0.18975418199E+02  0.51100000000E-03 0. -1.
        -11    1    3    3    0    0  0.41116863459E+01  0.12879720319E+02  0.20687203900E+02  0.24713428851E+02  0.51100000000E-03 0.  1.
         12    1    3    3    0    0  0.15930192856E-01  0.33289606451E+01  0.23905763545E+01  0.40984250700E+01  0.00000000000E+00 0. -1.
</event>
<event>
 7    1  0.2812635E-010  0.4778727E+02  0.7816164E-02  0.1312668E+00
        -11   -1    0    0    0    0  0.00000000000E+00  0.00000000000E+00  0.45593999997E+02  0.45594000000E+02  0.51100000000E-03 0.  1.
         11   -1    0    0    0    0 -0.00000000000E+00 -0.00000000000E+00 -0.45593999997E+02  0.45594000000E+02  0.51100000000E-03 0. -1.
    9900012    2    1    2    0    0 -0.35534770160E+02  0.13998125618E+02  0.20614462937E+02  0.47787268516E+02  0.19999988473E+02 0.  0.
         12    1    1    2    0    0  0.35534770160E+02 -0.13998125618E+02 -0.20614462937E+02  0.43400731484E+02  0.00000000000E+00 0. -1.
         11    1    3    3    0    0 -0.74165776012E+01  0.11368751890E+01 -0.17216421146E+01  0.76981920177E+01  0.51100000000E-03 0. -1.
        -11    1    3    3    0    0 -0.17686793664E+02  0.14282568631E+02  0.14483864796E+02  0.26955459123E+02  0.51100000000E-03 0.  1.
        -12    1    3    3    0    0 -0.10431398895E+02 -0.14213182028E+01  0.78522402560E+01  0.13133617376E+02  0.00000000000E+00 0.  1.
</event>
<event>
 7    1  0.2812635E-010  0.4778727E+02  0.7816164E-02  0.1312668E+00
        -11   -1    0    0    0    0  0.00000000000E+00  0.00000000000E+00  0.45593999997E+02  0.45594000000E+02  0.51100000000E-03 0.  1.
         11   -1    0    0    0    0 -0.00000000000E+00 -0.00000000000E+00 -0.45593999997E+02  0.45594000000E+02  0.51100000000E-03 0. -1.
    9900012    2    1    2    0    0 -0.23177745166E+02 -0.13389337545E+02  0.34163444597E+02  0.47787272153E+02  0.20000005057E+02 0.  0.
         12    1    1    2    0    0  0.23177745166E+02  0.13389337545E+02 -0.34163444597E+02  0.43400727847E+02  0.00000000000E+00 0. -1.
         11    1    3    3    0    0 -0.65208151338E+01  0.28991376474E+01  0.37698048642E+01  0.80707780345E+01  0.51100000000E-03 0. -1.
        -11    1    3    3    0    0 -0.15412317268E+02 -0.12234544516E+02  0.29372030954E+02  0.35354487773E+02  0.51100000000E-03 0.  1.
         12    1    3    3    0    0 -0.12446127648E+01 -0.40539306770E+01  0.10216087789E+01  0.43620063463E+01  0.00000000000E+00 0. -1.
</event>
<event>
 7    1  0.2812635E-010  0.4778727E+02  0.7816164E-02  0.1312668E+00
        -11   -1    0    0    0    0  0.00000000000E+00  0.00000000000E+00  0.45593999997E+02  0.45594000000E+02  0.51100000000E-03 0.  1.
         11   -1    0    0    0    0 -0.00000000000E+00 -0.00000000000E+00 -0.45593999997E+02  0.45594000000E+02  0.51100000000E-03 0. -1.
    9900012    2    1    2    0    0 -0.26871859745E+02  0.57227858348E+01  0.33597265977E+02  0.47787269534E+02  0.19999993111E+02 0.  0.
         12    1    1    2    0    0  0.26871859745E+02 -0.57227858348E+01 -0.33597265977E+02  0.43400730466E+02  0.00000000000E+00 0. -1.
         11    1    3    3    0    0 -0.15077107314E+02  0.40259766882E+01  0.15428463572E+02  0.21944592539E+02  0.51100000000E-03 0. -1.
        -11    1    3    3    0    0 -0.40543266916E+01  0.14424182445E+01  0.17553933340E+02  0.18073702202E+02  0.51100000000E-03 0.  1.
        -12    1    3    3    0    0 -0.77404257400E+01  0.25439090212E+00  0.61486906540E+00  0.77689747931E+01  0.00000000000E+00 0.  1.
</event>
<event>
 7    1  0.2812635E-010  0.4778728E+02  0.7816164E-02  0.1312668E+00
        -11   -1    0    0    0    0  0.00000000000E+00  0.00000000000E+00  0.45593999997E+02  0.45594000000E+02  0.51100000000E-03 0. -1.
         11   -1    0    0    0    0 -0.00000000000E+00 -0.00000000000E+00 -0.45593999997E+02  0.45594000000E+02  0.51100000000E-03 0.  1.
    9900012    2    1    2    0    0 -0.16169140232E+02 -0.39507217251E+02 -0.78333387241E+01  0.47787279887E+02  0.20000040316E+02 0.  0.
         12    1    1    2    0    0  0.16169140232E+02  0.39507217251E+02  0.78333387241E+01  0.43400720113E+02  0.00000000000E+00 0. -1.
         11    1    3    3    0    0  0.95443908407E+00 -0.13019543254E+02 -0.83865350209E+00  0.13081391381E+02  0.51100000000E-03 0. -1.
        -11    1    3    3    0    0 -0.17916579041E+02 -0.20399214477E+02 -0.28529264220E+01  0.27299651010E+02  0.51100000000E-03 0.  1.
         12    1    3    3    0    0  0.79299972492E+00 -0.60884595202E+01 -0.41417588000E+01  0.74062374962E+01  0.00000000000E+00 0. -1.
</event>
<event>
 7    1  0.2812635E-010  0.4778727E+02  0.7816164E-02  0.1312668E+00
        -11   -1    0    0    0    0  0.00000000000E+00  0.00000000000E+00  0.45593999997E+02  0.45594000000E+02  0.51100000000E-03 0.  1.
         11   -1    0    0    0    0 -0.00000000000E+00 -0.00000000000E+00 -0.45593999997E+02  0.45594000000E+02  0.51100000000E-03 0. -1.
    9900012    2    1    2    0    0 -0.95176378628E+01 -0.26867105589E+02  0.32729136402E+02  0.47787272324E+02  0.20000005832E+02 0.  0.
         12    1    1    2    0    0  0.95176378628E+01  0.26867105589E+02 -0.32729136402E+02  0.43400727676E+02  0.00000000000E+00 0. -1.
         11    1    3    3    0    0 -0.79663087989E-01 -0.19134385353E+00 -0.99657145703E+00  0.10178966588E+01  0.51100000000E-03 0. -1.
        -11    1    3    3    0    0 -0.77779202821E+01 -0.10345781889E+02  0.53858214045E+01  0.14019212506E+02  0.51100000000E-03 0.  1.
        -12    1    3    3    0    0 -0.16600544928E+01 -0.16329979846E+02  0.28339886455E+02  0.32750163159E+02  0.00000000000E+00 0.  1.
</event>
<event>
 7    1  0.2812635E-010  0.4778727E+02  0.7816164E-02  0.1312668E+00
        -11   -1    0    0    0    0  0.00000000000E+00  0.00000000000E+00  0.45593999997E+02  0.45594000000E+02  0.51100000000E-03 0.  1.
         11   -1    0    0    0    0 -0.00000000000E+00 -0.00000000000E+00 -0.45593999997E+02  0.45594000000E+02  0.51100000000E-03 0. -1.
    9900012    2    1    2    0    0  0.41180716168E+02  0.98656391841E+01  0.95100395818E+01  0.47787273353E+02  0.20000010527E+02 0.  0.
         12    1    1    2    0    0 -0.41180716168E+02 -0.98656391841E+01 -0.95100395818E+01  0.43400726647E+02  0.00000000000E+00 0. -1.
         11    1    3    3    0    0 -0.75254827413E+00 -0.13310759953E+01  0.32294197532E+01  0.35731280993E+01  0.51100000000E-03 0. -1.
        -11    1    3    3    0    0  0.19392250324E+02  0.80876390483E+01  0.30819531869E+01  0.21236000417E+02  0.51100000000E-03 0.  1.
         12    1    3    3    0    0  0.22541014118E+02  0.31090761312E+01  0.31986666416E+01  0.22978144837E+02  0.00000000000E+00 0. -1.
</event>
<event>
 7    1  0.2812635E-010  0.4778733E+02  0.7816164E-02  0.1312667E+00
        -11   -1    0    0    0    0  0.00000000000E+00  0.00000000000E+00  0.45593999997E+02  0.45594000000E+02  0.51100000000E-03 0.  1.
         11   -1    0    0    0    0 -0.00000000000E+00 -0.00000000000E+00 -0.45593999997E+02  0.45594000000E+02  0.51100000000E-03 0. -1.
    9900012    2    1    2    0    0 -0.41642127026E+01  0.42428977897E+02  0.81276640933E+01  0.47787334609E+02  0.20000289813E+02 0.  0.
         12    1    1    2    0    0  0.41642127026E+01 -0.42428977897E+02 -0.81276640933E+01  0.43400665391E+02  0.00000000000E+00 0. -1.
         11    1    3    3    0    0  0.63994858968E+00 -0.87753011399E+00 -0.12967446838E+01  0.16914905659E+01  0.51100000000E-03 0. -1.
        -11    1    3    3    0    0 -0.53936716641E+01  0.33191528740E+02  0.22917549743E+01  0.33704916782E+02  0.51100000000E-03 0.  1.
         12    1    3    3    0    0  0.58951037184E+00  0.10114979270E+02  0.71326538027E+01  0.12390927261E+02  0.00000000000E+00 0. -1.
</event>
<event>
 7    1  0.2812635E-010  0.4778729E+02  0.7816164E-02  0.1312668E+00
        -11   -1    0    0    0    0  0.00000000000E+00  0.00000000000E+00  0.45593999997E+02  0.45594000000E+02  0.51100000000E-03 0.  1.
         11   -1    0    0    0    0 -0.00000000000E+00 -0.00000000000E+00 -0.45593999997E+02  0.45594000000E+02  0.51100000000E-03 0. -1.
    9900012    2    1    2    0    0  0.20823176645E+02 -0.21916603041E+02  0.31139675756E+02  0.47787290551E+02  0.20000088939E+02 0.  0.
         12    1    1    2    0    0 -0.20823176645E+02  0.21916603041E+02 -0.31139675756E+02  0.43400709449E+02  0.00000000000E+00 0. -1.
         11    1    3    3    0    0  0.14388929031E+02 -0.97828952547E+01  0.23891485820E+02  0.29555869352E+02  0.51100000000E-03 0.  1.
        -11    1    3    3    0    0  0.84844756896E+01 -0.86429065008E+01  0.32462469455E+01  0.12538910639E+02  0.51100000000E-03 0. -1.
        -12    1    3    3    0    0 -0.20502280754E+01 -0.34908012859E+01  0.40019429908E+01  0.56925105604E+01  0.00000000000E+00 0.  1.
</event>
<event>
 7    1  0.2812635E-010  0.4778727E+02  0.7816164E-02  0.1312668E+00
        -11   -1    0    0    0    0  0.00000000000E+00  0.00000000000E+00  0.45593999997E+02  0.45594000000E+02  0.51100000000E-03 0.  1.
         11   -1    0    0    0    0 -0.00000000000E+00 -0.00000000000E+00 -0.45593999997E+02  0.45594000000E+02  0.51100000000E-03 0. -1.
    9900012    2    1    2    0    0  0.77214129068E+01  0.22071353025E+02  0.36563078340E+02  0.47787267987E+02  0.19999986058E+02 0.  0.
         12    1    1    2    0    0 -0.77214129068E+01 -0.22071353025E+02 -0.36563078340E+02  0.43400732013E+02  0.00000000000E+00 0. -1.
         11    1    3    3    0    0 -0.11640780575E+01  0.77512169270E+01  0.22885024779E+02  0.24190097167E+02  0.51100000000E-03 0.  1.
        -11    1    3    3    0    0  0.80526649813E+01  0.74932290279E+01  0.39582292782E+01  0.11690229846E+02  0.51100000000E-03 0. -1.
        -12    1    3    3    0    0  0.83282598307E+00  0.68269070698E+01  0.97198242828E+01  0.11906940973E+02  0.00000000000E+00 0.  1.
</event>
<event>
 7    1  0.2812635E-010  0.4778727E+02  0.7816164E-02  0.1312668E+00
        -11   -1    0    0    0    0  0.00000000000E+00  0.00000000000E+00  0.45593999997E+02  0.45594000000E+02  0.51100000000E-03 0.  1.
         11   -1    0    0    0    0 -0.00000000000E+00 -0.00000000000E+00 -0.45593999997E+02  0.45594000000E+02  0.51100000000E-03 0. -1.
    9900012    2    1    2    0    0 -0.77666151843E+01 -0.23873813488E+02  0.35402599838E+02  0.47787270085E+02  0.19999995625E+02 0.  0.
         12    1    1    2    0    0  0.77666151843E+01  0.23873813488E+02 -0.35402599838E+02  0.43400729915E+02  0.00000000000E+00 0. -1.
         11    1    3    3    0    0 -0.34039915687E+01 -0.15020242008E+02  0.25388732045E+02  0.29694823517E+02  0.51100000000E-03 0. -1.
        -11    1    3    3    0    0  0.31951422939E+01 -0.31359327636E+01  0.66895667777E+01  0.80494293282E+01  0.51100000000E-03 0.  1.
         12    1    3    3    0    0 -0.75577659094E+01 -0.57176387169E+01  0.33243010144E+01  0.10043017240E+02  0.00000000000E+00 0. -1.
</event>
<event>
 7    1  0.2812635E-010  0.4778727E+02  0.7816164E-02  0.1312668E+00
        -11   -1    0    0    0    0  0.00000000000E+00  0.00000000000E+00  0.45593999997E+02  0.45594000000E+02  0.51100000000E-03 0.  1.
         11   -1    0    0    0    0 -0.00000000000E+00 -0.00000000000E+00 -0.45593999997E+02  0.45594000000E+02  0.51100000000E-03 0. -1.
    9900012    2    1    2    0    0  0.28497547676E+02 -0.11432840867E+02  0.30672512166E+02  0.47787273319E+02  0.20000010371E+02 0.  0.
         12    1    1    2    0    0 -0.28497547676E+02  0.11432840867E+02 -0.30672512166E+02  0.43400726681E+02  0.00000000000E+00 0. -1.
         11    1    3    3    0    0  0.11242143443E+02  0.49004753037E+01  0.11787438612E+02  0.17010119244E+02  0.51100000000E-03 0. -1.
        -11    1    3    3    0    0  0.74403895336E+01 -0.10222553273E+02  0.84918581179E+01  0.15230615430E+02  0.51100000000E-03 0.  1.
         12    1    3    3    0    0  0.98150146988E+01 -0.61107628981E+01  0.10393215437E+02  0.15546538645E+02  0.00000000000E+00 0. -1.
</event>
<event>
 7    1  0.2812635E-010  0.4778727E+02  0.7816164E-02  0.1312668E+00
        -11   -1    0    0    0    0  0.00000000000E+00  0.00000000000E+00  0.45593999997E+02  0.45594000000E+02  0.51100000000E-03 0.  1.
         11   -1    0    0    0    0 -0.00000000000E+00 -0.00000000000E+00 -0.45593999997E+02  0.45594000000E+02  0.51100000000E-03 0. -1.
    9900012    2    1    2    0    0  0.48913642709E+01  0.41012929754E+02  0.13328075774E+02  0.47787268954E+02  0.19999990470E+02 0.  0.
         12    1    1    2    0    0 -0.48913642709E+01 -0.41012929754E+02 -0.13328075774E+02  0.43400731046E+02  0.00000000000E+00 0. -1.
         11    1    3    3    0    0  0.17973778793E+01  0.40490627089E+01  0.73898977398E+01  0.86160353369E+01  0.51100000000E-03 0. -1.
        -11    1    3    3    0    0  0.29507098816E+00  0.35604859663E+02  0.53830884319E+01  0.36010703129E+02  0.51100000000E-03 0.  1.
        -12    1    3    3    0    0  0.27989154034E+01  0.13590073823E+01  0.55508960185E+00  0.31605304882E+01  0.00000000000E+00 0.  1.
</event>
<event>
 7    1  0.2812635E-010  0.4778727E+02  0.7816164E-02  0.1312668E+00
        -11   -1    0    0    0    0  0.00000000000E+00  0.00000000000E+00  0.45593999997E+02  0.45594000000E+02  0.51100000000E-03 0. -1.
         11   -1    0    0    0    0 -0.00000000000E+00 -0.00000000000E+00 -0.45593999997E+02  0.45594000000E+02  0.51100000000E-03 0.  1.
    9900012    2    1    2    0    0 -0.28552606747E+02  0.15757123813E+02 -0.28637124307E+02  0.47787271994E+02  0.20000004328E+02 0.  0.
         12    1    1    2    0    0  0.28552606747E+02 -0.15757123813E+02  0.28637124307E+02  0.43400728006E+02  0.00000000000E+00 0. -1.
         11    1    3    3    0    0  0.14541717021E+01  0.26760411928E+01 -0.28476060233E+01  0.41694930303E+01  0.51100000000E-03 0. -1.
        -11    1    3    3    0    0 -0.24389588430E+02  0.79525417794E+01 -0.13053877413E+02  0.28783652658E+02  0.51100000000E-03 0.  1.
        -12    1    3    3    0    0 -0.56171900192E+01  0.51285408404E+01 -0.12735640871E+02  0.14834126306E+02  0.00000000000E+00 0.  1.
</event>
<event>
 7    1  0.2812635E-010  0.4778729E+02  0.7816164E-02  0.1312668E+00
        -11   -1    0    0    0    0  0.00000000000E+00  0.00000000000E+00  0.45593999997E+02  0.45594000000E+02  0.51100000000E-03 0.  1.
         11   -1    0    0    0    0 -0.00000000000E+00 -0.00000000000E+00 -0.45593999997E+02  0.45594000000E+02  0.51100000000E-03 0. -1.
    9900012    2    1    2    0    0 -0.25604882029E+02 -0.32219639411E+02 -0.13780658207E+02  0.47787289314E+02  0.20000083297E+02 0.  0.
         12    1    1    2    0    0  0.25604882029E+02  0.32219639411E+02  0.13780658207E+02  0.43400710686E+02  0.00000000000E+00 0. -1.
         11    1    3    3    0    0  0.21688198496E+01 -0.24700428721E+00 -0.87505718236E+00  0.23517049116E+01  0.51100000000E-03 0. -1.
        -11    1    3    3    0    0 -0.21994875988E+02 -0.30423168822E+02 -0.10451977264E+02  0.38969059520E+02  0.51100000000E-03 0.  1.
         12    1    3    3    0    0 -0.57788258903E+01 -0.15494663014E+01 -0.24536237610E+01  0.64665248821E+01  0.00000000000E+00 0. -1.
</event>
<event>
 7    1  0.2812635E-010  0.4778727E+02  0.7816164E-02  0.1312668E+00
        -11   -1    0    0    0    0  0.00000000000E+00  0.00000000000E+00  0.45593999997E+02  0.45594000000E+02  0.51100000000E-03 0.  1.
         11   -1    0    0    0    0 -0.00000000000E+00 -0.00000000000E+00 -0.45593999997E+02  0.45594000000E+02  0.51100000000E-03 0. -1.
    9900012    2    1    2    0    0 -0.74834752136E+01 -0.16853316414E+01  0.42717450724E+02  0.47787270278E+02  0.19999996506E+02 0.  0.
         12    1    1    2    0    0  0.74834752136E+01  0.16853316414E+01 -0.42717450724E+02  0.43400729722E+02  0.00000000000E+00 0. -1.
         11    1    3    3    0    0  0.30806096668E+01  0.45949733678E+00  0.94228574687E+01  0.99242902446E+01  0.51100000000E-03 0. -1.
        -11    1    3    3    0    0 -0.10187129781E+02 -0.64270323234E+01  0.15912745708E+02  0.19957450586E+02  0.51100000000E-03 0.  1.
        -12    1    3    3    0    0 -0.37695509943E+00  0.42822033452E+01  0.17381847548E+02  0.17905529448E+02  0.00000000000E+00 0.  1.
</event>
<event>
 7    1  0.2812635E-010  0.4778727E+02  0.7816164E-02  0.1312668E+00
        -11   -1    0    0    0    0  0.00000000000E+00  0.00000000000E+00  0.45593999997E+02  0.45594000000E+02  0.51100000000E-03 0.  1.
         11   -1    0    0    0    0 -0.00000000000E+00 -0.00000000000E+00 -0.45593999997E+02  0.45594000000E+02  0.51100000000E-03 0. -1.
    9900012    2    1    2    0    0 -0.23922259370E+02 -0.12009940245E+02  0.34162995062E+02  0.47787269711E+02  0.19999993918E+02 0.  0.
         12    1    1    2    0    0  0.23922259370E+02  0.12009940245E+02 -0.34162995062E+02  0.43400730289E+02  0.00000000000E+00 0. -1.
         11    1    3    3    0    0 -0.22858021716E+00  0.14726825372E+01 -0.90928075052E+00  0.17458048331E+01  0.51100000000E-03 0. -1.
        -11    1    3    3    0    0 -0.22708477631E+02 -0.91069642201E+01  0.33051822044E+02  0.41122192236E+02  0.51100000000E-03 0.  1.
        -12    1    3    3    0    0 -0.98520152232E+00 -0.43756585616E+01  0.20204537682E+01  0.49192726410E+01  0.00000000000E+00 0.  1.
</event>
<event>
 7    1  0.2812635E-010  0.4778727E+02  0.7816164E-02  0.1312668E+00
        -11   -1    0    0    0    0  0.00000000000E+00  0.00000000000E+00  0.45593999997E+02  0.45594000000E+02  0.51100000000E-03 0.  1.
         11   -1    0    0    0    0 -0.00000000000E+00 -0.00000000000E+00 -0.45593999997E+02  0.45594000000E+02  0.51100000000E-03 0. -1.
    9900012    2    1    2    0    0  0.30859143366E+02 -0.28747304984E+02  0.10243474973E+02  0.47787273593E+02  0.20000011621E+02 0.  0.
         12    1    1    2    0    0 -0.30859143366E+02  0.28747304984E+02 -0.10243474973E+02  0.43400726407E+02  0.00000000000E+00 0. -1.
         11    1    3    3    0    0  0.61117192344E+01 -0.78230415740E+01  0.82496695561E+01  0.12907755015E+02  0.51100000000E-03 0. -1.
        -11    1    3    3    0    0  0.18338512166E+02 -0.21598078870E+02  0.93408617720E+00  0.28348731128E+02  0.51100000000E-03 0.  1.
        -12    1    3    3    0    0  0.64089119654E+01  0.67381546007E+00  0.10597192398E+01  0.65307874503E+01  0.00000000000E+00 0.  1.
</event>
<event>
 7    1  0.2812635E-010  0.4778727E+02  0.7816164E-02  0.1312668E+00
        -11   -1    0    0    0    0  0.00000000000E+00  0.00000000000E+00  0.45593999997E+02  0.45594000000E+02  0.51100000000E-03 0.  1.
         11   -1    0    0    0    0 -0.00000000000E+00 -0.00000000000E+00 -0.45593999997E+02  0.45594000000E+02  0.51100000000E-03 0. -1.
    9900012    2    1    2    0    0 -0.13610660153E+02 -0.22647227012E+02  0.34430742547E+02  0.47787274274E+02  0.20000014727E+02 0.  0.
         12    1    1    2    0    0  0.13610660153E+02  0.22647227012E+02 -0.34430742547E+02  0.43400725726E+02  0.00000000000E+00 0. -1.
         11    1    3    3    0    0  0.43819841389E+00 -0.24741527165E+01  0.47057999224E+01  0.53346042670E+01  0.51100000000E-03 0. -1.
        -11    1    3    3    0    0 -0.12816630930E+02 -0.23191676136E+02  0.28637417557E+02  0.39015657818E+02  0.51100000000E-03 0.  1.
        -12    1    3    3    0    0 -0.12322276366E+01  0.30186018399E+01  0.10875250675E+01  0.34370121892E+01  0.00000000000E+00 0.  1.
</event>
<event>
 7    1  0.2812635E-010  0.4778725E+02  0.7816164E-02  0.1312668E+00
        -11   -1    0    0    0    0  0.00000000000E+00  0.00000000000E+00  0.45593999997E+02  0.45594000000E+02  0.51100000000E-03 0.  1.
         11   -1    0    0    0    0 -0.00000000000E+00 -0.00000000000E+00 -0.45593999997E+02  0.45594000000E+02  0.51100000000E-03 0. -1.
    9900012    2    1    2    0    0  0.14656733422E+02  0.12038405750E+02  0.39036927918E+02  0.47787253591E+02  0.19999920421E+02 0.  0.
         12    1    1    2    0    0 -0.14656733422E+02 -0.12038405750E+02 -0.39036927918E+02  0.43400746409E+02  0.00000000000E+00 0. -1.
         11    1    3    3    0    0  0.10107442897E+02  0.89683647704E+01  0.31935258809E+02  0.34676400102E+02  0.51100000000E-03 0. -1.
        -11    1    3    3    0    0  0.55545386142E+01  0.20997975698E+01  0.89825102627E+01  0.10767893941E+02  0.51100000000E-03 0.  1.
         12    1    3    3    0    0 -0.10052480893E+01  0.97024341003E+00 -0.18808411537E+01  0.23429595475E+01  0.00000000000E+00 0. -1.
</event>
<event>
 7    1  0.2812635E-010  0.4778727E+02  0.7816164E-02  0.1312668E+00
        -11   -1    0    0    0    0  0.00000000000E+00  0.00000000000E+00  0.45593999997E+02  0.45594000000E+02  0.51100000000E-03 0. -1.
         11   -1    0    0    0    0 -0.00000000000E+00 -0.00000000000E+00 -0.45593999997E+02  0.45594000000E+02  0.51100000000E-03 0.  1.
    9900012    2    1    2    0    0  0.14506513456E+02  0.35223777240E+02 -0.20795906714E+02  0.47787272451E+02  0.20000006414E+02 0.  0.
         12    1    1    2    0    0 -0.14506513456E+02 -0.35223777240E+02  0.20795906714E+02  0.43400727549E+02  0.00000000000E+00 0. -1.
         11    1    3    3    0    0  0.38005950094E+01  0.11574015934E+02 -0.94216062469E+01  0.15400293237E+02  0.51100000000E-03 0. -1.
        -11    1    3    3    0    0  0.29591215375E+01  0.20149018156E+02 -0.32402454216E+01  0.20621312363E+02  0.51100000000E-03 0.  1.
        -12    1    3    3    0    0  0.77467969094E+01  0.35007431497E+01 -0.81340550455E+01  0.11765666851E+02  0.00000000000E+00 0.  1.
</event>
<event>
 7    1  0.2812635E-010  0.4778727E+02  0.7816164E-02  0.1312668E+00
        -11   -1    0    0    0    0  0.00000000000E+00  0.00000000000E+00  0.45593999997E+02  0.45594000000E+02  0.51100000000E-03 0. -1.
         11   -1    0    0    0    0 -0.00000000000E+00 -0.00000000000E+00 -0.45593999997E+02  0.45594000000E+02  0.51100000000E-03 0.  1.
    9900012    2    1    2    0    0  0.19961485085E+01  0.16987059532E+02 -0.39888324561E+02  0.47787271473E+02  0.20000001952E+02 0.  0.
         12    1    1    2    0    0 -0.19961485085E+01 -0.16987059532E+02  0.39888324561E+02  0.43400728527E+02  0.00000000000E+00 0. -1.
         11    1    3    3    0    0  0.38472638415E+01  0.16555223576E+02 -0.24881047647E+02  0.30132099147E+02  0.51100000000E-03 0. -1.
        -11    1    3    3    0    0 -0.45904569394E+01  0.23091896949E+01 -0.12433996661E+02  0.13453955745E+02  0.51100000000E-03 0.  1.
         12    1    3    3    0    0  0.27393416064E+01 -0.18773537387E+01 -0.25732802530E+01  0.42012165806E+01  0.00000000000E+00 0. -1.
</event>
<event>
 7    1  0.2812635E-010  0.4778727E+02  0.7816164E-02  0.1312668E+00
        -11   -1    0    0    0    0  0.00000000000E+00  0.00000000000E+00  0.45593999997E+02  0.45594000000E+02  0.51100000000E-03 0.  1.
         11   -1    0    0    0    0 -0.00000000000E+00 -0.00000000000E+00 -0.45593999997E+02  0.45594000000E+02  0.51100000000E-03 0. -1.
    9900012    2    1    2    0    0 -0.98720877618E+01  0.20969922726E+02  0.36693695464E+02  0.47787273477E+02  0.20000011091E+02 0.  0.
         12    1    1    2    0    0  0.98720877618E+01 -0.20969922726E+02 -0.36693695464E+02  0.43400726523E+02  0.00000000000E+00 0. -1.
         11    1    3    3    0    0  0.15923646531E+01 -0.10692445497E+00 -0.10323660451E+01  0.19007466795E+01  0.51100000000E-03 0. -1.
        -11    1    3    3    0    0 -0.67100886072E+01  0.18615239270E+02  0.23707333301E+02  0.30880253799E+02  0.51100000000E-03 0.  1.
        -12    1    3    3    0    0 -0.47543638077E+01  0.24616079113E+01  0.14018728208E+02  0.15006272998E+02  0.00000000000E+00 0.  1.
</event>
<event>
 7    1  0.2812635E-010  0.4778728E+02  0.7816164E-02  0.1312668E+00
        -11   -1    0    0    0    0  0.00000000000E+00  0.00000000000E+00  0.45593999997E+02  0.45594000000E+02  0.51100000000E-03 0.  1.
         11   -1    0    0    0    0 -0.00000000000E+00 -0.00000000000E+00 -0.45593999997E+02  0.45594000000E+02  0.51100000000E-03 0. -1.
    9900012    2    1    2    0    0  0.12649148179E+02 -0.40320125754E+02  0.98949192628E+01  0.47787275148E+02  0.20000018709E+02 0.  0.
         12    1    1    2    0    0 -0.12649148179E+02  0.40320125754E+02 -0.98949192628E+01  0.43400724852E+02  0.00000000000E+00 0. -1.
         11    1    3    3    0    0 -0.77938010861E+00 -0.18797829274E+02  0.51105294182E+01  0.19495725941E+02  0.51100000000E-03 0.  1.
        -11    1    3    3    0    0  0.96617127415E+01 -0.12689231154E+02 -0.26239709188E+01  0.16163245467E+02  0.51100000000E-03 0. -1.
        -12    1    3    3    0    0  0.37668155461E+01 -0.88330653259E+01  0.74083607634E+01  0.12128303740E+02  0.00000000000E+00 0.  1.
</event>
<event>
 7    1  0.2812635E-010  0.4778727E+02  0.7816164E-02  0.1312668E+00
        -11   -1    0    0    0    0  0.00000000000E+00  0.00000000000E+00  0.45593999997E+02  0.45594000000E+02  0.51100000000E-03 0. -1.
         11   -1    0    0    0    0 -0.00000000000E+00 -0.00000000000E+00 -0.45593999997E+02  0.45594000000E+02  0.51100000000E-03 0.  1.
    9900012    2    1    2    0    0  0.30340613057E+02 -0.17602537028E+02 -0.25558191587E+02  0.47787271116E+02  0.20000000326E+02 0.  0.
         12    1    1    2    0    0 -0.30340613057E+02  0.17602537028E+02  0.25558191587E+02  0.43400728884E+02  0.00000000000E+00 0. -1.
         11    1    3    3    0    0  0.62225958098E+01 -0.12036013563E+02 -0.42459768389E+01  0.14199107038E+02  0.51100000000E-03 0. -1.
        -11    1    3    3    0    0  0.18467041806E+01 -0.14148437224E+01 -0.54683088264E+01  0.59426005058E+01  0.51100000000E-03 0.  1.
         12    1    3    3    0    0  0.22271313066E+02 -0.41516797425E+01 -0.15843905921E+02  0.27645563572E+02  0.00000000000E+00 0. -1.
</event>
<event>
 7    1  0.2812635E-010  0.4778728E+02  0.7816164E-02  0.1312668E+00
        -11   -1    0    0    0    0  0.00000000000E+00  0.00000000000E+00  0.45593999997E+02  0.45594000000E+02  0.51100000000E-03 0. -1.
         11   -1    0    0    0    0 -0.00000000000E+00 -0.00000000000E+00 -0.45593999997E+02  0.45594000000E+02  0.51100000000E-03 0.  1.
    9900012    2    1    2    0    0 -0.17927856453E+02  0.37358413328E+02 -0.12905937801E+02  0.47787282104E+02  0.20000050424E+02 0.  0.
         12    1    1    2    0    0  0.17927856453E+02 -0.37358413328E+02  0.12905937801E+02  0.43400717896E+02  0.00000000000E+00 0. -1.
         11    1    3    3    0    0 -0.61380930150E+00  0.10211512941E+01 -0.25090108145E+01  0.27775254009E+01  0.51100000000E-03 0. -1.
        -11    1    3    3    0    0 -0.16925077403E+02  0.15732481716E+02 -0.41692150940E+01  0.23480876917E+02  0.51100000000E-03 0.  1.
        -12    1    3    3    0    0 -0.38896974870E+00  0.20604780318E+02 -0.62277118923E+01  0.21528879786E+02  0.00000000000E+00 0.  1.
</event>
<event>
 7    1  0.2812635E-010  0.4778726E+02  0.7816164E-02  0.1312668E+00
        -11   -1    0    0    0    0  0.00000000000E+00  0.00000000000E+00  0.45593999997E+02  0.45594000000E+02  0.51100000000E-03 0.  1.
         11   -1    0    0    0    0 -0.00000000000E+00 -0.00000000000E+00 -0.45593999997E+02  0.45594000000E+02  0.51100000000E-03 0. -1.
    9900012    2    1    2    0    0  0.31527072538E+01  0.40438336523E+02  0.15441027743E+02  0.47787263122E+02  0.19999963881E+02 0.  0.
         12    1    1    2    0    0 -0.31527072538E+01 -0.40438336523E+02 -0.15441027743E+02  0.43400736878E+02  0.00000000000E+00 0. -1.
         11    1    3    3    0    0 -0.52842326489E+01  0.11152194662E+02  0.90247452588E+01  0.15288577034E+02  0.51100000000E-03 0. -1.
        -11    1    3    3    0    0  0.44161148141E+01  0.26024227273E+02  0.69438633452E+01  0.27294316508E+02  0.51100000000E-03 0.  1.
         12    1    3    3    0    0  0.40208250886E+01  0.32619145877E+01 -0.52758086100E+00  0.52043695810E+01  0.00000000000E+00 0. -1.
</event>
<event>
 7    1  0.2812635E-010  0.4778727E+02  0.7816164E-02  0.1312668E+00
        -11   -1    0    0    0    0  0.00000000000E+00  0.00000000000E+00  0.45593999997E+02  0.45594000000E+02  0.51100000000E-03 0.  1.
         11   -1    0    0    0    0 -0.00000000000E+00 -0.00000000000E+00 -0.45593999997E+02  0.45594000000E+02  0.51100000000E-03 0. -1.
    9900012    2    1    2    0    0 -0.11560177628E+02  0.10517029191E+02  0.40489235056E+02  0.47787265384E+02  0.19999974192E+02 0.  0.
         12    1    1    2    0    0  0.11560177628E+02 -0.10517029191E+02 -0.40489235056E+02  0.43400734616E+02  0.00000000000E+00 0. -1.
         11    1    3    3    0    0 -0.80778981488E+01  0.30202501220E+01  0.41454867553E+01  0.95686681414E+01  0.51100000000E-03 0. -1.
        -11    1    3    3    0    0 -0.55171673286E+01  0.44462766501E+01  0.30557371357E+02  0.31368159906E+02  0.51100000000E-03 0.  1.
         12    1    3    3    0    0  0.20348878495E+01  0.30505024189E+01  0.57863769436E+01  0.68504373365E+01  0.00000000000E+00 0. -1.
</event>
<event>
 7    1  0.2812635E-010  0.4778725E+02  0.7816164E-02  0.1312668E+00
        -11   -1    0    0    0    0  0.00000000000E+00  0.00000000000E+00  0.45593999997E+02  0.45594000000E+02  0.51100000000E-03 0. -1.
         11   -1    0    0    0    0 -0.00000000000E+00 -0.00000000000E+00 -0.45593999997E+02  0.45594000000E+02  0.51100000000E-03 0.  1.
    9900012    2    1    2    0    0  0.31305097110E+02  0.28740352412E+02 -0.88095268627E+01  0.47787254323E+02  0.19999923758E+02 0.  0.
         12    1    1    2    0    0 -0.31305097110E+02 -0.28740352412E+02  0.88095268627E+01  0.43400745677E+02  0.00000000000E+00 0. -1.
         11    1    3    3    0    0  0.13227263832E+02  0.17016355147E+02  0.28108223491E+01  0.21735169047E+02  0.51100000000E-03 0. -1.
        -11    1    3    3    0    0  0.15842528154E+02  0.66017134138E+01 -0.11098922255E+02  0.20439040922E+02  0.51100000000E-03 0.  1.
         12    1    3    3    0    0  0.22353051235E+01  0.51222838513E+01 -0.52142695722E+00  0.56130443540E+01  0.00000000000E+00 0. -1.
</event>
<event>
 7    1  0.2812635E-010  0.4778727E+02  0.7816164E-02  0.1312668E+00
        -11   -1    0    0    0    0  0.00000000000E+00  0.00000000000E+00  0.45593999997E+02  0.45594000000E+02  0.51100000000E-03 0.  1.
         11   -1    0    0    0    0 -0.00000000000E+00 -0.00000000000E+00 -0.45593999997E+02  0.45594000000E+02  0.51100000000E-03 0. -1.
    9900012    2    1    2    0    0  0.15711890852E+02 -0.27101373324E+02  0.30037898575E+02  0.47787270732E+02  0.19999998577E+02 0.  0.
         12    1    1    2    0    0 -0.15711890852E+02  0.27101373324E+02 -0.30037898575E+02  0.43400729268E+02  0.00000000000E+00 0. -1.
         11    1    3    3    0    0 -0.20698777743E+01 -0.94557287928E+00  0.90389343130E+00  0.24485762530E+01  0.51100000000E-03 0. -1.
        -11    1    3    3    0    0  0.18272482603E+02 -0.26007475585E+02  0.30394228186E+02  0.43978193620E+02  0.51100000000E-03 0.  1.
        -12    1    3    3    0    0 -0.49071397756E+00 -0.14832485996E+00 -0.12602230425E+01  0.13605008595E+01  0.00000000000E+00 0.  1.
</event>
<event>
 7    1  0.2812635E-010  0.4778727E+02  0.7816164E-02  0.1312668E+00
        -11   -1    0    0    0    0  0.00000000000E+00  0.00000000000E+00  0.45593999997E+02  0.45594000000E+02  0.51100000000E-03 0. -1.
         11   -1    0    0    0    0 -0.00000000000E+00 -0.00000000000E+00 -0.45593999997E+02  0.45594000000E+02  0.51100000000E-03 0.  1.
    9900012    2    1    2    0    0 -0.29518027385E+02 -0.23309628596E+02 -0.21655727291E+02  0.47787271314E+02  0.20000001228E+02 0.  0.
         12    1    1    2    0    0  0.29518027385E+02  0.23309628596E+02  0.21655727291E+02  0.43400728686E+02  0.00000000000E+00 0. -1.
         11    1    3    3    0    0 -0.46484050373E+01 -0.41610285361E-01 -0.46180074573E+01  0.65525105069E+01  0.51100000000E-03 0.  1.
        -11    1    3    3    0    0 -0.16055968507E+02 -0.17133776199E+02 -0.19138934420E+02  0.30292890627E+02  0.51100000000E-03 0. -1.
        -12    1    3    3    0    0 -0.88136538401E+01 -0.61342421115E+01  0.21012145859E+01  0.10941870180E+02  0.00000000000E+00 0.  1.
</event>
<event>
 7    1  0.2812635E-010  0.4778727E+02  0.7816164E-02  0.1312668E+00
        -11   -1    0    0    0    0  0.00000000000E+00  0.00000000000E+00  0.45593999997E+02  0.45594000000E+02  0.51100000000E-03 0.  1.
         11   -1    0    0    0    0 -0.00000000000E+00 -0.00000000000E+00 -0.45593999997E+02  0.45594000000E+02  0.51100000000E-03 0. -1.
    9900012    2    1    2    0    0  0.27951633927E+02  0.12317172202E+02  0.30832072206E+02  0.47787271357E+02  0.20000001426E+02 0.  0.
         12    1    1    2    0    0 -0.27951633927E+02 -0.12317172202E+02 -0.30832072206E+02  0.43400728643E+02  0.00000000000E+00 0. -1.
         11    1    3    3    0    0  0.26087409142E+01  0.69638546262E+01  0.57186214339E+01  0.93810144322E+01  0.51100000000E-03 0. -1.
        -11    1    3    3    0    0  0.24729799413E+02  0.23740842462E+01  0.25167853044E+02  0.35364107257E+02  0.51100000000E-03 0.  1.
        -12    1    3    3    0    0  0.61309360019E+00  0.29792333296E+01 -0.54402272055E-01  0.30421496679E+01  0.00000000000E+00 0.  1.
</event>
<event>
 7    1  0.2812635E-010  0.4778727E+02  0.7816164E-02  0.1312668E+00
        -11   -1    0    0    0    0  0.00000000000E+00  0.00000000000E+00  0.45593999997E+02  0.45594000000E+02  0.51100000000E-03 0. -1.
         11   -1    0    0    0    0 -0.00000000000E+00 -0.00000000000E+00 -0.45593999997E+02  0.45594000000E+02  0.51100000000E-03 0.  1.
    9900012    2    1    2    0    0 -0.33630578590E+02 -0.27041343700E+02  0.46231102137E+01  0.47787271511E+02  0.20000002126E+02 0.  0.
         12    1    1    2    0    0  0.33630578590E+02  0.27041343700E+02 -0.46231102137E+01  0.43400728489E+02  0.00000000000E+00 0. -1.
         11    1    3    3    0    0 -0.91363717820E+01 -0.29015042529E+01  0.53429449325E+01  0.10974473886E+02  0.51100000000E-03 0. -1.
        -11    1    3    3    0    0 -0.13322505906E+02 -0.21305157440E+02 -0.20471121662E+01  0.25210901722E+02  0.51100000000E-03 0.  1.
        -12    1    3    3    0    0 -0.11171700902E+02 -0.28346820071E+01  0.13272774474E+01  0.11601895903E+02  0.00000000000E+00 0.  1.
</event>
<event>
 7    1  0.2812635E-010  0.4778727E+02  0.7816164E-02  0.1312668E+00
        -11   -1    0    0    0    0  0.00000000000E+00  0.00000000000E+00  0.45593999997E+02  0.45594000000E+02  0.51100000000E-03 0. -1.
         11   -1    0    0    0    0 -0.00000000000E+00 -0.00000000000E+00 -0.45593999997E+02  0.45594000000E+02  0.51100000000E-03 0.  1.
    9900012    2    1    2    0    0  0.24038530986E+02  0.33832821502E+02  0.12693017002E+02  0.47787268862E+02  0.19999990048E+02 0.  0.
         12    1    1    2    0    0 -0.24038530986E+02 -0.33832821502E+02 -0.12693017002E+02  0.43400731138E+02  0.00000000000E+00 0. -1.
         11    1    3    3    0    0  0.12618725670E+02  0.55218123170E+01  0.77089458442E+01  0.15784501737E+02  0.51100000000E-03 0. -1.
        -11    1    3    3    0    0  0.59108299991E+01  0.15306113274E+02 -0.14717373556E+01  0.16473646407E+02  0.51100000000E-03 0.  1.
         12    1    3    3    0    0  0.55089753162E+01  0.13004895911E+02  0.64558085133E+01  0.15529120717E+02  0.00000000000E+00 0. -1.
</event>
<event>
 7    1  0.2812635E-010  0.4778727E+02  0.7816164E-02  0.1312668E+00
        -11   -1    0    0    0    0  0.00000000000E+00  0.00000000000E+00  0.45593999997E+02  0.45594000000E+02  0.51100000000E-03 0.  1.
         11   -1    0    0    0    0 -0.00000000000E+00 -0.00000000000E+00 -0.45593999997E+02  0.45594000000E+02  0.51100000000E-03 0. -1.
    9900012    2    1    2    0    0  0.17556476821E+02  0.38787307688E+02  0.84224861176E+01  0.47787269725E+02  0.19999993982E+02 0.  0.
         12    1    1    2    0    0 -0.17556476821E+02 -0.38787307688E+02 -0.84224861176E+01  0.43400730275E+02  0.00000000000E+00 0. -1.
         11    1    3    3    0    0  0.98767038212E+01  0.20005759314E+02  0.61733173719E+01  0.23149287931E+02  0.51100000000E-03 0. -1.
        -11    1    3    3    0    0 -0.25947852112E+01  0.10925994261E+02  0.31786908802E+01  0.11671089789E+02  0.51100000000E-03 0.  1.
        -12    1    3    3    0    0  0.10274558211E+02  0.78555541130E+01 -0.92952213458E+00  0.12966892005E+02  0.00000000000E+00 0.  1.
</event>
<event>
 7    1  0.2812635E-010  0.4778727E+02  0.7816164E-02  0.1312668E+00
        -11   -1    0    0    0    0  0.00000000000E+00  0.00000000000E+00  0.45593999997E+02  0.45594000000E+02  0.51100000000E-03 0. -1.
         11   -1    0    0    0    0 -0.00000000000E+00 -0.00000000000E+00 -0.45593999997E+02  0.45594000000E+02  0.51100000000E-03 0.  1.
    9900012    2    1    2    0    0  0.21853654813E+02  0.19257679130E+02 -0.32174255919E+02  0.47787272148E+02  0.20000005031E+02 0.  0.
         12    1    1    2    0    0 -0.21853654813E+02 -0.19257679130E+02  0.32174255919E+02  0.43400727852E+02  0.00000000000E+00 0. -1.
         11    1    3    3    0    0 -0.68627305783E+00  0.10475562445E+01 -0.71242022801E+00  0.14407940997E+01  0.51100000000E-03 0. -1.
        -11    1    3    3    0    0 -0.16715909947E+01  0.23335014693E+00  0.10617311058E+01  0.19939764158E+01  0.51100000000E-03 0.  1.
        -12    1    3    3    0    0  0.24211518865E+02  0.17976772739E+02 -0.32523566797E+02  0.44352501632E+02  0.00000000000E+00 0.  1.
</event>
<event>
 7    1  0.2812635E-010  0.4778727E+02  0.7816164E-02  0.1312668E+00
        -11   -1    0    0    0    0  0.00000000000E+00  0.00000000000E+00  0.45593999997E+02  0.45594000000E+02  0.51100000000E-03 0. -1.
         11   -1    0    0    0    0 -0.00000000000E+00 -0.00000000000E+00 -0.45593999997E+02  0.45594000000E+02  0.51100000000E-03 0.  1.
    9900012    2    1    2    0    0  0.32900041948E+01  0.33246624297E+02 -0.27703090873E+02  0.47787269607E+02  0.19999993446E+02 0.  0.
         12    1    1    2    0    0 -0.32900041948E+01 -0.33246624297E+02  0.27703090873E+02  0.43400730393E+02  0.00000000000E+00 0. -1.
         11    1    3    3    0    0  0.96636686657E+00  0.19663157097E+02 -0.13795567987E+02  0.24039369964E+02  0.51100000000E-03 0. -1.
        -11    1    3    3    0    0  0.13465194666E+01 -0.52078630911E+00  0.19993641014E+01  0.24661285702E+01  0.51100000000E-03 0.  1.
        -12    1    3    3    0    0  0.97711786159E+00  0.14104253509E+02 -0.15906886987E+02  0.21281771072E+02  0.00000000000E+00 0.  1.
</event>
<event>
 7    1  0.2812635E-010  0.4778727E+02  0.7816164E-02  0.1312668E+00
        -11   -1    0    0    0    0  0.00000000000E+00  0.00000000000E+00  0.45593999997E+02  0.45594000000E+02  0.51100000000E-03 0.  1.
         11   -1    0    0    0    0 -0.00000000000E+00 -0.00000000000E+00 -0.45593999997E+02  0.45594000000E+02  0.51100000000E-03 0. -1.
    9900012    2    1    2    0    0  0.25203605101E+02  0.16024500995E+02  0.31489948529E+02  0.47787271889E+02  0.20000003851E+02 0.  0.
         12    1    1    2    0    0 -0.25203605101E+02 -0.16024500995E+02 -0.31489948529E+02  0.43400728111E+02  0.00000000000E+00 0. -1.
         11    1    3    3    0    0  0.18681164229E+02  0.51260184357E+01  0.92433886175E+01  0.21463974360E+02  0.51100000000E-03 0. -1.
        -11    1    3    3    0    0  0.54223819993E+01  0.53710549722E+01  0.16950677311E+02  0.18589672391E+02  0.51100000000E-03 0.  1.
         12    1    3    3    0    0  0.11000588730E+01  0.55274275871E+01  0.52958826004E+01  0.77336251379E+01  0.00000000000E+00 0. -1.
</event>
<event>
 7    1  0.2812635E-010  0.4778727E+02  0.7816164E-02  0.1312668E+00
        -11   -1    0    0    0    0  0.00000000000E+00  0.00000000000E+00  0.45593999997E+02  0.45594000000E+02  0.51100000000E-03 0. -1.
         11   -1    0    0    0    0 -0.00000000000E+00 -0.00000000000E+00 -0.45593999997E+02  0.45594000000E+02  0.51100000000E-03 0.  1.
    9900012    2    1    2    0    0 -0.19671158722E+02 -0.32315616003E+02 -0.21268981602E+02  0.47787273030E+02  0.20000009054E+02 0.  0.
         12    1    1    2    0    0  0.19671158722E+02  0.32315616003E+02  0.21268981602E+02  0.43400726970E+02  0.00000000000E+00 0. -1.
         11    1    3    3    0    0 -0.82495682626E+01 -0.21174780457E+02 -0.60182675142E+01  0.23508429298E+02  0.51100000000E-03 0.  1.
        -11    1    3    3    0    0 -0.25079577539E+01 -0.88179118500E+01 -0.48004579253E+01  0.10348421041E+02  0.51100000000E-03 0. -1.
         12    1    3    3    0    0 -0.89136327054E+01 -0.23229236966E+01 -0.10450256162E+02  0.13930422692E+02  0.00000000000E+00 0. -1.
</event>
<event>
 7    1  0.2812635E-010  0.4778727E+02  0.7816164E-02  0.1312668E+00
        -11   -1    0    0    0    0  0.00000000000E+00  0.00000000000E+00  0.45593999997E+02  0.45594000000E+02  0.51100000000E-03 0.  1.
         11   -1    0    0    0    0 -0.00000000000E+00 -0.00000000000E+00 -0.45593999997E+02  0.45594000000E+02  0.51100000000E-03 0. -1.
    9900012    2    1    2    0    0 -0.29705075364E+02 -0.23860560219E+02  0.20782343729E+02  0.47787266743E+02  0.19999980389E+02 0.  0.
         12    1    1    2    0    0  0.29705075364E+02  0.23860560219E+02 -0.20782343729E+02  0.43400733257E+02  0.00000000000E+00 0. -1.
         11    1    3    3    0    0 -0.19348303516E+02 -0.80133293233E+01  0.12568940773E+02  0.24424343763E+02  0.51100000000E-03 0.  1.
        -11    1    3    3    0    0 -0.47901271369E+01 -0.15482530125E+02  0.70009698021E+01  0.17654111008E+02  0.51100000000E-03 0. -1.
        -12    1    3    3    0    0 -0.55666447106E+01 -0.36470077061E+00  0.12124331540E+01  0.57088119726E+01  0.00000000000E+00 0.  1.
</event>
<event>
 7    1  0.2812635E-010  0.4778727E+02  0.7816164E-02  0.1312668E+00
        -11   -1    0    0    0    0  0.00000000000E+00  0.00000000000E+00  0.45593999997E+02  0.45594000000E+02  0.51100000000E-03 0. -1.
         11   -1    0    0    0    0 -0.00000000000E+00 -0.00000000000E+00 -0.45593999997E+02  0.45594000000E+02  0.51100000000E-03 0.  1.
    9900012    2    1    2    0    0 -0.26567642694E+02  0.27840176622E+02 -0.20067588722E+02  0.47787272013E+02  0.20000004416E+02 0.  0.
         12    1    1    2    0    0  0.26567642694E+02 -0.27840176622E+02  0.20067588722E+02  0.43400727987E+02  0.00000000000E+00 0. -1.
         11    1    3    3    0    0 -0.16782755805E+02  0.20527897603E+02 -0.54380303199E+01  0.27067095271E+02  0.51100000000E-03 0. -1.
        -11    1    3    3    0    0 -0.98510027194E+01  0.55082294226E+01 -0.79610448850E+01  0.13811628502E+02  0.51100000000E-03 0.  1.
         12    1    3    3    0    0  0.66115830528E-01  0.18040495972E+01 -0.66685135176E+01  0.69085482402E+01  0.00000000000E+00 0. -1.
</event>
<event>
 7    1  0.2812635E-010  0.4778727E+02  0.7816164E-02  0.1312668E+00
        -11   -1    0    0    0    0  0.00000000000E+00  0.00000000000E+00  0.45593999997E+02  0.45594000000E+02  0.51100000000E-03 0.  1.
         11   -1    0    0    0    0 -0.00000000000E+00 -0.00000000000E+00 -0.45593999997E+02  0.45594000000E+02  0.51100000000E-03 0. -1.
    9900012    2    1    2    0    0 -0.28338554477E+02 -0.16822603013E+02  0.28240920627E+02  0.47787271436E+02  0.20000001786E+02 0.  0.
         12    1    1    2    0    0  0.28338554477E+02  0.16822603013E+02 -0.28240920627E+02  0.43400728564E+02  0.00000000000E+00 0. -1.
         11    1    3    3    0    0 -0.17231719720E+02 -0.16470216705E+02  0.14018528880E+02  0.27653559536E+02  0.51100000000E-03 0. -1.
        -11    1    3    3    0    0 -0.10427583141E+02 -0.29743929005E+01  0.84147244577E+01  0.13725490565E+02  0.51100000000E-03 0.  1.
         12    1    3    3    0    0 -0.67925161611E+00  0.26220065920E+01  0.58076672899E+01  0.64082213349E+01  0.00000000000E+00 0. -1.
</event>
<event>
 7    1  0.2812635E-010  0.4778726E+02  0.7816164E-02  0.1312668E+00
        -11   -1    0    0    0    0  0.00000000000E+00  0.00000000000E+00  0.45593999997E+02  0.45594000000E+02  0.51100000000E-03 0.  1.
         11   -1    0    0    0    0 -0.00000000000E+00 -0.00000000000E+00 -0.45593999997E+02  0.45594000000E+02  0.51100000000E-03 0. -1.
    9900012    2    1    2    0    0  0.41036385836E+02  0.13385612032E+02 -0.45238143984E+01  0.47787257280E+02  0.19999937241E+02 0.  0.
         12    1    1    2    0    0 -0.41036385836E+02 -0.13385612032E+02  0.45238143984E+01  0.43400742720E+02  0.00000000000E+00 0. -1.
         11    1    3    3    0    0  0.72146787464E+01  0.70104642163E+00 -0.96050212152E+00  0.73120188789E+01  0.51100000000E-03 0. -1.
        -11    1    3    3    0    0  0.19395482222E+02 -0.22776499922E+01 -0.20479631588E+01  0.19635849191E+02  0.51100000000E-03 0.  1.
        -12    1    3    3    0    0  0.14426224868E+02  0.14962215603E+02 -0.15153491180E+01  0.20839389210E+02  0.00000000000E+00 0.  1.
</event>
<event>
 7    1  0.2812635E-010  0.4778728E+02  0.7816164E-02  0.1312668E+00
        -11   -1    0    0    0    0  0.00000000000E+00  0.00000000000E+00  0.45593999997E+02  0.45594000000E+02  0.51100000000E-03 0.  1.
         11   -1    0    0    0    0 -0.00000000000E+00 -0.00000000000E+00 -0.45593999997E+02  0.45594000000E+02  0.51100000000E-03 0. -1.
    9900012    2    1    2    0    0 -0.19052709848E+02  0.12450385404E+02  0.36954090135E+02  0.47787278497E+02  0.20000033978E+02 0.  0.
         12    1    1    2    0    0  0.19052709848E+02 -0.12450385404E+02 -0.36954090135E+02  0.43400721503E+02  0.00000000000E+00 0. -1.
         11    1    3    3    0    0  0.25587496492E+01  0.21103132101E+01  0.10051667185E+02  0.10584735948E+02  0.51100000000E-03 0. -1.
        -11    1    3    3    0    0 -0.91634997668E+01  0.40266338209E+01  0.18152589537E+02  0.20729206812E+02  0.51100000000E-03 0.  1.
         12    1    3    3    0    0 -0.12447959731E+02  0.63134383732E+01  0.87498334128E+01  0.16473335737E+02  0.00000000000E+00 0. -1.
</event>
<event>
 7    1  0.2812635E-010  0.4778728E+02  0.7816164E-02  0.1312668E+00
        -11   -1    0    0    0    0  0.00000000000E+00  0.00000000000E+00  0.45593999997E+02  0.45594000000E+02  0.51100000000E-03 0.  1.
         11   -1    0    0    0    0 -0.00000000000E+00 -0.00000000000E+00 -0.45593999997E+02  0.45594000000E+02  0.51100000000E-03 0. -1.
    9900012    2    1    2    0    0  0.39545315868E+02 -0.34000137081E+01  0.17556501921E+02  0.47787275813E+02  0.20000021740E+02 0.  0.
         12    1    1    2    0    0 -0.39545315868E+02  0.34000137081E+01 -0.17556501921E+02  0.43400724187E+02  0.00000000000E+00 0. -1.
         11    1    3    3    0    0  0.14395910091E+02  0.35987662218E+01  0.13056927392E+02  0.19765543222E+02  0.51100000000E-03 0.  1.
        -11    1    3    3    0    0  0.52307876899E+01  0.19245545824E+01  0.24862895116E+01  0.61030063079E+01  0.51100000000E-03 0. -1.
         12    1    3    3    0    0  0.19918618087E+02 -0.89233345123E+01  0.20132850173E+01  0.21918726283E+02  0.00000000000E+00 0. -1.
</event>
<event>
 7    1  0.2812635E-010  0.4778727E+02  0.7816164E-02  0.1312668E+00
        -11   -1    0    0    0    0  0.00000000000E+00  0.00000000000E+00  0.45593999997E+02  0.45594000000E+02  0.51100000000E-03 0.  1.
         11   -1    0    0    0    0 -0.00000000000E+00 -0.00000000000E+00 -0.45593999997E+02  0.45594000000E+02  0.51100000000E-03 0. -1.
    9900012    2    1    2    0    0  0.27947175712E+02 -0.18676267297E+02  0.27454973736E+02  0.47787272203E+02  0.20000005281E+02 0.  0.
         12    1    1    2    0    0 -0.27947175712E+02  0.18676267297E+02 -0.27454973736E+02  0.43400727797E+02  0.00000000000E+00 0. -1.
         11    1    3    3    0    0  0.97185881521E+01 -0.76016683506E+01  0.18132659285E+02  0.21932388160E+02  0.51100000000E-03 0. -1.
        -11    1    3    3    0    0  0.76974202958E+01  0.48601317022E+00  0.12744374212E+00  0.77138012796E+01  0.51100000000E-03 0.  1.
        -12    1    3    3    0    0  0.10531167265E+02 -0.11560612117E+02  0.91948707090E+01  0.18141082763E+02  0.00000000000E+00 0.  1.
</event>
<event>
 7    1  0.2812635E-010  0.4778727E+02  0.7816164E-02  0.1312668E+00
        -11   -1    0    0    0    0  0.00000000000E+00  0.00000000000E+00  0.45593999997E+02  0.45594000000E+02  0.51100000000E-03 0. -1.
         11   -1    0    0    0    0 -0.00000000000E+00 -0.00000000000E+00 -0.45593999997E+02  0.45594000000E+02  0.51100000000E-03 0.  1.
    9900012    2    1    2    0    0 -0.35622744539E+02  0.35176454029E+01 -0.24541183485E+02  0.47787269079E+02  0.19999991037E+02 0.  0.
         12    1    1    2    0    0  0.35622744539E+02 -0.35176454029E+01  0.24541183485E+02  0.43400730921E+02  0.00000000000E+00 0. -1.
         11    1    3    3    0    0  0.83671385213E+00 -0.25841021767E+01 -0.76355677116E+00  0.28214700661E+01  0.51100000000E-03 0. -1.
        -11    1    3    3    0    0 -0.18983685557E+02  0.31175819371E+01 -0.17928858375E+02  0.26297216533E+02  0.51100000000E-03 0.  1.
         12    1    3    3    0    0 -0.17475772834E+02  0.29841656425E+01 -0.58487683387E+01  0.18668582480E+02  0.00000000000E+00 0. -1.
</event>
<event>
 7    1  0.2812635E-010  0.4778726E+02  0.7816164E-02  0.1312668E+00
        -11   -1    0    0    0    0  0.00000000000E+00  0.00000000000E+00  0.45593999997E+02  0.45594000000E+02  0.51100000000E-03 0.  1.
         11   -1    0    0    0    0 -0.00000000000E+00 -0.00000000000E+00 -0.45593999997E+02  0.45594000000E+02  0.51100000000E-03 0. -1.
    9900012    2    1    2    0    0  0.31504495590E+02  0.22728027863E+02  0.19352709132E+02  0.47787264480E+02  0.19999970069E+02 0.  0.
         12    1    1    2    0    0 -0.31504495590E+02 -0.22728027863E+02 -0.19352709132E+02  0.43400735520E+02  0.00000000000E+00 0. -1.
         11    1    3    3    0    0  0.16256038901E+02  0.54999073268E+01  0.46044942323E+01  0.17768206121E+02  0.51100000000E-03 0. -1.
        -11    1    3    3    0    0  0.12526725609E+02  0.18700348448E+02  0.10695838190E+02  0.24920329881E+02  0.51100000000E-03 0.  1.
        -12    1    3    3    0    0  0.27217310809E+01 -0.14722279112E+01  0.40523767091E+01  0.50987284780E+01  0.00000000000E+00 0.  1.
</event>
<event>
 7    1  0.2812635E-010  0.4778727E+02  0.7816164E-02  0.1312668E+00
        -11   -1    0    0    0    0  0.00000000000E+00  0.00000000000E+00  0.45593999997E+02  0.45594000000E+02  0.51100000000E-03 0.  1.
         11   -1    0    0    0    0 -0.00000000000E+00 -0.00000000000E+00 -0.45593999997E+02  0.45594000000E+02  0.51100000000E-03 0. -1.
    9900012    2    1    2    0    0  0.97346089679E+01  0.42027211839E+02  0.47512031542E+01  0.47787273300E+02  0.20000010283E+02 0.  0.
         12    1    1    2    0    0 -0.97346089679E+01 -0.42027211839E+02 -0.47512031542E+01  0.43400726700E+02  0.00000000000E+00 0. -1.
         11    1    3    3    0    0  0.18021585337E+01 -0.50911306909E+00  0.28329295722E+01  0.33959478382E+01  0.51100000000E-03 0. -1.
        -11    1    3    3    0    0  0.77317636310E+01  0.28004736702E+02 -0.26093647631E+01  0.29169405742E+02  0.51100000000E-03 0.  1.
         12    1    3    3    0    0  0.20068680321E+00  0.14531588206E+02  0.45276383452E+01  0.15221919720E+02  0.00000000000E+00 0. -1.
</event>
<event>
 7    1  0.2812635E-010  0.4778727E+02  0.7816164E-02  0.1312668E+00
        -11   -1    0    0    0    0  0.00000000000E+00  0.00000000000E+00  0.45593999997E+02  0.45594000000E+02  0.51100000000E-03 0.  1.
         11   -1    0    0    0    0 -0.00000000000E+00 -0.00000000000E+00 -0.45593999997E+02  0.45594000000E+02  0.51100000000E-03 0. -1.
    9900012    2    1    2    0    0 -0.27372598191E+02  0.32789182463E+02 -0.76963366953E+01  0.47787271702E+02  0.20000002996E+02 0.  0.
         12    1    1    2    0    0  0.27372598191E+02 -0.32789182463E+02  0.76963366953E+01  0.43400728298E+02  0.00000000000E+00 0. -1.
         11    1    3    3    0    0 -0.25403058982E+01  0.14855532686E+02 -0.67021263848E+01  0.16494196063E+02  0.51100000000E-03 0. -1.
        -11    1    3    3    0    0 -0.18243284263E+02  0.95333855921E+01 -0.11454204875E+01  0.20615888288E+02  0.51100000000E-03 0.  1.
         12    1    3    3    0    0 -0.65890080296E+01  0.84002641851E+01  0.15121017703E+00  0.10677187350E+02  0.00000000000E+00 0. -1.
</event>
<event>
 7    1  0.2812635E-010  0.4778727E+02  0.7816164E-02  0.1312668E+00
        -11   -1    0    0    0    0  0.00000000000E+00  0.00000000000E+00  0.45593999997E+02  0.45594000000E+02  0.51100000000E-03 0.  1.
         11   -1    0    0    0    0 -0.00000000000E+00 -0.00000000000E+00 -0.45593999997E+02  0.45594000000E+02  0.51100000000E-03 0. -1.
    9900012    2    1    2    0    0 -0.10903925958E+02  0.18485415208E+02  0.37722896270E+02  0.47787273282E+02  0.20000010201E+02 0.  0.
         12    1    1    2    0    0  0.10903925958E+02 -0.18485415208E+02 -0.37722896270E+02  0.43400726718E+02  0.00000000000E+00 0. -1.
         11    1    3    3    0    0  0.32008847921E+01  0.11461100318E+02  0.15965473431E+02  0.19912278275E+02  0.51100000000E-03 0. -1.
        -11    1    3    3    0    0 -0.13758200432E+02  0.77140589807E+01  0.21996090104E+02  0.27067005102E+02  0.51100000000E-03 0.  1.
         12    1    3    3    0    0 -0.34661031789E+00 -0.68974409084E+00 -0.23866726518E+00  0.80798990512E+00  0.00000000000E+00 0. -1.
</event>
<event>
 7    1  0.2812635E-010  0.4778727E+02  0.7816164E-02  0.1312668E+00
        -11   -1    0    0    0    0  0.00000000000E+00  0.00000000000E+00  0.45593999997E+02  0.45594000000E+02  0.51100000000E-03 0.  1.
         11   -1    0    0    0    0 -0.00000000000E+00 -0.00000000000E+00 -0.45593999997E+02  0.45594000000E+02  0.51100000000E-03 0. -1.
    9900012    2    1    2    0    0  0.29428581490E+02  0.24703366785E+01  0.31803761050E+02  0.47787272025E+02  0.20000004471E+02 0.  0.
         12    1    1    2    0    0 -0.29428581490E+02 -0.24703366785E+01 -0.31803761050E+02  0.43400727975E+02  0.00000000000E+00 0. -1.
         11    1    3    3    0    0  0.67326257205E+01 -0.27597567947E+01 -0.97993968075E+00  0.73419880617E+01  0.51100000000E-03 0. -1.
        -11    1    3    3    0    0  0.66296242661E+01  0.30232400308E+01  0.12582211344E+02  0.14539736612E+02  0.51100000000E-03 0.  1.
         12    1    3    3    0    0  0.16066331504E+02  0.22068534425E+01  0.20201489387E+02  0.25905547351E+02  0.00000000000E+00 0. -1.
</event>
<event>
 7    1  0.2812635E-010  0.4778727E+02  0.7816164E-02  0.1312668E+00
        -11   -1    0    0    0    0  0.00000000000E+00  0.00000000000E+00  0.45593999997E+02  0.45594000000E+02  0.51100000000E-03 0. -1.
         11   -1    0    0    0    0 -0.00000000000E+00 -0.00000000000E+00 -0.45593999997E+02  0.45594000000E+02  0.51100000000E-03 0.  1.
    9900012    2    1    2    0    0 -0.36976150804E+02 -0.12884892250E+02 -0.18718097967E+02  0.47787269960E+02  0.19999995053E+02 0.  0.
         12    1    1    2    0    0  0.36976150804E+02  0.12884892250E+02  0.18718097967E+02  0.43400730040E+02  0.00000000000E+00 0. -1.
         11    1    3    3    0    0 -0.87781972252E+01 -0.43298448116E+00  0.22369383835E+01  0.90690746870E+01  0.51100000000E-03 0. -1.
        -11    1    3    3    0    0 -0.75623797824E+01 -0.27470629716E+01 -0.11492717964E+02  0.14029202023E+02  0.51100000000E-03 0.  1.
         12    1    3    3    0    0 -0.20635573796E+02 -0.97048447974E+01 -0.94623183867E+01  0.24688993250E+02  0.00000000000E+00 0. -1.
</event>
<event>
 7    1  0.2812635E-010  0.4778727E+02  0.7816164E-02  0.1312668E+00
        -11   -1    0    0    0    0  0.00000000000E+00  0.00000000000E+00  0.45593999997E+02  0.45594000000E+02  0.51100000000E-03 0.  1.
         11   -1    0    0    0    0 -0.00000000000E+00 -0.00000000000E+00 -0.45593999997E+02  0.45594000000E+02  0.51100000000E-03 0. -1.
    9900012    2    1    2    0    0 -0.25533366039E+02  0.20572877759E+02  0.28432853049E+02  0.47787271745E+02  0.20000003196E+02 0.  0.
         12    1    1    2    0    0  0.25533366039E+02 -0.20572877759E+02 -0.28432853049E+02  0.43400728255E+02  0.00000000000E+00 0. -1.
         11    1    3    3    0    0  0.11182008090E+01  0.23144203791E+01  0.90835144230E+01  0.94401879893E+01  0.51100000000E-03 0. -1.
        -11    1    3    3    0    0 -0.12953901240E+02  0.88348904614E+01  0.52135310167E+01  0.16523914570E+02  0.51100000000E-03 0.  1.
        -12    1    3    3    0    0 -0.13697665608E+02  0.94235669183E+01  0.14135807609E+02  0.21823169186E+02  0.00000000000E+00 0.  1.
</event>
<event>
 7    1  0.2812635E-010  0.4778728E+02  0.7816164E-02  0.1312668E+00
        -11   -1    0    0    0    0  0.00000000000E+00  0.00000000000E+00  0.45593999997E+02  0.45594000000E+02  0.51100000000E-03 0.  1.
         11   -1    0    0    0    0 -0.00000000000E+00 -0.00000000000E+00 -0.45593999997E+02  0.45594000000E+02  0.51100000000E-03 0. -1.
    9900012    2    1    2    0    0  0.14386438882E+02  0.16802688983E+02  0.37340624803E+02  0.47787282938E+02  0.20000054229E+02 0.  0.
         12    1    1    2    0    0 -0.14386438882E+02 -0.16802688983E+02 -0.37340624803E+02  0.43400717062E+02  0.00000000000E+00 0. -1.
         11    1    3    3    0    0 -0.28685553933E+01  0.16150958462E+01  0.17287353723E+01  0.37182887039E+01  0.51100000000E-03 0. -1.
        -11    1    3    3    0    0  0.13549712319E+02  0.60908470732E+01  0.14381899232E+02  0.20676850528E+02  0.51100000000E-03 0.  1.
        -12    1    3    3    0    0  0.37052819564E+01  0.90967460639E+01  0.21229990199E+02  0.23392143707E+02  0.00000000000E+00 0.  1.
</event>
<event>
 7    1  0.2812635E-010  0.4778727E+02  0.7816164E-02  0.1312668E+00
        -11   -1    0    0    0    0  0.00000000000E+00  0.00000000000E+00  0.45593999997E+02  0.45594000000E+02  0.51100000000E-03 0. -1.
         11   -1    0    0    0    0 -0.00000000000E+00 -0.00000000000E+00 -0.45593999997E+02  0.45594000000E+02  0.51100000000E-03 0.  1.
    9900012    2    1    2    0    0  0.42249447868E+02  0.77611705514E+01  0.61945048489E+01  0.47787268396E+02  0.19999987924E+02 0.  0.
         12    1    1    2    0    0 -0.42249447868E+02 -0.77611705514E+01 -0.61945048489E+01  0.43400731604E+02  0.00000000000E+00 0. -1.
         11    1    3    3    0    0  0.87104630258E+01 -0.49950346519E+01 -0.25873374442E+01  0.10369033350E+02  0.51100000000E-03 0. -1.
        -11    1    3    3    0    0  0.11380394087E+02  0.54587199539E+01  0.58289506842E+01  0.13902793225E+02  0.51100000000E-03 0.  1.
         12    1    3    3    0    0  0.22158590754E+02  0.72974852494E+01  0.29528916089E+01  0.23515441821E+02  0.00000000000E+00 0. -1.
</event>
<event>
 7    1  0.2812635E-010  0.4778727E+02  0.7816164E-02  0.1312668E+00
        -11   -1    0    0    0    0  0.00000000000E+00  0.00000000000E+00  0.45593999997E+02  0.45594000000E+02  0.51100000000E-03 0.  1.
         11   -1    0    0    0    0 -0.00000000000E+00 -0.00000000000E+00 -0.45593999997E+02  0.45594000000E+02  0.51100000000E-03 0. -1.
    9900012    2    1    2    0    0  0.35636259984E+02 -0.18237630508E+02  0.16765114172E+02  0.47787271372E+02  0.20000001494E+02 0.  0.
         12    1    1    2    0    0 -0.35636259984E+02  0.18237630508E+02 -0.16765114172E+02  0.43400728628E+02  0.00000000000E+00 0. -1.
         11    1    3    3    0    0  0.39467320762E+01 -0.20482897283E+01 -0.13004889526E+01  0.46328670032E+01  0.51100000000E-03 0. -1.
        -11    1    3    3    0    0  0.42165647057E+01  0.23176011206E+01  0.64603247863E+01  0.80552150484E+01  0.51100000000E-03 0.  1.
        -12    1    3    3    0    0  0.27472963203E+02 -0.18506941901E+02  0.11605278338E+02  0.35099189320E+02  0.00000000000E+00 0.  1.
</event>
<event>
 7    1  0.2812635E-010  0.4778727E+02  0.7816164E-02  0.1312668E+00
        -11   -1    0    0    0    0  0.00000000000E+00  0.00000000000E+00  0.45593999997E+02  0.45594000000E+02  0.51100000000E-03 0.  1.
         11   -1    0    0    0    0 -0.00000000000E+00 -0.00000000000E+00 -0.45593999997E+02  0.45594000000E+02  0.51100000000E-03 0. -1.
    9900012    2    1    2    0    0 -0.30117586893E+02 -0.12762712023E+02  0.28524864486E+02  0.47787265532E+02  0.19999974867E+02 0.  0.
         12    1    1    2    0    0  0.30117586893E+02  0.12762712023E+02 -0.28524864486E+02  0.43400734468E+02  0.00000000000E+00 0. -1.
         11    1    3    3    0    0 -0.90297019264E+01 -0.12360317618E+02  0.19096690152E+02  0.24474405887E+02  0.51100000000E-03 0. -1.
        -11    1    3    3    0    0 -0.25637938257E+01 -0.36163809046E+00  0.23044633802E+01  0.34661755035E+01  0.51100000000E-03 0.  1.
         12    1    3    3    0    0 -0.18524091141E+02 -0.40756314946E-01  0.71237109534E+01  0.19846684141E+02  0.00000000000E+00 0. -1.
</event>
<event>
 7    1  0.2812635E-010  0.4778728E+02  0.7816164E-02  0.1312668E+00
        -11   -1    0    0    0    0  0.00000000000E+00  0.00000000000E+00  0.45593999997E+02  0.45594000000E+02  0.51100000000E-03 0.  1.
         11   -1    0    0    0    0 -0.00000000000E+00 -0.00000000000E+00 -0.45593999997E+02  0.45594000000E+02  0.51100000000E-03 0. -1.
    9900012    2    1    2    0    0 -0.25125811964E+02 -0.75351936249E+01  0.34576531878E+02  0.47787284263E+02  0.20000060267E+02 0.  0.
         12    1    1    2    0    0  0.25125811964E+02  0.75351936249E+01 -0.34576531878E+02  0.43400715737E+02  0.00000000000E+00 0. -1.
         11    1    3    3    0    0 -0.10718662340E+02  0.60575555296E-01  0.27000918338E+02  0.29050696775E+02  0.51100000000E-03 0.  1.
        -11    1    3    3    0    0 -0.11797859078E+02 -0.36098522137E+01  0.59952939019E+01  0.13717290587E+02  0.51100000000E-03 0. -1.
        -12    1    3    3    0    0 -0.26092905460E+01 -0.39859169664E+01  0.15803196382E+01  0.50192969005E+01  0.00000000000E+00 0.  1.
</event>
<event>
 7    1  0.2812635E-010  0.4778728E+02  0.7816164E-02  0.1312668E+00
        -11   -1    0    0    0    0  0.00000000000E+00  0.00000000000E+00  0.45593999997E+02  0.45594000000E+02  0.51100000000E-03 0.  1.
         11   -1    0    0    0    0 -0.00000000000E+00 -0.00000000000E+00 -0.45593999997E+02  0.45594000000E+02  0.51100000000E-03 0. -1.
    9900012    2    1    2    0    0 -0.21181068903E+02  0.51602823832E+01  0.37528073437E+02  0.47787280075E+02  0.20000041173E+02 0.  0.
         12    1    1    2    0    0  0.21181068903E+02 -0.51602823832E+01 -0.37528073437E+02  0.43400719925E+02  0.00000000000E+00 0. -1.
         11    1    3    3    0    0 -0.68123707990E+01  0.79599013954E+01  0.13655965525E+02  0.17212025471E+02  0.51100000000E-03 0. -1.
        -11    1    3    3    0    0 -0.12013124236E+02 -0.39289306958E+01  0.91011098101E+01  0.15575039337E+02  0.51100000000E-03 0.  1.
        -12    1    3    3    0    0 -0.23555738684E+01  0.11293116836E+01  0.14770998102E+02  0.15000215267E+02  0.00000000000E+00 0.  1.
</event>
<event>
 7    1  0.2812635E-010  0.4778726E+02  0.7816164E-02  0.1312668E+00
        -11   -1    0    0    0    0  0.00000000000E+00  0.00000000000E+00  0.45593999997E+02  0.45594000000E+02  0.51100000000E-03 0.  1.
         11   -1    0    0    0    0 -0.00000000000E+00 -0.00000000000E+00 -0.45593999997E+02  0.45594000000E+02  0.51100000000E-03 0. -1.
    9900012    2    1    2    0    0 -0.13075500257E+02  0.39018277330E+02  0.13792378935E+02  0.47787258192E+02  0.19999941402E+02 0.  0.
         12    1    1    2    0    0  0.13075500257E+02 -0.39018277330E+02 -0.13792378935E+02  0.43400741808E+02  0.00000000000E+00 0. -1.
         11    1    3    3    0    0 -0.17755863948E+01 -0.18320963471E+01  0.21030138875E+00  0.25599826182E+01  0.51100000000E-03 0.  1.
        -11    1    3    3    0    0 -0.98841879035E+01  0.38781021545E+02  0.10739076567E+02  0.41436609036E+02  0.51100000000E-03 0. -1.
        -12    1    3    3    0    0 -0.14157259589E+01  0.20693521318E+01  0.28430009792E+01  0.37906665382E+01  0.00000000000E+00 0.  1.
</event>
<event>
 7    1  0.2812635E-010  0.4778727E+02  0.7816164E-02  0.1312668E+00
        -11   -1    0    0    0    0  0.00000000000E+00  0.00000000000E+00  0.45593999997E+02  0.45594000000E+02  0.51100000000E-03 0.  1.
         11   -1    0    0    0    0 -0.00000000000E+00 -0.00000000000E+00 -0.45593999997E+02  0.45594000000E+02  0.51100000000E-03 0. -1.
    9900012    2    1    2    0    0  0.30387585546E+02 -0.13953921263E+02  0.27667778092E+02  0.47787271682E+02  0.20000002909E+02 0.  0.
         12    1    1    2    0    0 -0.30387585546E+02  0.13953921263E+02 -0.27667778092E+02  0.43400728318E+02  0.00000000000E+00 0. -1.
         11    1    3    3    0    0  0.84952278482E+01 -0.13190934512E+02  0.16398338068E+02  0.22695266933E+02  0.51100000000E-03 0. -1.
        -11    1    3    3    0    0  0.10612203776E+02  0.63166742288E-01  0.28395498062E+01  0.10985713558E+02  0.51100000000E-03 0.  1.
         12    1    3    3    0    0  0.11280153922E+02 -0.82615349366E+00  0.84298902180E+01  0.14106291191E+02  0.00000000000E+00 0. -1.
</event>
<event>
 7    1  0.2812635E-010  0.4778727E+02  0.7816164E-02  0.1312668E+00
        -11   -1    0    0    0    0  0.00000000000E+00  0.00000000000E+00  0.45593999997E+02  0.45594000000E+02  0.51100000000E-03 0. -1.
         11   -1    0    0    0    0 -0.00000000000E+00 -0.00000000000E+00 -0.45593999997E+02  0.45594000000E+02  0.51100000000E-03 0.  1.
    9900012    2    1    2    0    0  0.17718063223E+02  0.39404810796E+02 -0.41175777542E+01  0.47787270457E+02  0.19999997323E+02 0.  0.
         12    1    1    2    0    0 -0.17718063223E+02 -0.39404810796E+02  0.41175777542E+01  0.43400729543E+02  0.00000000000E+00 0. -1.
         11    1    3    3    0    0  0.13371085022E+01  0.15127065248E+01  0.44703131315E+01  0.49050830708E+01  0.51100000000E-03 0. -1.
        -11    1    3    3    0    0  0.79143075290E+01  0.16572742371E+02 -0.77332207517E+01  0.19927236558E+02  0.51100000000E-03 0.  1.
         12    1    3    3    0    0  0.84666471919E+01  0.21319361900E+02 -0.85467013407E+00  0.22954950829E+02  0.00000000000E+00 0. -1.
</event>
<event>
 7    1  0.2812635E-010  0.4778727E+02  0.7816164E-02  0.1312668E+00
        -11   -1    0    0    0    0  0.00000000000E+00  0.00000000000E+00  0.45593999997E+02  0.45594000000E+02  0.51100000000E-03 0. -1.
         11   -1    0    0    0    0 -0.00000000000E+00 -0.00000000000E+00 -0.45593999997E+02  0.45594000000E+02  0.51100000000E-03 0.  1.
    9900012    2    1    2    0    0  0.17570415033E+02 -0.34504221305E+02 -0.19605164543E+02  0.47787271330E+02  0.20000001303E+02 0.  0.
         12    1    1    2    0    0 -0.17570415033E+02  0.34504221305E+02  0.19605164543E+02  0.43400728670E+02  0.00000000000E+00 0. -1.
         11    1    3    3    0    0  0.59460318326E+01 -0.45157081641E+00 -0.12039083205E+01  0.60834699196E+01  0.51100000000E-03 0. -1.
        -11    1    3    3    0    0  0.68546600517E+01 -0.30649181670E+02 -0.14052524664E+02  0.34406861978E+02  0.51100000000E-03 0.  1.
        -12    1    3    3    0    0  0.47697231491E+01 -0.34034688183E+01 -0.43487315590E+01  0.72969394330E+01  0.00000000000E+00 0.  1.
</event>
<event>
 7    1  0.2812635E-010  0.4778725E+02  0.7816164E-02  0.1312668E+00
        -11   -1    0    0    0    0  0.00000000000E+00  0.00000000000E+00  0.45593999997E+02  0.45594000000E+02  0.51100000000E-03 0. -1.
         11   -1    0    0    0    0 -0.00000000000E+00 -0.00000000000E+00 -0.45593999997E+02  0.45594000000E+02  0.51100000000E-03 0.  1.
    9900012    2    1    2    0    0 -0.37357855128E+02 -0.22078856364E+02 -0.73453331819E+00  0.47787253724E+02  0.19999921028E+02 0.  0.
         12    1    1    2    0    0  0.37357855128E+02  0.22078856364E+02  0.73453331819E+00  0.43400746276E+02  0.00000000000E+00 0. -1.
         11    1    3    3    0    0 -0.16497664005E+02 -0.82899059111E+01  0.80748496222E+01  0.20151889597E+02  0.51100000000E-03 0. -1.
        -11    1    3    3    0    0 -0.15514511202E+02 -0.12397524852E+02 -0.38864175383E+01  0.20236178538E+02  0.51100000000E-03 0.  1.
         12    1    3    3    0    0 -0.53456799220E+01 -0.13914256010E+01 -0.49229654022E+01  0.73991855892E+01  0.00000000000E+00 0. -1.
</event>
<event>
 7    1  0.2812635E-010  0.4778727E+02  0.7816164E-02  0.1312668E+00
        -11   -1    0    0    0    0  0.00000000000E+00  0.00000000000E+00  0.45593999997E+02  0.45594000000E+02  0.51100000000E-03 0. -1.
         11   -1    0    0    0    0 -0.00000000000E+00 -0.00000000000E+00 -0.45593999997E+02  0.45594000000E+02  0.51100000000E-03 0.  1.
    9900012    2    1    2    0    0  0.83337377177E+01  0.39502977247E+02 -0.15927540283E+02  0.47787274946E+02  0.20000017790E+02 0.  0.
         12    1    1    2    0    0 -0.83337377177E+01 -0.39502977247E+02  0.15927540283E+02  0.43400725054E+02  0.00000000000E+00 0. -1.
         11    1    3    3    0    0  0.10158918604E+02  0.27675177872E+02 -0.12967060300E+02  0.32206579305E+02  0.51100000000E-03 0. -1.
        -11    1    3    3    0    0  0.36898640701E+01  0.66147954355E+01 -0.45137142613E+00  0.75877764816E+01  0.51100000000E-03 0.  1.
         12    1    3    3    0    0 -0.55150449561E+01  0.52130039393E+01 -0.25091085562E+01  0.79929191592E+01  0.00000000000E+00 0. -1.
</event>
<event>
 7    1  0.2812635E-010  0.4778727E+02  0.7816164E-02  0.1312668E+00
        -11   -1    0    0    0    0  0.00000000000E+00  0.00000000000E+00  0.45593999997E+02  0.45594000000E+02  0.51100000000E-03 0.  1.
         11   -1    0    0    0    0 -0.00000000000E+00 -0.00000000000E+00 -0.45593999997E+02  0.45594000000E+02  0.51100000000E-03 0. -1.
    9900012    2    1    2    0    0 -0.16913274186E+02 -0.33082365068E+02  0.22430368998E+02  0.47787272177E+02  0.20000005163E+02 0.  0.
         12    1    1    2    0    0  0.16913274186E+02  0.33082365068E+02 -0.22430368998E+02  0.43400727823E+02  0.00000000000E+00 0. -1.
         11    1    3    3    0    0 -0.18764114700E+01 -0.11973365045E+02 -0.25928208031E+00  0.12122277755E+02  0.51100000000E-03 0. -1.
        -11    1    3    3    0    0 -0.71985693789E+01 -0.42647309522E+01  0.10577943940E+02  0.13487039314E+02  0.51100000000E-03 0.  1.
         12    1    3    3    0    0 -0.78382933369E+01 -0.16844269071E+02  0.12111707138E+02  0.22177955108E+02  0.00000000000E+00 0. -1.
</event>
<event>
 7    1  0.2812635E-010  0.4778727E+02  0.7816164E-02  0.1312668E+00
        -11   -1    0    0    0    0  0.00000000000E+00  0.00000000000E+00  0.45593999997E+02  0.45594000000E+02  0.51100000000E-03 0.  1.
         11   -1    0    0    0    0 -0.00000000000E+00 -0.00000000000E+00 -0.45593999997E+02  0.45594000000E+02  0.51100000000E-03 0. -1.
    9900012    2    1    2    0    0  0.33975161380E+02  0.71374304916E+01  0.26045509145E+02  0.47787273607E+02  0.20000011683E+02 0.  0.
         12    1    1    2    0    0 -0.33975161380E+02 -0.71374304916E+01 -0.26045509145E+02  0.43400726393E+02  0.00000000000E+00 0. -1.
         11    1    3    3    0    0  0.55147000390E-02 -0.29520124588E+01  0.31560762699E+01  0.43214841954E+01  0.51100000000E-03 0. -1.
        -11    1    3    3    0    0  0.27488635459E+02  0.60872745477E+01  0.13075584415E+02  0.31042726988E+02  0.51100000000E-03 0.  1.
        -12    1    3    3    0    0  0.64810112217E+01  0.40021684027E+01  0.98138484603E+01  0.12423062424E+02  0.00000000000E+00 0.  1.
</event>
<event>
 7    1  0.5859369E-010  0.4778727E+02  0.7816164E-02  0.1312668E+00
        -11   -1    0    0    0    0  0.00000000000E+00  0.00000000000E+00  0.45593999997E+02  0.45594000000E+02  0.51100000000E-03 0. -1.
         11   -1    0    0    0    0 -0.00000000000E+00 -0.00000000000E+00 -0.45593999997E+02  0.45594000000E+02  0.51100000000E-03 0.  1.
    9900012    2    1    2    0    0 -0.93190597381E+01 -0.14398970849E+00 -0.42388178256E+02  0.47787271166E+02  0.20000000555E+02 0.  0.
         12    1    1    2    0    0  0.93190597381E+01  0.14398970849E+00  0.42388178256E+02  0.43400728834E+02  0.00000000000E+00 0. -1.
         11    1    3    3    0    0  0.35413170126E+01  0.39072216609E+01 -0.10268577411E+02  0.11543439245E+02  0.51100000000E-03 0. -1.
        -11    1    3    3    0    0 -0.45159729477E+01 -0.53241706444E+01 -0.21917294933E+02  0.23002361230E+02  0.51100000000E-03 0.  1.
         12    1    3    3    0    0 -0.83444038029E+01  0.12729592749E+01 -0.10202305912E+02  0.13241470691E+02  0.00000000000E+00 0. -1.
</event>
<event>
 7    1  0.2812635E-010  0.4778727E+02  0.7816164E-02  0.1312668E+00
        -11   -1    0    0    0    0  0.00000000000E+00  0.00000000000E+00  0.45593999997E+02  0.45594000000E+02  0.51100000000E-03 0.  1.
         11   -1    0    0    0    0 -0.00000000000E+00 -0.00000000000E+00 -0.45593999997E+02  0.45594000000E+02  0.51100000000E-03 0. -1.
    9900012    2    1    2    0    0 -0.34745311309E+02 -0.24762325898E+02 -0.79507166990E+01  0.47787270307E+02  0.19999996637E+02 0.  0.
         12    1    1    2    0    0  0.34745311309E+02  0.24762325898E+02  0.79507166990E+01  0.43400729693E+02  0.00000000000E+00 0. -1.
         11    1    3    3    0    0 -0.23069004553E+02 -0.83747678645E+01 -0.87351102220E+01  0.26050294791E+02  0.51100000000E-03 0. -1.
        -11    1    3    3    0    0 -0.12090470073E+02 -0.17032516957E+02  0.42841012231E+00  0.20891855733E+02  0.51100000000E-03 0.  1.
         12    1    3    3    0    0  0.41416331691E+00  0.64495892309E+00  0.35598340063E+00  0.84511978267E+00  0.00000000000E+00 0. -1.
</event>
<event>
 7    1  0.2812635E-010  0.4778727E+02  0.7816164E-02  0.1312668E+00
        -11   -1    0    0    0    0  0.00000000000E+00  0.00000000000E+00  0.45593999997E+02  0.45594000000E+02  0.51100000000E-03 0. -1.
         11   -1    0    0    0    0 -0.00000000000E+00 -0.00000000000E+00 -0.45593999997E+02  0.45594000000E+02  0.51100000000E-03 0.  1.
    9900012    2    1    2    0    0  0.22369998982E+02 -0.30831916483E+02 -0.20799024909E+02  0.47787269987E+02  0.19999995181E+02 0.  0.
         12    1    1    2    0    0 -0.22369998982E+02  0.30831916483E+02  0.20799024909E+02  0.43400730013E+02  0.00000000000E+00 0. -1.
         11    1    3    3    0    0 -0.27648500050E+00 -0.55869990322E+01 -0.48921304931E+01  0.74312813945E+01  0.51100000000E-03 0. -1.
        -11    1    3    3    0    0  0.23759495106E+02 -0.18158745747E+02 -0.13225915556E+02  0.32698295022E+02  0.51100000000E-03 0.  1.
        -12    1    3    3    0    0 -0.11130111241E+01 -0.70861717034E+01 -0.26809788603E+01  0.76576935707E+01  0.00000000000E+00 0.  1.
</event>
<event>
 7    1  0.2812635E-010  0.4778728E+02  0.7816164E-02  0.1312668E+00
        -11   -1    0    0    0    0  0.00000000000E+00  0.00000000000E+00  0.45593999997E+02  0.45594000000E+02  0.51100000000E-03 0.  1.
         11   -1    0    0    0    0 -0.00000000000E+00 -0.00000000000E+00 -0.45593999997E+02  0.45594000000E+02  0.51100000000E-03 0. -1.
    9900012    2    1    2    0    0  0.89637317703E+01  0.28680139807E+02  0.31316513532E+02  0.47787275048E+02  0.20000018252E+02 0.  0.
         12    1    1    2    0    0 -0.89637317703E+01 -0.28680139807E+02 -0.31316513532E+02  0.43400724952E+02  0.00000000000E+00 0. -1.
         11    1    3    3    0    0  0.66924261760E+01  0.33597526799E+01  0.16993518217E+02  0.18570303385E+02  0.51100000000E-03 0. -1.
        -11    1    3    3    0    0  0.24557269996E+01  0.21886161921E+02  0.12243046657E+02  0.25197755266E+02  0.51100000000E-03 0.  1.
         12    1    3    3    0    0 -0.18442140530E+00  0.34342252053E+01  0.20799486586E+01  0.40192163960E+01  0.00000000000E+00 0. -1.
</event>
<event>
 7    1  0.2812635E-010  0.4778727E+02  0.7816164E-02  0.1312668E+00
        -11   -1    0    0    0    0  0.00000000000E+00  0.00000000000E+00  0.45593999997E+02  0.45594000000E+02  0.51100000000E-03 0.  1.
         11   -1    0    0    0    0 -0.00000000000E+00 -0.00000000000E+00 -0.45593999997E+02  0.45594000000E+02  0.51100000000E-03 0. -1.
    9900012    2    1    2    0    0  0.30846697038E+02 -0.16788375569E+02  0.25500101570E+02  0.47787268986E+02  0.19999990616E+02 0.  0.
         12    1    1    2    0    0 -0.30846697038E+02  0.16788375569E+02 -0.25500101570E+02  0.43400731014E+02  0.00000000000E+00 0. -1.
         11    1    3    3    0    0  0.38939111546E+01  0.13626256501E+00  0.12610448646E+02  0.13198656253E+02  0.51100000000E-03 0. -1.
        -11    1    3    3    0    0  0.22916797530E+02 -0.13950118140E+02  0.12385278502E+02  0.29549628238E+02  0.51100000000E-03 0.  1.
         12    1    3    3    0    0  0.40359883531E+01 -0.29745199948E+01  0.50437442228E+00  0.50389844953E+01  0.00000000000E+00 0. -1.
</event>
<event>
 7    1  0.2812635E-010  0.4778727E+02  0.7816164E-02  0.1312668E+00
        -11   -1    0    0    0    0  0.00000000000E+00  0.00000000000E+00  0.45593999997E+02  0.45594000000E+02  0.51100000000E-03 0.  1.
         11   -1    0    0    0    0 -0.00000000000E+00 -0.00000000000E+00 -0.45593999997E+02  0.45594000000E+02  0.51100000000E-03 0. -1.
    9900012    2    1    2    0    0  0.41391179204E+02  0.53830611276E+01  0.11891858488E+02  0.47787270038E+02  0.19999995410E+02 0.  0.
         12    1    1    2    0    0 -0.41391179204E+02 -0.53830611276E+01 -0.11891858488E+02  0.43400729962E+02  0.00000000000E+00 0. -1.
         11    1    3    3    0    0  0.26648590489E+02 -0.77583143965E+00 -0.10265733752E+01  0.26679639102E+02  0.51100000000E-03 0. -1.
        -11    1    3    3    0    0  0.14098264039E+02  0.45251804281E+01  0.12288918335E+02  0.19242032661E+02  0.51100000000E-03 0.  1.
        -12    1    3    3    0    0  0.64432467641E+00  0.16337121391E+01  0.62951352800E+00  0.18655982751E+01  0.00000000000E+00 0.  1.
</event>
<event>
 7    1  0.2812635E-010  0.4778727E+02  0.7816164E-02  0.1312668E+00
        -11   -1    0    0    0    0  0.00000000000E+00  0.00000000000E+00  0.45593999997E+02  0.45594000000E+02  0.51100000000E-03 0.  1.
         11   -1    0    0    0    0 -0.00000000000E+00 -0.00000000000E+00 -0.45593999997E+02  0.45594000000E+02  0.51100000000E-03 0. -1.
    9900012    2    1    2    0    0  0.17601172446E+02  0.18381219206E+02  0.35156120260E+02  0.47787270943E+02  0.19999999537E+02 0.  0.
         12    1    1    2    0    0 -0.17601172446E+02 -0.18381219206E+02 -0.35156120260E+02  0.43400729057E+02  0.00000000000E+00 0. -1.
         11    1    3    3    0    0  0.14099173352E+01 -0.13356477902E+01  0.20465979304E+01  0.28214154713E+01  0.51100000000E-03 0. -1.
        -11    1    3    3    0    0  0.16671950871E+02  0.12427080434E+02  0.15605442072E+02  0.25998386421E+02  0.51100000000E-03 0.  1.
        -12    1    3    3    0    0 -0.48069576067E+00  0.72897865618E+01  0.17504080257E+02  0.18967469050E+02  0.00000000000E+00 0.  1.
</event>
<event>
 7    1  0.2812635E-010  0.4778728E+02  0.7816164E-02  0.1312668E+00
        -11   -1    0    0    0    0  0.00000000000E+00  0.00000000000E+00  0.45593999997E+02  0.45594000000E+02  0.51100000000E-03 0.  1.
         11   -1    0    0    0    0 -0.00000000000E+00 -0.00000000000E+00 -0.45593999997E+02  0.45594000000E+02  0.51100000000E-03 0. -1.
    9900012    2    1    2    0    0 -0.16080628317E+02 -0.40299153101E+02  0.10072556746E+01  0.47787275216E+02  0.20000019022E+02 0.  0.
         12    1    1    2    0    0  0.16080628317E+02  0.40299153101E+02 -0.10072556746E+01  0.43400724784E+02  0.00000000000E+00 0. -1.
         11    1    3    3    0    0  0.29939131300E+00 -0.15284350772E+01  0.68982366710E+00  0.17034100787E+01  0.51100000000E-03 0. -1.
        -11    1    3    3    0    0 -0.20771610654E-01 -0.85145828146E+01 -0.68757290026E+01  0.10944140055E+02  0.51100000000E-03 0.  1.
        -12    1    3    3    0    0 -0.16359248020E+02 -0.30256135209E+02  0.71931610102E+01  0.35139725083E+02  0.00000000000E+00 0.  1.
</event>
<event>
 7    1  0.2812635E-010  0.4778726E+02  0.7816164E-02  0.1312668E+00
        -11   -1    0    0    0    0  0.00000000000E+00  0.00000000000E+00  0.45593999997E+02  0.45594000000E+02  0.51100000000E-03 0.  1.
         11   -1    0    0    0    0 -0.00000000000E+00 -0.00000000000E+00 -0.45593999997E+02  0.45594000000E+02  0.51100000000E-03 0. -1.
    9900012    2    1    2    0    0  0.42343778055E+02  0.86848011061E+01  0.38990515412E+01  0.47787263680E+02  0.19999966420E+02 0.  0.
         12    1    1    2    0    0 -0.42343778055E+02 -0.86848011061E+01 -0.38990515412E+01  0.43400736320E+02  0.00000000000E+00 0. -1.
         11    1    3    3    0    0  0.23498490739E+02  0.10209691184E+02 -0.51873463861E+01  0.26140493948E+02  0.51100000000E-03 0. -1.
        -11    1    3    3    0    0  0.17268480423E+02 -0.10572686464E+01  0.63019086992E+01  0.18412829403E+02  0.51100000000E-03 0.  1.
        -12    1    3    3    0    0  0.15768068931E+01 -0.46762143194E+00  0.27844892282E+01  0.32339403277E+01  0.00000000000E+00 0.  1.
</event>
<event>
 7    1  0.2812635E-010  0.4778727E+02  0.7816164E-02  0.1312668E+00
        -11   -1    0    0    0    0  0.00000000000E+00  0.00000000000E+00  0.45593999997E+02  0.45594000000E+02  0.51100000000E-03 0. -1.
         11   -1    0    0    0    0 -0.00000000000E+00 -0.00000000000E+00 -0.45593999997E+02  0.45594000000E+02  0.51100000000E-03 0.  1.
    9900012    2    1    2    0    0  0.32749017692E+02 -0.50254146518E+01 -0.28033378697E+02  0.47787271050E+02  0.20000000027E+02 0.  0.
         12    1    1    2    0    0 -0.32749017692E+02  0.50254146518E+01  0.28033378697E+02  0.43400728950E+02  0.00000000000E+00 0. -1.
         11    1    3    3    0    0  0.16012883791E+02 -0.10812182922E+01 -0.58331137755E+01  0.17076495451E+02  0.51100000000E-03 0. -1.
        -11    1    3    3    0    0  0.36309777974E+01 -0.52279579095E+01 -0.13508285208E+02  0.14932826698E+02  0.51100000000E-03 0.  1.
        -12    1    3    3    0    0  0.13105156103E+02  0.12837615498E+01 -0.86919797137E+01  0.15777948902E+02  0.00000000000E+00 0.  1.
</event>
<event>
 7    1  0.2812635E-010  0.4778727E+02  0.7816164E-02  0.1312668E+00
        -11   -1    0    0    0    0  0.00000000000E+00  0.00000000000E+00  0.45593999997E+02  0.45594000000E+02  0.51100000000E-03 0.  1.
         11   -1    0    0    0    0 -0.00000000000E+00 -0.00000000000E+00 -0.45593999997E+02  0.45594000000E+02  0.51100000000E-03 0. -1.
    9900012    2    1    2    0    0  0.85005511949E+01 -0.33787220790E+02  0.25880255940E+02  0.47787270665E+02  0.19999998268E+02 0.  0.
         12    1    1    2    0    0 -0.85005511949E+01  0.33787220790E+02 -0.25880255940E+02  0.43400729335E+02  0.00000000000E+00 0. -1.
         11    1    3    3    0    0  0.78753599113E+01 -0.57693014986E+01  0.60076814911E+00  0.97809537441E+01  0.51100000000E-03 0. -1.
        -11    1    3    3    0    0  0.23972459954E+01 -0.11695142183E+02  0.11402317389E+02  0.16508663821E+02  0.51100000000E-03 0.  1.
         12    1    3    3    0    0 -0.17720547118E+01 -0.16322777109E+02  0.13877170402E+02  0.21497653100E+02  0.00000000000E+00 0. -1.
</event>
<event>
 7    1  0.2812635E-010  0.4778727E+02  0.7816164E-02  0.1312668E+00
        -11   -1    0    0    0    0  0.00000000000E+00  0.00000000000E+00  0.45593999997E+02  0.45594000000E+02  0.51100000000E-03 0.  1.
         11   -1    0    0    0    0 -0.00000000000E+00 -0.00000000000E+00 -0.45593999997E+02  0.45594000000E+02  0.51100000000E-03 0. -1.
    9900012    2    1    2    0    0  0.42289810375E+02  0.96489642605E+01  0.14465663958E+01  0.47787272735E+02  0.20000007707E+02 0.  0.
         12    1    1    2    0    0 -0.42289810375E+02 -0.96489642605E+01 -0.14465663958E+01  0.43400727265E+02  0.00000000000E+00 0. -1.
         11    1    3    3    0    0  0.64182322760E+01  0.46821024426E+01  0.10353831053E+01  0.80117293556E+01  0.51100000000E-03 0.  1.
        -11    1    3    3    0    0  0.26173198322E+02  0.76802151057E+01 -0.58771195659E+01  0.27902733722E+02  0.51100000000E-03 0. -1.
        -12    1    3    3    0    0  0.96983797764E+01 -0.27133532878E+01  0.62883028564E+01  0.11872809658E+02  0.00000000000E+00 0.  1.
</event>
<event>
 7    1  0.2812635E-010  0.4778727E+02  0.7816164E-02  0.1312668E+00
        -11   -1    0    0    0    0  0.00000000000E+00  0.00000000000E+00  0.45593999997E+02  0.45594000000E+02  0.51100000000E-03 0. -1.
         11   -1    0    0    0    0 -0.00000000000E+00 -0.00000000000E+00 -0.45593999997E+02  0.45594000000E+02  0.51100000000E-03 0.  1.
    9900012    2    1    2    0    0  0.29767032656E+02 -0.31199942215E+02  0.49103126298E+01  0.47787265012E+02  0.19999972497E+02 0.  0.
         12    1    1    2    0    0 -0.29767032656E+02  0.31199942215E+02 -0.49103126298E+01  0.43400734988E+02  0.00000000000E+00 0. -1.
         11    1    3    3    0    0  0.10025490660E+02 -0.15252836962E+01 -0.19646075183E+01  0.10329406386E+02  0.51100000000E-03 0. -1.
        -11    1    3    3    0    0  0.14740582194E+02 -0.13960336169E+02  0.45263702008E+01  0.20800571550E+02  0.51100000000E-03 0.  1.
         12    1    3    3    0    0  0.50009598015E+01 -0.15714322350E+02  0.23485499474E+01  0.16657287075E+02  0.00000000000E+00 0. -1.
</event>
<event>
 7    1  0.2812635E-010  0.4778727E+02  0.7816164E-02  0.1312668E+00
        -11   -1    0    0    0    0  0.00000000000E+00  0.00000000000E+00  0.45593999997E+02  0.45594000000E+02  0.51100000000E-03 0.  1.
         11   -1    0    0    0    0 -0.00000000000E+00 -0.00000000000E+00 -0.45593999997E+02  0.45594000000E+02  0.51100000000E-03 0. -1.
    9900012    2    1    2    0    0  0.41050013535E+02  0.15182441912E+01  0.14007666298E+02  0.47787269686E+02  0.19999993807E+02 0.  0.
         12    1    1    2    0    0 -0.41050013535E+02 -0.15182441912E+01 -0.14007666298E+02  0.43400730314E+02  0.00000000000E+00 0. -1.
         11    1    3    3    0    0  0.38420134271E+01  0.20569527429E+01 -0.30096584077E+01  0.52962407190E+01  0.51100000000E-03 0. -1.
        -11    1    3    3    0    0  0.36380612967E+02 -0.28040518321E+01  0.15517826505E+02  0.39651161979E+02  0.51100000000E-03 0.  1.
        -12    1    3    3    0    0  0.82738714094E+00  0.22653432804E+01  0.14994982007E+01  0.28398669886E+01  0.00000000000E+00 0.  1.
</event>
<event>
 7    1  0.2812635E-010  0.4778727E+02  0.7816164E-02  0.1312668E+00
        -11   -1    0    0    0    0  0.00000000000E+00  0.00000000000E+00  0.45593999997E+02  0.45594000000E+02  0.51100000000E-03 0.  1.
         11   -1    0    0    0    0 -0.00000000000E+00 -0.00000000000E+00 -0.45593999997E+02  0.45594000000E+02  0.51100000000E-03 0. -1.
    9900012    2    1    2    0    0  0.98884420067E+01 -0.53963865232E+01  0.41913257938E+02  0.47787268856E+02  0.19999990023E+02 0.  0.
         12    1    1    2    0    0 -0.98884420067E+01  0.53963865232E+01 -0.41913257938E+02  0.43400731144E+02  0.00000000000E+00 0. -1.
         11    1    3    3    0    0 -0.43048755112E+01  0.25753569493E+01  0.17262797337E+02  0.17976890408E+02  0.51100000000E-03 0. -1.
        -11    1    3    3    0    0  0.91299325223E+01 -0.31619810238E+01  0.16021910062E+02  0.18709767346E+02  0.51100000000E-03 0.  1.
         12    1    3    3    0    0  0.50633849957E+01 -0.48097624487E+01  0.86285505389E+01  0.11100611102E+02  0.00000000000E+00 0. -1.
</event>
<event>
 7    1  0.2812635E-010  0.4778727E+02  0.7816164E-02  0.1312668E+00
        -11   -1    0    0    0    0  0.00000000000E+00  0.00000000000E+00  0.45593999997E+02  0.45594000000E+02  0.51100000000E-03 0.  1.
         11   -1    0    0    0    0 -0.00000000000E+00 -0.00000000000E+00 -0.45593999997E+02  0.45594000000E+02  0.51100000000E-03 0. -1.
    9900012    2    1    2    0    0 -0.62590803295E+01  0.28926572669E+02  0.31744302125E+02  0.47787269472E+02  0.19999992831E+02 0.  0.
         12    1    1    2    0    0  0.62590803295E+01 -0.28926572669E+02 -0.31744302125E+02  0.43400730528E+02  0.00000000000E+00 0. -1.
         11    1    3    3    0    0 -0.40114765710E+01  0.17597017727E+02  0.12156763627E+02  0.21760833608E+02  0.51100000000E-03 0. -1.
        -11    1    3    3    0    0  0.45369948520E+01  0.42323696584E+01  0.33499896415E+01  0.70512201832E+01  0.51100000000E-03 0.  1.
         12    1    3    3    0    0 -0.67845986104E+01  0.70971852833E+01  0.16237548857E+02  0.18975215681E+02  0.00000000000E+00 0. -1.
</event>
<event>
 7    1  0.2812635E-010  0.4778727E+02  0.7816164E-02  0.1312668E+00
        -11   -1    0    0    0    0  0.00000000000E+00  0.00000000000E+00  0.45593999997E+02  0.45594000000E+02  0.51100000000E-03 0.  1.
         11   -1    0    0    0    0 -0.00000000000E+00 -0.00000000000E+00 -0.45593999997E+02  0.45594000000E+02  0.51100000000E-03 0. -1.
    9900012    2    1    2    0    0  0.90052479248E+00  0.86020976288E+01  0.42530180043E+02  0.47787271400E+02  0.20000001622E+02 0.  0.
         12    1    1    2    0    0 -0.90052479248E+00 -0.86020976288E+01 -0.42530180043E+02  0.43400728600E+02  0.00000000000E+00 0. -1.
         11    1    3    3    0    0  0.17374825243E+01 -0.22008635277E+01 -0.93808904569E+00  0.29567984559E+01  0.51100000000E-03 0. -1.
        -11    1    3    3    0    0 -0.11225711916E+01  0.44911459488E+01  0.17067024550E+02  0.17683718084E+02  0.51100000000E-03 0.  1.
         12    1    3    3    0    0  0.28561345983E+00  0.63118152078E+01  0.26401244538E+02  0.27146754860E+02  0.00000000000E+00 0. -1.
</event>
<event>
 7    1  0.2812635E-010  0.4778727E+02  0.7816164E-02  0.1312668E+00
        -11   -1    0    0    0    0  0.00000000000E+00  0.00000000000E+00  0.45593999997E+02  0.45594000000E+02  0.51100000000E-03 0.  1.
         11   -1    0    0    0    0 -0.00000000000E+00 -0.00000000000E+00 -0.45593999997E+02  0.45594000000E+02  0.51100000000E-03 0. -1.
    9900012    2    1    2    0    0  0.36262614217E+02  0.25321631945E+01  0.23711481648E+02  0.47787269566E+02  0.19999993259E+02 0.  0.
         12    1    1    2    0    0 -0.36262614217E+02 -0.25321631945E+01 -0.23711481648E+02  0.43400730434E+02  0.00000000000E+00 0. -1.
         11    1    3    3    0    0  0.70245652159E+01 -0.37263354693E+01 -0.20901153722E+01  0.82218413407E+01  0.51100000000E-03 0. -1.
        -11    1    3    3    0    0  0.14135469748E+02  0.41758149757E+01  0.13197403360E+02  0.19784347132E+02  0.51100000000E-03 0.  1.
         12    1    3    3    0    0  0.15102579252E+02  0.20826836880E+01  0.12604193660E+02  0.19781081094E+02  0.00000000000E+00 0. -1.
</event>
<event>
 7    1  0.2812635E-010  0.4778726E+02  0.7816164E-02  0.1312668E+00
        -11   -1    0    0    0    0  0.00000000000E+00  0.00000000000E+00  0.45593999997E+02  0.45594000000E+02  0.51100000000E-03 0. -1.
         11   -1    0    0    0    0 -0.00000000000E+00 -0.00000000000E+00 -0.45593999997E+02  0.45594000000E+02  0.51100000000E-03 0.  1.
    9900012    2    1    2    0    0  0.10363046361E+02 -0.37922704185E+02 -0.18387496711E+02  0.47787259708E+02  0.19999948314E+02 0.  0.
         12    1    1    2    0    0 -0.10363046361E+02  0.37922704185E+02  0.18387496711E+02  0.43400740292E+02  0.00000000000E+00 0. -1.
         11    1    3    3    0    0 -0.36084256561E+01 -0.35121973050E+01 -0.33202593519E+01  0.60316157081E+01  0.51100000000E-03 0. -1.
        -11    1    3    3    0    0  0.13053366287E+02 -0.34961793443E+02 -0.15727236749E+02  0.40497695591E+02  0.51100000000E-03 0.  1.
         12    1    3    3    0    0  0.91810572963E+00  0.55128656330E+00  0.65999938944E+00  0.12579484090E+01  0.00000000000E+00 0. -1.
</event>
<event>
 7    1  0.2812635E-010  0.4778727E+02  0.7816164E-02  0.1312668E+00
        -11   -1    0    0    0    0  0.00000000000E+00  0.00000000000E+00  0.45593999997E+02  0.45594000000E+02  0.51100000000E-03 0.  1.
         11   -1    0    0    0    0 -0.00000000000E+00 -0.00000000000E+00 -0.45593999997E+02  0.45594000000E+02  0.51100000000E-03 0. -1.
    9900012    2    1    2    0    0 -0.36018996881E+02  0.35327076369E+01  0.23953603644E+02  0.47787270892E+02  0.19999999306E+02 0.  0.
         12    1    1    2    0    0  0.36018996881E+02 -0.35327076369E+01 -0.23953603644E+02  0.43400729108E+02  0.00000000000E+00 0. -1.
         11    1    3    3    0    0 -0.11909492109E+02 -0.73134694303E+01  0.11063734132E+02  0.17824955837E+02  0.51100000000E-03 0. -1.
        -11    1    3    3    0    0 -0.13855156023E+02  0.84756601372E+01  0.98989170140E+01  0.19020797079E+02  0.51100000000E-03 0.  1.
         12    1    3    3    0    0 -0.10254348749E+02  0.23705169300E+01  0.29909524980E+01  0.10941517976E+02  0.00000000000E+00 0. -1.
</event>
<event>
 7    1  0.2812635E-010  0.4778727E+02  0.7816164E-02  0.1312668E+00
        -11   -1    0    0    0    0  0.00000000000E+00  0.00000000000E+00  0.45593999997E+02  0.45594000000E+02  0.51100000000E-03 0. -1.
         11   -1    0    0    0    0 -0.00000000000E+00 -0.00000000000E+00 -0.45593999997E+02  0.45594000000E+02  0.51100000000E-03 0.  1.
    9900012    2    1    2    0    0  0.23998878947E+02  0.18721804085E+01 -0.36113325483E+02  0.47787268121E+02  0.19999986669E+02 0.  0.
         12    1    1    2    0    0 -0.23998878947E+02 -0.18721804085E+01  0.36113325483E+02  0.43400731879E+02  0.00000000000E+00 0. -1.
         11    1    3    3    0    0  0.18759756277E+01 -0.46342664466E+01 -0.14117821416E+02  0.14976935329E+02  0.51100000000E-03 0. -1.
        -11    1    3    3    0    0  0.12991077628E+02  0.63076901836E+01 -0.17315073544E+02  0.22546991495E+02  0.51100000000E-03 0.  1.
         12    1    3    3    0    0  0.91318256918E+01  0.19875667146E+00 -0.46804305226E+01  0.10263341296E+02  0.00000000000E+00 0. -1.
</event>
<event>
 7    1  0.2812635E-010  0.4778727E+02  0.7816164E-02  0.1312668E+00
        -11   -1    0    0    0    0  0.00000000000E+00  0.00000000000E+00  0.45593999997E+02  0.45594000000E+02  0.51100000000E-03 0.  1.
         11   -1    0    0    0    0 -0.00000000000E+00 -0.00000000000E+00 -0.45593999997E+02  0.45594000000E+02  0.51100000000E-03 0. -1.
    9900012    2    1    2    0    0  0.11959935494E+02 -0.26538945246E+02  0.32191113776E+02  0.47787268694E+02  0.19999989282E+02 0.  0.
         12    1    1    2    0    0 -0.11959935494E+02  0.26538945246E+02 -0.32191113776E+02  0.43400731306E+02  0.00000000000E+00 0. -1.
         11    1    3    3    0    0 -0.10982805563E+01  0.58438002690E+00 -0.18784010706E+01  0.22530226451E+01  0.51100000000E-03 0. -1.
        -11    1    3    3    0    0  0.70603024323E+01 -0.17358379544E+02  0.21725330454E+02  0.28690611608E+02  0.51100000000E-03 0.  1.
         12    1    3    3    0    0  0.59979136176E+01 -0.97649457291E+01  0.12344184393E+02  0.16843634441E+02  0.00000000000E+00 0. -1.
</event>
<event>
 7    1  0.2812635E-010  0.4778728E+02  0.7816164E-02  0.1312668E+00
        -11   -1    0    0    0    0  0.00000000000E+00  0.00000000000E+00  0.45593999997E+02  0.45594000000E+02  0.51100000000E-03 0. -1.
         11   -1    0    0    0    0 -0.00000000000E+00 -0.00000000000E+00 -0.45593999997E+02  0.45594000000E+02  0.51100000000E-03 0.  1.
    9900012    2    1    2    0    0 -0.22220693935E+02 -0.23936300965E+02 -0.28581762076E+02  0.47787275741E+02  0.20000021415E+02 0.  0.
         12    1    1    2    0    0  0.22220693935E+02  0.23936300965E+02  0.28581762076E+02  0.43400724259E+02  0.00000000000E+00 0. -1.
         11    1    3    3    0    0 -0.13101805109E+02 -0.84223019977E+01 -0.38074731723E+01  0.16034005122E+02  0.51100000000E-03 0. -1.
        -11    1    3    3    0    0 -0.70842817611E+01 -0.90896845245E+01 -0.21188730433E+02  0.24119944246E+02  0.51100000000E-03 0.  1.
        -12    1    3    3    0    0 -0.20346070647E+01 -0.64243144427E+01 -0.35855584710E+01  0.76333263729E+01  0.00000000000E+00 0.  1.
</event>
<event>
 7    1  0.2812635E-010  0.4778727E+02  0.7816164E-02  0.1312668E+00
        -11   -1    0    0    0    0  0.00000000000E+00  0.00000000000E+00  0.45593999997E+02  0.45594000000E+02  0.51100000000E-03 0.  1.
         11   -1    0    0    0    0 -0.00000000000E+00 -0.00000000000E+00 -0.45593999997E+02  0.45594000000E+02  0.51100000000E-03 0. -1.
    9900012    2    1    2    0    0 -0.32767279804E+02  0.26109276282E+01  0.28339225009E+02  0.47787271400E+02  0.20000001623E+02 0.  0.
         12    1    1    2    0    0  0.32767279804E+02 -0.26109276282E+01 -0.28339225009E+02  0.43400728600E+02  0.00000000000E+00 0. -1.
         11    1    3    3    0    0 -0.46377646539E+01 -0.16186735763E+01  0.15442772772E+02  0.16205190411E+02  0.51100000000E-03 0. -1.
        -11    1    3    3    0    0 -0.17293821740E+02  0.48813121694E+01  0.77787379994E+01  0.19580915300E+02  0.51100000000E-03 0.  1.
         12    1    3    3    0    0 -0.10835693410E+02 -0.65171096490E+00  0.51177142383E+01  0.12001165689E+02  0.00000000000E+00 0. -1.
</event>
<event>
 7    1  0.2812635E-010  0.4778727E+02  0.7816164E-02  0.1312668E+00
        -11   -1    0    0    0    0  0.00000000000E+00  0.00000000000E+00  0.45593999997E+02  0.45594000000E+02  0.51100000000E-03 0.  1.
         11   -1    0    0    0    0 -0.00000000000E+00 -0.00000000000E+00 -0.45593999997E+02  0.45594000000E+02  0.51100000000E-03 0. -1.
    9900012    2    1    2    0    0  0.78951579928E+01  0.12314435110E+02  0.40861283636E+02  0.47787270373E+02  0.19999996938E+02 0.  0.
         12    1    1    2    0    0 -0.78951579928E+01 -0.12314435110E+02 -0.40861283636E+02  0.43400729627E+02  0.00000000000E+00 0. -1.
         11    1    3    3    0    0 -0.18781303346E+01  0.85853875322E+01  0.11772549558E+02  0.14691125756E+02  0.51100000000E-03 0. -1.
        -11    1    3    3    0    0  0.73965215950E+01  0.25340862943E+01  0.29396185557E+02  0.30418182895E+02  0.51100000000E-03 0.  1.
         12    1    3    3    0    0  0.23767667324E+01  0.11949612839E+01 -0.30745147945E+00  0.26779617216E+01  0.00000000000E+00 0. -1.
</event>
<event>
 7    1  0.2812635E-010  0.4778730E+02  0.7816164E-02  0.1312668E+00
        -11   -1    0    0    0    0  0.00000000000E+00  0.00000000000E+00  0.45593999997E+02  0.45594000000E+02  0.51100000000E-03 0.  1.
         11   -1    0    0    0    0 -0.00000000000E+00 -0.00000000000E+00 -0.45593999997E+02  0.45594000000E+02  0.51100000000E-03 0. -1.
    9900012    2    1    2    0    0 -0.75079795262E+01 -0.14640991302E+02  0.40160833062E+02  0.47787298449E+02  0.20000124948E+02 0.  0.
         12    1    1    2    0    0  0.75079795262E+01  0.14640991302E+02 -0.40160833062E+02  0.43400701551E+02  0.00000000000E+00 0. -1.
         11    1    3    3    0    0  0.12180820789E+00 -0.93127847754E+01  0.13904574835E+02  0.16735590790E+02  0.51100000000E-03 0. -1.
        -11    1    3    3    0    0 -0.14407899579E+01  0.41579066597E+01  0.12385184932E+02  0.13143700756E+02  0.51100000000E-03 0.  1.
        -12    1    3    3    0    0 -0.61889977762E+01 -0.94861131866E+01  0.13871073295E+02  0.17908006903E+02  0.00000000000E+00 0.  1.
</event>
<event>
 7    1  0.2812635E-010  0.4778727E+02  0.7816164E-02  0.1312668E+00
        -11   -1    0    0    0    0  0.00000000000E+00  0.00000000000E+00  0.45593999997E+02  0.45594000000E+02  0.51100000000E-03 0.  1.
         11   -1    0    0    0    0 -0.00000000000E+00 -0.00000000000E+00 -0.45593999997E+02  0.45594000000E+02  0.51100000000E-03 0. -1.
    9900012    2    1    2    0    0  0.21556194786E+02  0.12122573956E+02  0.35665065509E+02  0.47787271541E+02  0.20000002266E+02 0.  0.
         12    1    1    2    0    0 -0.21556194786E+02 -0.12122573956E+02 -0.35665065509E+02  0.43400728459E+02  0.00000000000E+00 0. -1.
         11    1    3    3    0    0  0.10186238197E+02  0.88154030370E+01  0.51823487789E+01  0.14433555295E+02  0.51100000000E-03 0. -1.
        -11    1    3    3    0    0  0.78255991204E+01  0.52936041587E+01  0.20326425080E+02  0.22414856756E+02  0.51100000000E-03 0.  1.
         12    1    3    3    0    0  0.35443574687E+01 -0.19864332401E+01  0.10156291650E+02  0.10938859491E+02  0.00000000000E+00 0. -1.
</event>
<event>
 7    1  0.2812635E-010  0.4778727E+02  0.7816164E-02  0.1312668E+00
        -11   -1    0    0    0    0  0.00000000000E+00  0.00000000000E+00  0.45593999997E+02  0.45594000000E+02  0.51100000000E-03 0. -1.
         11   -1    0    0    0    0 -0.00000000000E+00 -0.00000000000E+00 -0.45593999997E+02  0.45594000000E+02  0.51100000000E-03 0.  1.
    9900012    2    1    2    0    0 -0.15563385708E+02  0.34601109348E+02 -0.21075285942E+02  0.47787269357E+02  0.19999992305E+02 0.  0.
         12    1    1    2    0    0  0.15563385708E+02 -0.34601109348E+02  0.21075285942E+02  0.43400730643E+02  0.00000000000E+00 0. -1.
         11    1    3    3    0    0 -0.38238531423E+01  0.44404471178E+01 -0.37080899438E+01  0.69346488557E+01  0.51100000000E-03 0. -1.
        -11    1    3    3    0    0 -0.71655436819E+01  0.27121457536E+02 -0.20300196364E+02  0.34626816888E+02  0.51100000000E-03 0.  1.
        -12    1    3    3    0    0 -0.45739888840E+01  0.30392046947E+01  0.29330003651E+01  0.62258036131E+01  0.00000000000E+00 0.  1.
</event>
<event>
 7    1  0.2812635E-010  0.4778726E+02  0.7816164E-02  0.1312668E+00
        -11   -1    0    0    0    0  0.00000000000E+00  0.00000000000E+00  0.45593999997E+02  0.45594000000E+02  0.51100000000E-03 0.  1.
         11   -1    0    0    0    0 -0.00000000000E+00 -0.00000000000E+00 -0.45593999997E+02  0.45594000000E+02  0.51100000000E-03 0. -1.
    9900012    2    1    2    0    0  0.11420054137E+02  0.14353696508E+02  0.39334186999E+02  0.47787256841E+02  0.19999935240E+02 0.  0.
         12    1    1    2    0    0 -0.11420054137E+02 -0.14353696508E+02 -0.39334186999E+02  0.43400743159E+02  0.00000000000E+00 0. -1.
         11    1    3    3    0    0  0.19958075020E+01  0.79163932407E+01  0.32780331159E+01  0.87976150687E+01  0.51100000000E-03 0.  1.
        -11    1    3    3    0    0  0.70915877746E+01 -0.80476978381E+00  0.15295517764E+02  0.16878718420E+02  0.51100000000E-03 0. -1.
         12    1    3    3    0    0  0.23326588602E+01  0.72420730512E+01  0.20760636119E+02  0.22110923352E+02  0.00000000000E+00 0. -1.
</event>
<event>
 7    1  0.2812635E-010  0.4778728E+02  0.7816164E-02  0.1312668E+00
        -11   -1    0    0    0    0  0.00000000000E+00  0.00000000000E+00  0.45593999997E+02  0.45594000000E+02  0.51100000000E-03 0. -1.
         11   -1    0    0    0    0 -0.00000000000E+00 -0.00000000000E+00 -0.45593999997E+02  0.45594000000E+02  0.51100000000E-03 0.  1.
    9900012    2    1    2    0    0 -0.19811816628E+01  0.75133613978E+01 -0.42699498666E+02  0.47787275736E+02  0.20000021391E+02 0.  0.
         12    1    1    2    0    0  0.19811816628E+01 -0.75133613978E+01  0.42699498666E+02  0.43400724264E+02  0.00000000000E+00 0. -1.
         11    1    3    3    0    0  0.22545717470E+01 -0.32698298133E+01 -0.38885395797E+01  0.55583829568E+01  0.51100000000E-03 0. -1.
        -11    1    3    3    0    0 -0.58286675401E+01  0.62964897446E+01 -0.35261335544E+02  0.36290231923E+02  0.51100000000E-03 0.  1.
        -12    1    3    3    0    0  0.15929141302E+01  0.44867014664E+01 -0.35496235428E+01  0.59386608567E+01  0.00000000000E+00 0.  1.
</event>
<event>
 7    1  0.2812635E-010  0.4778727E+02  0.7816164E-02  0.1312668E+00
        -11   -1    0    0    0    0  0.00000000000E+00  0.00000000000E+00  0.45593999997E+02  0.45594000000E+02  0.51100000000E-03 0.  1.
         11   -1    0    0    0    0 -0.00000000000E+00 -0.00000000000E+00 -0.45593999997E+02  0.45594000000E+02  0.51100000000E-03 0. -1.
    9900012    2    1    2    0    0  0.21286041565E+02  0.44938376013E+00  0.37819649344E+02  0.47787269732E+02  0.19999994017E+02 0.  0.
         12    1    1    2    0    0 -0.21286041565E+02 -0.44938376013E+00 -0.37819649344E+02  0.43400730268E+02  0.00000000000E+00 0. -1.
         11    1    3    3    0    0 -0.16893520029E+01 -0.16568091427E+01  0.70669891939E+01  0.74526011066E+01  0.51100000000E-03 0. -1.
        -11    1    3    3    0    0  0.14141040329E+02  0.46637415620E+01  0.10894725075E+02  0.18450326330E+02  0.51100000000E-03 0.  1.
         12    1    3    3    0    0  0.88343532386E+01 -0.25575486592E+01  0.19857935075E+02  0.21884342296E+02  0.00000000000E+00 0. -1.
</event>
<event>
 7    1  0.2812635E-010  0.4778727E+02  0.7816164E-02  0.1312668E+00
        -11   -1    0    0    0    0  0.00000000000E+00  0.00000000000E+00  0.45593999997E+02  0.45594000000E+02  0.51100000000E-03 0. -1.
         11   -1    0    0    0    0 -0.00000000000E+00 -0.00000000000E+00 -0.45593999997E+02  0.45594000000E+02  0.51100000000E-03 0.  1.
    9900012    2    1    2    0    0 -0.31960415215E+02 -0.82627243019E+01  0.28175926580E+02  0.47787267376E+02  0.19999983276E+02 0.  0.
         12    1    1    2    0    0  0.31960415215E+02  0.82627243019E+01 -0.28175926580E+02  0.43400732624E+02  0.00000000000E+00 0. -1.
         11    1    3    3    0    0 -0.62865602885E+01  0.63737864222E+01  0.76513871718E+01  0.11776659948E+02  0.51100000000E-03 0. -1.
        -11    1    3    3    0    0 -0.11441003417E+02 -0.71267285228E+01  0.87436713162E+01  0.16066692471E+02  0.51100000000E-03 0.  1.
         12    1    3    3    0    0 -0.14232851510E+02 -0.75097822013E+01  0.11780868092E+02  0.19943914957E+02  0.00000000000E+00 0. -1.
</event>
<event>
 7    1  0.2812635E-010  0.4778723E+02  0.7816164E-02  0.1312668E+00
        -11   -1    0    0    0    0  0.00000000000E+00  0.00000000000E+00  0.45593999997E+02  0.45594000000E+02  0.51100000000E-03 0.  1.
         11   -1    0    0    0    0 -0.00000000000E+00 -0.00000000000E+00 -0.45593999997E+02  0.45594000000E+02  0.51100000000E-03 0. -1.
    9900012    2    1    2    0    0 -0.69772721686E+01  0.24352061398E+02  0.35240907307E+02  0.47787230778E+02  0.19999816407E+02 0.  0.
         12    1    1    2    0    0  0.69772721686E+01 -0.24352061398E+02 -0.35240907307E+02  0.43400769222E+02  0.00000000000E+00 0. -1.
         11    1    3    3    0    0  0.39062769671E+01  0.43133410133E+01  0.57575720466E+01  0.81861802187E+01  0.51100000000E-03 0. -1.
        -11    1    3    3    0    0 -0.10938621822E+02  0.92040987042E+01  0.10478881304E+02  0.17725005895E+02  0.51100000000E-03 0.  1.
        -12    1    3    3    0    0  0.55072686398E-01  0.10834621681E+02  0.19004453957E+02  0.21876044664E+02  0.00000000000E+00 0.  1.
</event>
<event>
 7    1  0.2812635E-010  0.4778727E+02  0.7816164E-02  0.1312668E+00
        -11   -1    0    0    0    0  0.00000000000E+00  0.00000000000E+00  0.45593999997E+02  0.45594000000E+02  0.51100000000E-03 0.  1.
         11   -1    0    0    0    0 -0.00000000000E+00 -0.00000000000E+00 -0.45593999997E+02  0.45594000000E+02  0.51100000000E-03 0. -1.
    9900012    2    1    2    0    0  0.17939980025E+01  0.43362901711E+02 -0.25222828269E+00  0.47787270827E+02  0.19999999007E+02 0.  0.
         12    1    1    2    0    0 -0.17939980025E+01 -0.43362901711E+02  0.25222828269E+00  0.43400729173E+02  0.00000000000E+00 0. -1.
         11    1    3    3    0    0  0.10311481297E+01  0.60516495494E+01 -0.70631240288E+01  0.93580687132E+01  0.51100000000E-03 0. -1.
        -11    1    3    3    0    0  0.80839482389E+00  0.23022678681E+01  0.18679200439E+01  0.30729570579E+01  0.51100000000E-03 0.  1.
         12    1    3    3    0    0 -0.45544951062E-01  0.35008984294E+02  0.49429757021E+01  0.35356245056E+02  0.00000000000E+00 0. -1.
</event>
<event>
 7    1  0.2812635E-010  0.4778727E+02  0.7816164E-02  0.1312668E+00
        -11   -1    0    0    0    0  0.00000000000E+00  0.00000000000E+00  0.45593999997E+02  0.45594000000E+02  0.51100000000E-03 0. -1.
         11   -1    0    0    0    0 -0.00000000000E+00 -0.00000000000E+00 -0.45593999997E+02  0.45594000000E+02  0.51100000000E-03 0.  1.
    9900012    2    1    2    0    0  0.24272965492E+02 -0.27898685473E+02 -0.22718059170E+02  0.47787265936E+02  0.19999976707E+02 0.  0.
         12    1    1    2    0    0 -0.24272965492E+02  0.27898685473E+02  0.22718059170E+02  0.43400734064E+02  0.00000000000E+00 0. -1.
         11    1    3    3    0    0 -0.21163387558E+01  0.22009527324E+00 -0.89579092435E+00  0.23086301783E+01  0.51100000000E-03 0. -1.
        -11    1    3    3    0    0  0.17254696153E+02 -0.23403466182E+02 -0.12678210988E+02  0.31720400420E+02  0.51100000000E-03 0.  1.
         12    1    3    3    0    0  0.91346080941E+01 -0.47153145645E+01 -0.91440572576E+01  0.13758235338E+02  0.00000000000E+00 0. -1.
</event>
<event>
 7    1  0.2812635E-010  0.4778727E+02  0.7816164E-02  0.1312668E+00
        -11   -1    0    0    0    0  0.00000000000E+00  0.00000000000E+00  0.45593999997E+02  0.45594000000E+02  0.51100000000E-03 0.  1.
         11   -1    0    0    0    0 -0.00000000000E+00 -0.00000000000E+00 -0.45593999997E+02  0.45594000000E+02  0.51100000000E-03 0. -1.
    9900012    2    1    2    0    0 -0.15664373825E+02 -0.95039533199E+01  0.39343684632E+02  0.47787271245E+02  0.20000000915E+02 0.  0.
         12    1    1    2    0    0  0.15664373825E+02  0.95039533199E+01 -0.39343684632E+02  0.43400728755E+02  0.00000000000E+00 0. -1.
         11    1    3    3    0    0 -0.26786512823E+01 -0.10529381918E+02  0.17903060649E+02  0.20941887144E+02  0.51100000000E-03 0. -1.
        -11    1    3    3    0    0 -0.14419190241E+02  0.12352883220E+01  0.20584176536E+02  0.25162418571E+02  0.51100000000E-03 0.  1.
        -12    1    3    3    0    0  0.14334676984E+01 -0.20985972427E+00  0.85644744710E+00  0.16829655302E+01  0.00000000000E+00 0.  1.
</event>
<event>
 7    1  0.2812635E-010  0.4778727E+02  0.7816164E-02  0.1312668E+00
        -11   -1    0    0    0    0  0.00000000000E+00  0.00000000000E+00  0.45593999997E+02  0.45594000000E+02  0.51100000000E-03 0.  1.
         11   -1    0    0    0    0 -0.00000000000E+00 -0.00000000000E+00 -0.45593999997E+02  0.45594000000E+02  0.51100000000E-03 0. -1.
    9900012    2    1    2    0    0  0.31016252663E+01  0.30903869525E+02  0.30314252430E+02  0.47787272687E+02  0.20000007489E+02 0.  0.
         12    1    1    2    0    0 -0.31016252663E+01 -0.30903869525E+02 -0.30314252430E+02  0.43400727313E+02  0.00000000000E+00 0. -1.
         11    1    3    3    0    0 -0.63421570335E+01  0.11046871115E+02  0.68064718489E+01  0.14442450504E+02  0.51100000000E-03 0. -1.
        -11    1    3    3    0    0  0.51712885516E+01  0.25833438293E+01  0.46673956379E+01  0.74297020752E+01  0.51100000000E-03 0.  1.
         12    1    3    3    0    0  0.42724937482E+01  0.17273654580E+02  0.18840384943E+02  0.25915120108E+02  0.00000000000E+00 0. -1.
</event>
<event>
 7    1  0.2812635E-010  0.4778727E+02  0.7816164E-02  0.1312668E+00
        -11   -1    0    0    0    0  0.00000000000E+00  0.00000000000E+00  0.45593999997E+02  0.45594000000E+02  0.51100000000E-03 0. -1.
         11   -1    0    0    0    0 -0.00000000000E+00 -0.00000000000E+00 -0.45593999997E+02  0.45594000000E+02  0.51100000000E-03 0.  1.
    9900012    2    1    2    0    0  0.26693729347E+02 -0.31469215213E+02 -0.13444564376E+02  0.47787274156E+02  0.20000014185E+02 0.  0.
         12    1    1    2    0    0 -0.26693729347E+02  0.31469215213E+02  0.13444564376E+02  0.43400725844E+02  0.00000000000E+00 0. -1.
         11    1    3    3    0    0  0.27041831556E+01  0.10939524702E+01 -0.32262025720E+01  0.43494507519E+01  0.51100000000E-03 0. -1.
        -11    1    3    3    0    0  0.21058372725E+02 -0.26800915150E+02 -0.12893127789E+02  0.36441416810E+02  0.51100000000E-03 0.  1.
        -12    1    3    3    0    0  0.29311734667E+01 -0.57622525330E+01  0.26747659853E+01  0.69964065935E+01  0.00000000000E+00 0.  1.
</event>
<event>
 7    1  0.2812635E-010  0.4778727E+02  0.7816164E-02  0.1312668E+00
        -11   -1    0    0    0    0  0.00000000000E+00  0.00000000000E+00  0.45593999997E+02  0.45594000000E+02  0.51100000000E-03 0.  1.
         11   -1    0    0    0    0 -0.00000000000E+00 -0.00000000000E+00 -0.45593999997E+02  0.45594000000E+02  0.51100000000E-03 0. -1.
    9900012    2    1    2    0    0  0.41940339961E+02  0.25313528238E+01  0.10873059371E+02  0.47787270937E+02  0.19999999509E+02 0.  0.
         12    1    1    2    0    0 -0.41940339961E+02 -0.25313528238E+01 -0.10873059371E+02  0.43400729063E+02  0.00000000000E+00 0. -1.
         11    1    3    3    0    0  0.17094029752E+01 -0.42967110062E+01  0.62055576949E+00  0.46657125637E+01  0.51100000000E-03 0. -1.
        -11    1    3    3    0    0  0.35854740830E+02  0.28683454975E+01  0.84169317060E+01  0.36940960809E+02  0.51100000000E-03 0.  1.
         12    1    3    3    0    0  0.43761961551E+01  0.39597183326E+01  0.18355718955E+01  0.61805975638E+01  0.00000000000E+00 0. -1.
</event>
<event>
 7    1  0.2812635E-010  0.4778722E+02  0.7816164E-02  0.1312668E+00
        -11   -1    0    0    0    0  0.00000000000E+00  0.00000000000E+00  0.45593999997E+02  0.45594000000E+02  0.51100000000E-03 0.  1.
         11   -1    0    0    0    0 -0.00000000000E+00 -0.00000000000E+00 -0.45593999997E+02  0.45594000000E+02  0.51100000000E-03 0. -1.
    9900012    2    1    2    0    0  0.28012991124E+01 -0.43008944114E+01  0.43096200439E+02  0.47787222798E+02  0.19999780024E+02 0.  0.
         12    1    1    2    0    0 -0.28012991124E+01  0.43008944114E+01 -0.43096200439E+02  0.43400777202E+02  0.00000000000E+00 0. -1.
         11    1    3    3    0    0  0.16811053148E+01  0.23693539915E+01  0.42686822901E+01  0.51634874041E+01  0.51100000000E-03 0. -1.
        -11    1    3    3    0    0  0.23550419328E+01 -0.29467158474E+01  0.17878403188E+00  0.37764163941E+01  0.51100000000E-03 0.  1.
        -12    1    3    3    0    0 -0.12348481352E+01 -0.37235325555E+01  0.38648734117E+02  0.38847319000E+02  0.00000000000E+00 0.  1.
</event>
<event>
 7    1  0.2812635E-010  0.4778726E+02  0.7816164E-02  0.1312668E+00
        -11   -1    0    0    0    0  0.00000000000E+00  0.00000000000E+00  0.45593999997E+02  0.45594000000E+02  0.51100000000E-03 0.  1.
         11   -1    0    0    0    0 -0.00000000000E+00 -0.00000000000E+00 -0.45593999997E+02  0.45594000000E+02  0.51100000000E-03 0. -1.
    9900012    2    1    2    0    0 -0.40621877309E+02  0.20850361163E+01  0.15137355270E+02  0.47787264796E+02  0.19999971510E+02 0.  0.
         12    1    1    2    0    0  0.40621877309E+02 -0.20850361163E+01 -0.15137355270E+02  0.43400735204E+02  0.00000000000E+00 0. -1.
         11    1    3    3    0    0 -0.26300393576E+01 -0.17441753417E+01 -0.25402110496E+01  0.40511636702E+01  0.51100000000E-03 0. -1.
        -11    1    3    3    0    0 -0.36894036242E+02  0.23509782523E+01  0.18905954003E+02  0.41522669785E+02  0.51100000000E-03 0.  1.
        -12    1    3    3    0    0 -0.10978017085E+01  0.14782332057E+01 -0.12283876832E+01  0.22134313411E+01  0.00000000000E+00 0.  1.
</event>
<event>
 7    1  0.2812635E-010  0.4778727E+02  0.7816164E-02  0.1312668E+00
        -11   -1    0    0    0    0  0.00000000000E+00  0.00000000000E+00  0.45593999997E+02  0.45594000000E+02  0.51100000000E-03 0.  1.
         11   -1    0    0    0    0 -0.00000000000E+00 -0.00000000000E+00 -0.45593999997E+02  0.45594000000E+02  0.51100000000E-03 0. -1.
    9900012    2    1    2    0    0  0.30353221493E+02 -0.26392617367E+02  0.16301378931E+02  0.47787271186E+02  0.20000000646E+02 0.  0.
         12    1    1    2    0    0 -0.30353221493E+02  0.26392617367E+02 -0.16301378931E+02  0.43400728814E+02  0.00000000000E+00 0. -1.
         11    1    3    3    0    0  0.20385690237E+02 -0.18278395132E+02  0.16839967834E+02  0.32144371388E+02  0.51100000000E-03 0. -1.
        -11    1    3    3    0    0  0.41450918035E+01 -0.80559366204E+01  0.20209125136E+01  0.92824559542E+01  0.51100000000E-03 0.  1.
         12    1    3    3    0    0  0.58224394523E+01 -0.58285615178E-01 -0.25595014161E+01  0.63604438436E+01  0.00000000000E+00 0. -1.
</event>
<event>
 7    1  0.2812635E-010  0.4778727E+02  0.7816164E-02  0.1312668E+00
        -11   -1    0    0    0    0  0.00000000000E+00  0.00000000000E+00  0.45593999997E+02  0.45594000000E+02  0.51100000000E-03 0.  1.
         11   -1    0    0    0    0 -0.00000000000E+00 -0.00000000000E+00 -0.45593999997E+02  0.45594000000E+02  0.51100000000E-03 0. -1.
    9900012    2    1    2    0    0 -0.13517699228E+02  0.39858100750E+02 -0.10593718645E+02  0.47787271175E+02  0.20000000594E+02 0.  0.
         12    1    1    2    0    0  0.13517699228E+02 -0.39858100750E+02  0.10593718645E+02  0.43400728825E+02  0.00000000000E+00 0. -1.
         11    1    3    3    0    0 -0.30412096321E+01  0.20496998361E+02 -0.13662566093E+02  0.24820185542E+02  0.51100000000E-03 0. -1.
        -11    1    3    3    0    0 -0.49260879611E+01  0.14211541238E+02  0.79667520471E+00  0.15062169120E+02  0.51100000000E-03 0.  1.
         12    1    3    3    0    0 -0.55504016352E+01  0.51495611515E+01  0.22721722439E+01  0.79049165126E+01  0.00000000000E+00 0. -1.
</event>
<event>
 7    1  0.2812635E-010  0.4778728E+02  0.7816164E-02  0.1312668E+00
        -11   -1    0    0    0    0  0.00000000000E+00  0.00000000000E+00  0.45593999997E+02  0.45594000000E+02  0.51100000000E-03 0.  1.
         11   -1    0    0    0    0 -0.00000000000E+00 -0.00000000000E+00 -0.45593999997E+02  0.45594000000E+02  0.51100000000E-03 0. -1.
    9900012    2    1    2    0    0 -0.24077940108E+02 -0.20004816589E+02  0.30061318662E+02  0.47787276892E+02  0.20000026660E+02 0.  0.
         12    1    1    2    0    0  0.24077940108E+02  0.20004816589E+02 -0.30061318662E+02  0.43400723108E+02  0.00000000000E+00 0. -1.
         11    1    3    3    0    0 -0.12800809161E+02 -0.78476763286E-01  0.85259684272E+01  0.15380475014E+02  0.51100000000E-03 0. -1.
        -11    1    3    3    0    0 -0.16643178966E+01 -0.10543253717E+02  0.11074658140E+02  0.15381098991E+02  0.51100000000E-03 0.  1.
        -12    1    3    3    0    0 -0.96128130509E+01 -0.93830861086E+01  0.10460692095E+02  0.17025702886E+02  0.00000000000E+00 0.  1.
</event>
<event>
 7    1  0.2812635E-010  0.4778721E+02  0.7816164E-02  0.1312668E+00
        -11   -1    0    0    0    0  0.00000000000E+00  0.00000000000E+00  0.45593999997E+02  0.45594000000E+02  0.51100000000E-03 0. -1.
         11   -1    0    0    0    0 -0.00000000000E+00 -0.00000000000E+00 -0.45593999997E+02  0.45594000000E+02  0.51100000000E-03 0.  1.
    9900012    2    1    2    0    0  0.41995923413E+02  0.55752869730E+01  0.94280020394E+01  0.47787209332E+02  0.19999718628E+02 0.  0.
         12    1    1    2    0    0 -0.41995923413E+02 -0.55752869730E+01 -0.94280020394E+01  0.43400790668E+02  0.00000000000E+00 0. -1.
         11    1    3    3    0    0  0.16517353986E+02 -0.97700255296E+00  0.64848848865E+01  0.17771641706E+02  0.51100000000E-03 0. -1.
        -11    1    3    3    0    0  0.35893401878E+01  0.59017989571E+01 -0.26750922030E+01  0.74074767951E+01  0.51100000000E-03 0.  1.
        -12    1    3    3    0    0  0.21889229239E+02  0.65049056886E+00  0.56182093558E+01  0.22608090831E+02  0.00000000000E+00 0.  1.
</event>
<event>
 7    1  0.2812635E-010  0.4778727E+02  0.7816164E-02  0.1312668E+00
        -11   -1    0    0    0    0  0.00000000000E+00  0.00000000000E+00  0.45593999997E+02  0.45594000000E+02  0.51100000000E-03 0.  1.
         11   -1    0    0    0    0 -0.00000000000E+00 -0.00000000000E+00 -0.45593999997E+02  0.45594000000E+02  0.51100000000E-03 0. -1.
    9900012    2    1    2    0    0  0.82979951086E+01 -0.23941152729E+02 -0.35236166320E+02  0.47787274963E+02  0.20000017864E+02 0.  0.
         12    1    1    2    0    0 -0.82979951086E+01  0.23941152729E+02  0.35236166320E+02  0.43400725037E+02  0.00000000000E+00 0. -1.
         11    1    3    3    0    0  0.20698706146E+01 -0.85235059705E+01 -0.17309545349E+01  0.89403983274E+01  0.51100000000E-03 0. -1.
        -11    1    3    3    0    0  0.13246610906E+01 -0.90465495816E+01 -0.26996977690E+02  0.28503185629E+02  0.51100000000E-03 0.  1.
         12    1    3    3    0    0  0.49034634034E+01 -0.63710971773E+01 -0.65082340950E+01  0.10343691006E+02  0.00000000000E+00 0. -1.
</event>
<event>
 7    1  0.2812635E-010  0.4778727E+02  0.7816164E-02  0.1312668E+00
        -11   -1    0    0    0    0  0.00000000000E+00  0.00000000000E+00  0.45593999997E+02  0.45594000000E+02  0.51100000000E-03 0.  1.
         11   -1    0    0    0    0 -0.00000000000E+00 -0.00000000000E+00 -0.45593999997E+02  0.45594000000E+02  0.51100000000E-03 0. -1.
    9900012    2    1    2    0    0 -0.32279766719E+02  0.23367270800E+02  0.17193335101E+02  0.47787268946E+02  0.19999990434E+02 0.  0.
         12    1    1    2    0    0  0.32279766719E+02 -0.23367270800E+02 -0.17193335101E+02  0.43400731054E+02  0.00000000000E+00 0. -1.
         11    1    3    3    0    0 -0.12977754207E+02  0.10064980172E+02  0.13480485128E+02  0.21247338884E+02  0.51100000000E-03 0. -1.
        -11    1    3    3    0    0 -0.12432795534E+02  0.15582159088E+01  0.39769934481E+00  0.12536371350E+02  0.51100000000E-03 0.  1.
         12    1    3    3    0    0 -0.68692169788E+01  0.11744074719E+02  0.33151506283E+01  0.14003558712E+02  0.00000000000E+00 0. -1.
</event>
<event>
 7    1  0.2812635E-010  0.4778727E+02  0.7816164E-02  0.1312668E+00
        -11   -1    0    0    0    0  0.00000000000E+00  0.00000000000E+00  0.45593999997E+02  0.45594000000E+02  0.51100000000E-03 0.  1.
         11   -1    0    0    0    0 -0.00000000000E+00 -0.00000000000E+00 -0.45593999997E+02  0.45594000000E+02  0.51100000000E-03 0. -1.
    9900012    2    1    2    0    0  0.16045439635E+02  0.37532637687E+02  0.14746810343E+02  0.47787269130E+02  0.19999991269E+02 0.  0.
         12    1    1    2    0    0 -0.16045439635E+02 -0.37532637687E+02 -0.14746810343E+02  0.43400730870E+02  0.00000000000E+00 0. -1.
         11    1    3    3    0    0  0.83447145027E+01  0.38185056550E+01  0.49524114578E+01  0.10427925253E+02  0.51100000000E-03 0. -1.
        -11    1    3    3    0    0  0.67493819910E+01  0.88030424107E+01  0.37306437107E+01  0.11703222449E+02  0.51100000000E-03 0.  1.
         12    1    3    3    0    0  0.95134314154E+00  0.24911089621E+02  0.60637551740E+01  0.25656121427E+02  0.00000000000E+00 0. -1.
</event>
<event>
 7    1  0.2812635E-010  0.4778727E+02  0.7816164E-02  0.1312668E+00
        -11   -1    0    0    0    0  0.00000000000E+00  0.00000000000E+00  0.45593999997E+02  0.45594000000E+02  0.51100000000E-03 0.  1.
         11   -1    0    0    0    0 -0.00000000000E+00 -0.00000000000E+00 -0.45593999997E+02  0.45594000000E+02  0.51100000000E-03 0. -1.
    9900012    2    1    2    0    0 -0.18575340168E+02  0.36305434504E+02 -0.14849101960E+02  0.47787266528E+02  0.19999979410E+02 0.  0.
         12    1    1    2    0    0  0.18575340168E+02 -0.36305434504E+02  0.14849101960E+02  0.43400733472E+02  0.00000000000E+00 0. -1.
         11    1    3    3    0    0 -0.79216636668E+01  0.17852018193E+02  0.17732008081E+01  0.19611005843E+02  0.51100000000E-03 0. -1.
        -11    1    3    3    0    0 -0.24084311445E+01  0.11420273568E+02 -0.10660485912E+02  0.15807249890E+02  0.51100000000E-03 0.  1.
         12    1    3    3    0    0 -0.82452453566E+01  0.70331427429E+01 -0.59618168558E+01  0.12369010795E+02  0.00000000000E+00 0. -1.
</event>
<event>
 7    1  0.2812635E-010  0.4778727E+02  0.7816164E-02  0.1312668E+00
        -11   -1    0    0    0    0  0.00000000000E+00  0.00000000000E+00  0.45593999997E+02  0.45594000000E+02  0.51100000000E-03 0. -1.
         11   -1    0    0    0    0 -0.00000000000E+00 -0.00000000000E+00 -0.45593999997E+02  0.45594000000E+02  0.51100000000E-03 0.  1.
    9900012    2    1    2    0    0  0.31631348607E+02  0.19397735868E+02  0.22512417782E+02  0.47787270445E+02  0.19999997268E+02 0.  0.
         12    1    1    2    0    0 -0.31631348607E+02 -0.19397735868E+02 -0.22512417782E+02  0.43400729555E+02  0.00000000000E+00 0. -1.
         11    1    3    3    0    0 -0.16054023303E+00  0.16210815422E+01  0.75311024893E+01  0.77052698524E+01  0.51100000000E-03 0. -1.
        -11    1    3    3    0    0  0.17615328598E+02  0.58044486778E+01  0.87562755222E+01  0.20510089891E+02  0.51100000000E-03 0.  1.
        -12    1    3    3    0    0  0.14176560242E+02  0.11972205648E+02  0.62250397704E+01  0.19571910702E+02  0.00000000000E+00 0.  1.
</event>
<event>
 7    1  0.2812635E-010  0.4778727E+02  0.7816164E-02  0.1312668E+00
        -11   -1    0    0    0    0  0.00000000000E+00  0.00000000000E+00  0.45593999997E+02  0.45594000000E+02  0.51100000000E-03 0. -1.
         11   -1    0    0    0    0 -0.00000000000E+00 -0.00000000000E+00 -0.45593999997E+02  0.45594000000E+02  0.51100000000E-03 0.  1.
    9900012    2    1    2    0    0 -0.14336957559E+01  0.43324224300E+02  0.21399580817E+01  0.47787270567E+02  0.19999997823E+02 0.  0.
         12    1    1    2    0    0  0.14336957559E+01 -0.43324224300E+02 -0.21399580817E+01  0.43400729433E+02  0.00000000000E+00 0. -1.
         11    1    3    3    0    0 -0.32102545297E+01  0.30517844444E+01  0.39873400952E+01  0.59596982924E+01  0.51100000000E-03 0. -1.
        -11    1    3    3    0    0  0.55282449613E+01  0.20977269381E+02 -0.39804964262E+01  0.22055649505E+02  0.51100000000E-03 0.  1.
         12    1    3    3    0    0 -0.37516861874E+01  0.19295170474E+02  0.21331144127E+01  0.19771922769E+02  0.00000000000E+00 0. -1.
</event>
<event>
 7    1  0.2812635E-010  0.4778727E+02  0.7816164E-02  0.1312668E+00
        -11   -1    0    0    0    0  0.00000000000E+00  0.00000000000E+00  0.45593999997E+02  0.45594000000E+02  0.51100000000E-03 0.  1.
         11   -1    0    0    0    0 -0.00000000000E+00 -0.00000000000E+00 -0.45593999997E+02  0.45594000000E+02  0.51100000000E-03 0. -1.
    9900012    2    1    2    0    0  0.23127970874E+02 -0.25494192560E+02  0.26434187697E+02  0.47787272238E+02  0.20000005442E+02 0.  0.
         12    1    1    2    0    0 -0.23127970874E+02  0.25494192560E+02 -0.26434187697E+02  0.43400727762E+02  0.00000000000E+00 0. -1.
         11    1    3    3    0    0 -0.23879026978E+01 -0.47748874278E+01  0.69706378244E+01  0.87801720475E+01  0.51100000000E-03 0. -1.
        -11    1    3    3    0    0  0.15663842542E+02 -0.16886991364E+02  0.11329489750E+02  0.25668731538E+02  0.51100000000E-03 0.  1.
         12    1    3    3    0    0  0.98520310296E+01 -0.38323137689E+01  0.81340601234E+01  0.13338368653E+02  0.00000000000E+00 0. -1.
</event>
<event>
 7    1  0.2812635E-010  0.4778725E+02  0.7816164E-02  0.1312668E+00
        -11   -1    0    0    0    0  0.00000000000E+00  0.00000000000E+00  0.45593999997E+02  0.45594000000E+02  0.51100000000E-03 0.  1.
         11   -1    0    0    0    0 -0.00000000000E+00 -0.00000000000E+00 -0.45593999997E+02  0.45594000000E+02  0.51100000000E-03 0. -1.
    9900012    2    1    2    0    0 -0.28905702750E+02 -0.26360375951E+02  0.18794031188E+02  0.47787254845E+02  0.19999926139E+02 0.  0.
         12    1    1    2    0    0  0.28905702750E+02  0.26360375951E+02 -0.18794031188E+02  0.43400745155E+02  0.00000000000E+00 0. -1.
         11    1    3    3    0    0  0.92528766977E+00  0.47675348061E+00  0.74382348890E+00  0.12793454564E+01  0.51100000000E-03 0. -1.
        -11    1    3    3    0    0 -0.29848647582E+02 -0.25418450670E+02  0.20066814376E+02  0.44042211983E+02  0.51100000000E-03 0.  1.
        -12    1    3    3    0    0  0.17657162186E-01 -0.14186787615E+01 -0.20166066769E+01  0.24656974050E+01  0.00000000000E+00 0.  1.
</event>
<event>
 7    1  0.2812635E-010  0.4778727E+02  0.7816164E-02  0.1312668E+00
        -11   -1    0    0    0    0  0.00000000000E+00  0.00000000000E+00  0.45593999997E+02  0.45594000000E+02  0.51100000000E-03 0.  1.
         11   -1    0    0    0    0 -0.00000000000E+00 -0.00000000000E+00 -0.45593999997E+02  0.45594000000E+02  0.51100000000E-03 0. -1.
    9900012    2    1    2    0    0 -0.31343210106E+02  0.22942444600E+02  0.19361576095E+02  0.47787271748E+02  0.20000003208E+02 0.  0.
         12    1    1    2    0    0  0.31343210106E+02 -0.22942444600E+02 -0.19361576095E+02  0.43400728252E+02  0.00000000000E+00 0. -1.
         11    1    3    3    0    0 -0.50647664194E+01  0.17685041895E+01  0.90317195408E+01  0.10504828608E+02  0.51100000000E-03 0. -1.
        -11    1    3    3    0    0 -0.70730051340E+01  0.10326296714E+02 -0.86635249549E+00  0.12546329039E+02  0.51100000000E-03 0.  1.
        -12    1    3    3    0    0 -0.19205438552E+02  0.10847643696E+02  0.11196209049E+02  0.24736114101E+02  0.00000000000E+00 0.  1.
</event>
<event>
 7    1  0.2812635E-010  0.4778727E+02  0.7816164E-02  0.1312668E+00
        -11   -1    0    0    0    0  0.00000000000E+00  0.00000000000E+00  0.45593999997E+02  0.45594000000E+02  0.51100000000E-03 0.  1.
         11   -1    0    0    0    0 -0.00000000000E+00 -0.00000000000E+00 -0.45593999997E+02  0.45594000000E+02  0.51100000000E-03 0. -1.
    9900012    2    1    2    0    0 -0.25358989178E+02 -0.12927042861E+02  0.32763339028E+02  0.47787272431E+02  0.20000006322E+02 0.  0.
         12    1    1    2    0    0  0.25358989178E+02  0.12927042861E+02 -0.32763339028E+02  0.43400727569E+02  0.00000000000E+00 0. -1.
         11    1    3    3    0    0 -0.82680216826E+01 -0.41754967526E+01  0.80755766001E+01  0.12288608276E+02  0.51100000000E-03 0. -1.
        -11    1    3    3    0    0 -0.16360641447E+02 -0.55969364078E+00  0.11683225502E+02  0.20111728020E+02  0.51100000000E-03 0.  1.
        -12    1    3    3    0    0 -0.73032604779E+00 -0.81918524674E+01  0.13004536926E+02  0.15386936135E+02  0.00000000000E+00 0.  1.
</event>
<event>
 7    1  0.2812635E-010  0.4778727E+02  0.7816164E-02  0.1312668E+00
        -11   -1    0    0    0    0  0.00000000000E+00  0.00000000000E+00  0.45593999997E+02  0.45594000000E+02  0.51100000000E-03 0.  1.
         11   -1    0    0    0    0 -0.00000000000E+00 -0.00000000000E+00 -0.45593999997E+02  0.45594000000E+02  0.51100000000E-03 0. -1.
    9900012    2    1    2    0    0 -0.72871260889E+01  0.30183680846E+02  0.30322712414E+02  0.47787266317E+02  0.19999978448E+02 0.  0.
         12    1    1    2    0    0  0.72871260889E+01 -0.30183680846E+02 -0.30322712414E+02  0.43400733683E+02  0.00000000000E+00 0. -1.
         11    1    3    3    0    0 -0.10035165989E+02  0.23256792244E+02  0.12093596386E+02  0.28068452322E+02  0.51100000000E-03 0. -1.
        -11    1    3    3    0    0  0.21868328148E+01  0.43617872382E+01  0.12407862883E+02  0.13332759926E+02  0.51100000000E-03 0.  1.
         12    1    3    3    0    0  0.56120708563E+00  0.25651013635E+01  0.58212531456E+01  0.63860540699E+01  0.00000000000E+00 0. -1.
</event>
<event>
 7    1  0.2812635E-010  0.4778727E+02  0.7816164E-02  0.1312668E+00
        -11   -1    0    0    0    0  0.00000000000E+00  0.00000000000E+00  0.45593999997E+02  0.45594000000E+02  0.51100000000E-03 0.  1.
         11   -1    0    0    0    0 -0.00000000000E+00 -0.00000000000E+00 -0.45593999997E+02  0.45594000000E+02  0.51100000000E-03 0. -1.
    9900012    2    1    2    0    0 -0.40061481215E+02 -0.15963709434E+02  0.48847770263E+01  0.47787270253E+02  0.19999996390E+02 0.  0.
         12    1    1    2    0    0  0.40061481215E+02  0.15963709434E+02 -0.48847770263E+01  0.43400729747E+02  0.00000000000E+00 0. -1.
         11    1    3    3    0    0 -0.17613276691E+02 -0.71652613435E+01  0.31589549707E+01  0.19275566987E+02  0.51100000000E-03 0.  1.
        -11    1    3    3    0    0 -0.19685606455E+02 -0.59173182368E+00  0.64770598350E-01  0.19694604427E+02  0.51100000000E-03 0. -1.
        -12    1    3    3    0    0 -0.27625980683E+01 -0.82067162670E+01  0.16610514573E+01  0.88170988379E+01  0.00000000000E+00 0.  1.
</event>
<event>
 7    1  0.2812635E-010  0.4778727E+02  0.7816164E-02  0.1312668E+00
        -11   -1    0    0    0    0  0.00000000000E+00  0.00000000000E+00  0.45593999997E+02  0.45594000000E+02  0.51100000000E-03 0.  1.
         11   -1    0    0    0    0 -0.00000000000E+00 -0.00000000000E+00 -0.45593999997E+02  0.45594000000E+02  0.51100000000E-03 0. -1.
    9900012    2    1    2    0    0 -0.15132823309E+02  0.37543395350E+02  0.15656136164E+02  0.47787268724E+02  0.19999989419E+02 0.  0.
         12    1    1    2    0    0  0.15132823309E+02 -0.37543395350E+02 -0.15656136164E+02  0.43400731276E+02  0.00000000000E+00 0. -1.
         11    1    3    3    0    0  0.25751479284E+01 -0.22917314626E+00 -0.10036590508E+01  0.27733083016E+01  0.51100000000E-03 0. -1.
        -11    1    3    3    0    0 -0.81372406670E+01  0.20542916120E+02  0.82594608293E+01  0.23589081835E+02  0.51100000000E-03 0.  1.
         12    1    3    3    0    0 -0.95707305702E+01  0.17229652377E+02  0.84003343852E+01  0.21424878587E+02  0.00000000000E+00 0. -1.
</event>
<event>
 7    1  0.2812635E-010  0.4778726E+02  0.7816164E-02  0.1312668E+00
        -11   -1    0    0    0    0  0.00000000000E+00  0.00000000000E+00  0.45593999997E+02  0.45594000000E+02  0.51100000000E-03 0.  1.
         11   -1    0    0    0    0 -0.00000000000E+00 -0.00000000000E+00 -0.45593999997E+02  0.45594000000E+02  0.51100000000E-03 0. -1.
    9900012    2    1    2    0    0  0.31883392863E+02  0.19009210213E+02  0.22488302356E+02  0.47787256271E+02  0.19999932643E+02 0.  0.
         12    1    1    2    0    0 -0.31883392863E+02 -0.19009210213E+02 -0.22488302356E+02  0.43400743729E+02  0.00000000000E+00 0. -1.
         11    1    3    3    0    0  0.35547248128E+01  0.39903696182E+01 -0.10282725388E+01  0.54421009601E+01  0.51100000000E-03 0. -1.
        -11    1    3    3    0    0  0.27012938056E+02  0.82636006936E+01  0.17713913866E+02  0.33343195161E+02  0.51100000000E-03 0.  1.
        -12    1    3    3    0    0  0.13157299947E+01  0.67552399010E+01  0.58026610283E+01  0.90019601504E+01  0.00000000000E+00 0.  1.
</event>
<event>
 7    1  0.2812635E-010  0.4778728E+02  0.7816164E-02  0.1312668E+00
        -11   -1    0    0    0    0  0.00000000000E+00  0.00000000000E+00  0.45593999997E+02  0.45594000000E+02  0.51100000000E-03 0.  1.
         11   -1    0    0    0    0 -0.00000000000E+00 -0.00000000000E+00 -0.45593999997E+02  0.45594000000E+02  0.51100000000E-03 0. -1.
    9900012    2    1    2    0    0 -0.31775187943E+02  0.84264938049E+01  0.28336440496E+02  0.47787283109E+02  0.20000055007E+02 0.  0.
         12    1    1    2    0    0  0.31775187943E+02 -0.84264938049E+01 -0.28336440496E+02  0.43400716891E+02  0.00000000000E+00 0. -1.
         11    1    3    3    0    0  0.25214887982E+01  0.60185474180E+00  0.36683944512E+01  0.44919097276E+01  0.51100000000E-03 0. -1.
        -11    1    3    3    0    0 -0.29121557919E+02  0.77076153433E+01  0.18982170954E+02  0.35606113019E+02  0.51100000000E-03 0.  1.
        -12    1    3    3    0    0 -0.51751188222E+01  0.11702371982E+00  0.56858750906E+01  0.76892603624E+01  0.00000000000E+00 0.  1.
</event>
<event>
 7    1  0.2812635E-010  0.4778727E+02  0.7816164E-02  0.1312668E+00
        -11   -1    0    0    0    0  0.00000000000E+00  0.00000000000E+00  0.45593999997E+02  0.45594000000E+02  0.51100000000E-03 0. -1.
         11   -1    0    0    0    0 -0.00000000000E+00 -0.00000000000E+00 -0.45593999997E+02  0.45594000000E+02  0.51100000000E-03 0.  1.
    9900012    2    1    2    0    0  0.56858438967E+01  0.13124122248E+02 -0.40976235885E+02  0.47787270595E+02  0.19999997952E+02 0.  0.
         12    1    1    2    0    0 -0.56858438967E+01 -0.13124122248E+02  0.40976235885E+02  0.43400729405E+02  0.00000000000E+00 0. -1.
         11    1    3    3    0    0  0.98319341889E+01  0.12311560118E+02 -0.27516162719E+02  0.31707738069E+02  0.51100000000E-03 0. -1.
        -11    1    3    3    0    0  0.21712819047E+01 -0.40059647871E+00 -0.48759325375E+01  0.53525378112E+01  0.51100000000E-03 0.  1.
         12    1    3    3    0    0 -0.63173721969E+01  0.12131586086E+01 -0.85841406286E+01  0.10726994715E+02  0.00000000000E+00 0. -1.
</event>
<event>
 7    1  0.2812635E-010  0.4778727E+02  0.7816164E-02  0.1312668E+00
        -11   -1    0    0    0    0  0.00000000000E+00  0.00000000000E+00  0.45593999997E+02  0.45594000000E+02  0.51100000000E-03 0. -1.
         11   -1    0    0    0    0 -0.00000000000E+00 -0.00000000000E+00 -0.45593999997E+02  0.45594000000E+02  0.51100000000E-03 0.  1.
    9900012    2    1    2    0    0  0.24183957025E+01  0.43267219403E+02  0.23921147192E+01  0.47787272754E+02  0.20000007795E+02 0.  0.
         12    1    1    2    0    0 -0.24183957025E+01 -0.43267219403E+02 -0.23921147192E+01  0.43400727246E+02  0.00000000000E+00 0. -1.
         11    1    3    3    0    0  0.39113346457E+00  0.71260191741E+01 -0.68773274359E+01  0.99111436059E+01  0.51100000000E-03 0. -1.
        -11    1    3    3    0    0  0.13456774724E+01  0.28280514532E+02  0.45319342835E+01  0.28672927626E+02  0.51100000000E-03 0.  1.
         12    1    3    3    0    0  0.68158476555E+00  0.78606856970E+01  0.47375078716E+01  0.92032015219E+01  0.00000000000E+00 0. -1.
</event>
<event>
 7    1  0.2812635E-010  0.4778727E+02  0.7816164E-02  0.1312668E+00
        -11   -1    0    0    0    0  0.00000000000E+00  0.00000000000E+00  0.45593999997E+02  0.45594000000E+02  0.51100000000E-03 0.  1.
         11   -1    0    0    0    0 -0.00000000000E+00 -0.00000000000E+00 -0.45593999997E+02  0.45594000000E+02  0.51100000000E-03 0. -1.
    9900012    2    1    2    0    0  0.13273752645E+02  0.30208261549E+01  0.41210502348E+02  0.47787269549E+02  0.19999993181E+02 0.  0.
         12    1    1    2    0    0 -0.13273752645E+02 -0.30208261549E+01 -0.41210502348E+02  0.43400730451E+02  0.00000000000E+00 0. -1.
         11    1    3    3    0    0  0.16157223616E+01  0.10163608065E+02  0.16345035359E+02  0.19315011488E+02  0.51100000000E-03 0. -1.
        -11    1    3    3    0    0  0.74468664658E+01 -0.32414324956E+01  0.14098587634E+02  0.16270613950E+02  0.51100000000E-03 0.  1.
         12    1    3    3    0    0  0.42111638176E+01 -0.39013494145E+01  0.10766879355E+02  0.12201644110E+02  0.00000000000E+00 0. -1.
</event>
<event>
 7    1  0.2812635E-010  0.4778727E+02  0.7816164E-02  0.1312668E+00
        -11   -1    0    0    0    0  0.00000000000E+00  0.00000000000E+00  0.45593999997E+02  0.45594000000E+02  0.51100000000E-03 0.  1.
         11   -1    0    0    0    0 -0.00000000000E+00 -0.00000000000E+00 -0.45593999997E+02  0.45594000000E+02  0.51100000000E-03 0. -1.
    9900012    2    1    2    0    0  0.32027258514E+01 -0.72232013524E+01  0.42675415844E+02  0.47787271802E+02  0.20000003456E+02 0.  0.
         12    1    1    2    0    0 -0.32027258514E+01  0.72232013524E+01 -0.42675415844E+02  0.43400728198E+02  0.00000000000E+00 0. -1.
         11    1    3    3    0    0 -0.18039090508E+01  0.12994833297E+00  0.35622953047E+01  0.39951123303E+01  0.51100000000E-03 0. -1.
        -11    1    3    3    0    0  0.52698257262E+01 -0.39028753581E+01  0.25034379817E+01  0.70193091708E+01  0.51100000000E-03 0.  1.
        -12    1    3    3    0    0 -0.26319082394E+00 -0.34502743272E+01  0.36609682557E+02  0.36772850301E+02  0.00000000000E+00 0.  1.
</event>
<event>
 7    1  0.2812635E-010  0.4778726E+02  0.7816164E-02  0.1312668E+00
        -11   -1    0    0    0    0  0.00000000000E+00  0.00000000000E+00  0.45593999997E+02  0.45594000000E+02  0.51100000000E-03 0. -1.
         11   -1    0    0    0    0 -0.00000000000E+00 -0.00000000000E+00 -0.45593999997E+02  0.45594000000E+02  0.51100000000E-03 0.  1.
    9900012    2    1    2    0    0  0.11280536224E+01 -0.21723423941E+02 -0.37555882172E+02  0.47787263389E+02  0.19999965095E+02 0.  0.
         12    1    1    2    0    0 -0.11280536224E+01  0.21723423941E+02  0.37555882172E+02  0.43400736611E+02  0.00000000000E+00 0. -1.
         11    1    3    3    0    0  0.35906888488E+01 -0.19868525885E+01 -0.19225768375E+02  0.19658860585E+02  0.51100000000E-03 0. -1.
        -11    1    3    3    0    0 -0.45507350335E+01 -0.15889173016E+02 -0.16589118880E+02  0.23417384012E+02  0.51100000000E-03 0.  1.
         12    1    3    3    0    0  0.20880998071E+01 -0.38473983357E+01 -0.17409949167E+01  0.47110187920E+01  0.00000000000E+00 0. -1.
</event>
<event>
 7    1  0.2812635E-010  0.4778727E+02  0.7816164E-02  0.1312668E+00
        -11   -1    0    0    0    0  0.00000000000E+00  0.00000000000E+00  0.45593999997E+02  0.45594000000E+02  0.51100000000E-03 0.  1.
         11   -1    0    0    0    0 -0.00000000000E+00 -0.00000000000E+00 -0.45593999997E+02  0.45594000000E+02  0.51100000000E-03 0. -1.
    9900012    2    1    2    0    0  0.29299235765E+02 -0.23956194614E+01  0.31928657200E+02  0.47787270056E+02  0.19999995494E+02 0.  0.
         12    1    1    2    0    0 -0.29299235765E+02  0.23956194614E+01 -0.31928657200E+02  0.43400729944E+02  0.00000000000E+00 0. -1.
         11    1    3    3    0    0  0.10501749253E+01 -0.76389823474E+00 -0.24027259240E+01  0.27312085262E+01  0.51100000000E-03 0. -1.
        -11    1    3    3    0    0  0.21840584816E+02 -0.10210261126E+01  0.21315853802E+02  0.30535540980E+02  0.51100000000E-03 0.  1.
         12    1    3    3    0    0  0.64084760243E+01 -0.61069511404E+00  0.13015529323E+02  0.14520520550E+02  0.00000000000E+00 0. -1.
</event>
<event>
 7    1  0.2812635E-010  0.4778727E+02  0.7816164E-02  0.1312668E+00
        -11   -1    0    0    0    0  0.00000000000E+00  0.00000000000E+00  0.45593999997E+02  0.45594000000E+02  0.51100000000E-03 0.  1.
         11   -1    0    0    0    0 -0.00000000000E+00 -0.00000000000E+00 -0.45593999997E+02  0.45594000000E+02  0.51100000000E-03 0. -1.
    9900012    2    1    2    0    0 -0.18478293194E+02 -0.11289986794E+02  0.37612657833E+02  0.47787272466E+02  0.20000006482E+02 0.  0.
         12    1    1    2    0    0  0.18478293194E+02  0.11289986794E+02 -0.37612657833E+02  0.43400727534E+02  0.00000000000E+00 0. -1.
         11    1    3    3    0    0 -0.18911108404E+02 -0.42265446714E+01  0.20064203176E+02  0.27893833553E+02  0.51100000000E-03 0. -1.
        -11    1    3    3    0    0 -0.18502784718E+01 -0.38778787470E+01  0.13862960978E+02  0.14513550955E+02  0.51100000000E-03 0.  1.
         12    1    3    3    0    0  0.22830936816E+01 -0.31855633755E+01  0.36854936795E+01  0.53798879580E+01  0.00000000000E+00 0. -1.
</event>
<event>
 7    1  0.2812635E-010  0.4778727E+02  0.7816164E-02  0.1312668E+00
        -11   -1    0    0    0    0  0.00000000000E+00  0.00000000000E+00  0.45593999997E+02  0.45594000000E+02  0.51100000000E-03 0. -1.
         11   -1    0    0    0    0 -0.00000000000E+00 -0.00000000000E+00 -0.45593999997E+02  0.45594000000E+02  0.51100000000E-03 0.  1.
    9900012    2    1    2    0    0  0.42796946464E+02  0.68508039510E+01  0.22607760046E+01  0.47787271325E+02  0.20000001277E+02 0.  0.
         12    1    1    2    0    0 -0.42796946464E+02 -0.68508039510E+01 -0.22607760046E+01  0.43400728675E+02  0.00000000000E+00 0. -1.
         11    1    3    3    0    0  0.13045585040E+02  0.40851952545E+01  0.66870740006E+01  0.15218182160E+02  0.51100000000E-03 0. -1.
        -11    1    3    3    0    0  0.24422110916E+02  0.32865745781E+01 -0.82530515454E+01  0.25987572687E+02  0.51100000000E-03 0.  1.
        -12    1    3    3    0    0  0.53292505073E+01 -0.52096588158E+00  0.38267535493E+01  0.65815164777E+01  0.00000000000E+00 0.  1.
</event>
<event>
 7    1  0.2812635E-010  0.4778727E+02  0.7816164E-02  0.1312668E+00
        -11   -1    0    0    0    0  0.00000000000E+00  0.00000000000E+00  0.45593999997E+02  0.45594000000E+02  0.51100000000E-03 0.  1.
         11   -1    0    0    0    0 -0.00000000000E+00 -0.00000000000E+00 -0.45593999997E+02  0.45594000000E+02  0.51100000000E-03 0. -1.
    9900012    2    1    2    0    0  0.40158568975E+02  0.68998857842E+01  0.14943366698E+02  0.47787270810E+02  0.19999998930E+02 0.  0.
         12    1    1    2    0    0 -0.40158568975E+02 -0.68998857842E+01 -0.14943366698E+02  0.43400729190E+02  0.00000000000E+00 0. -1.
         11    1    3    3    0    0  0.12062733410E+02  0.53447286915E+01 -0.24496852024E+01  0.13419263018E+02  0.51100000000E-03 0. -1.
        -11    1    3    3    0    0  0.19431911419E+02  0.52747428295E+01  0.12992361865E+02  0.23962962263E+02  0.51100000000E-03 0.  1.
         12    1    3    3    0    0  0.86639241461E+01 -0.37195857368E+01  0.44006900353E+01  0.10405045529E+02  0.00000000000E+00 0. -1.
</event>
<event>
 7    1  0.2812635E-010  0.4778727E+02  0.7816164E-02  0.1312668E+00
        -11   -1    0    0    0    0  0.00000000000E+00  0.00000000000E+00  0.45593999997E+02  0.45594000000E+02  0.51100000000E-03 0. -1.
         11   -1    0    0    0    0 -0.00000000000E+00 -0.00000000000E+00 -0.45593999997E+02  0.45594000000E+02  0.51100000000E-03 0.  1.
    9900012    2    1    2    0    0 -0.33311517491E+02  0.87701552038E+01 -0.26401709200E+02  0.47787273410E+02  0.20000010787E+02 0.  0.
         12    1    1    2    0    0  0.33311517491E+02 -0.87701552038E+01  0.26401709200E+02  0.43400726590E+02  0.00000000000E+00 0. -1.
         11    1    3    3    0    0 -0.29911982964E+02  0.62330406942E+01 -0.16298079747E+02  0.34629538328E+02  0.51100000000E-03 0. -1.
        -11    1    3    3    0    0  0.13278214436E+01 -0.14164557105E+01 -0.41840348611E+01  0.46125485956E+01  0.51100000000E-03 0.  1.
         12    1    3    3    0    0 -0.47273559708E+01  0.39535702201E+01 -0.59195945921E+01  0.85451864868E+01  0.00000000000E+00 0. -1.
</event>
<event>
 7    1  0.2812635E-010  0.4778727E+02  0.7816164E-02  0.1312668E+00
        -11   -1    0    0    0    0  0.00000000000E+00  0.00000000000E+00  0.45593999997E+02  0.45594000000E+02  0.51100000000E-03 0. -1.
         11   -1    0    0    0    0 -0.00000000000E+00 -0.00000000000E+00 -0.45593999997E+02  0.45594000000E+02  0.51100000000E-03 0.  1.
    9900012    2    1    2    0    0  0.42914162294E+02  0.17949741247E+01  0.62270417038E+01  0.47787270676E+02  0.19999998319E+02 0.  0.
         12    1    1    2    0    0 -0.42914162294E+02 -0.17949741247E+01 -0.62270417038E+01  0.43400729324E+02  0.00000000000E+00 0. -1.
         11    1    3    3    0    0  0.15871899655E+02 -0.67021736473E+01  0.86206947714E+00  0.17250492582E+02  0.51100000000E-03 0. -1.
        -11    1    3    3    0    0  0.24432175932E+02  0.52054510705E+01  0.71329571579E+01  0.25978972646E+02  0.51100000000E-03 0.  1.
        -12    1    3    3    0    0  0.26100867062E+01  0.32916967016E+01 -0.17679849313E+01  0.45578054485E+01  0.00000000000E+00 0.  1.
</event>
<event>
 7    1  0.2812635E-010  0.4778727E+02  0.7816164E-02  0.1312668E+00
        -11   -1    0    0    0    0  0.00000000000E+00  0.00000000000E+00  0.45593999997E+02  0.45594000000E+02  0.51100000000E-03 0.  1.
         11   -1    0    0    0    0 -0.00000000000E+00 -0.00000000000E+00 -0.45593999997E+02  0.45594000000E+02  0.51100000000E-03 0. -1.
    9900012    2    1    2    0    0  0.12644315219E+02  0.19529973859E+02  0.36637748431E+02  0.47787271937E+02  0.20000004072E+02 0.  0.
         12    1    1    2    0    0 -0.12644315219E+02 -0.19529973859E+02 -0.36637748431E+02  0.43400728063E+02  0.00000000000E+00 0. -1.
         11    1    3    3    0    0  0.63804812160E+01  0.19212390610E+01  0.18175584628E+01  0.69068964885E+01  0.51100000000E-03 0. -1.
        -11    1    3    3    0    0  0.66841412779E+01  0.17122740407E+02  0.24952691896E+02  0.30991979878E+02  0.51100000000E-03 0.  1.
        -12    1    3    3    0    0 -0.42030727519E+00  0.48599439087E+00  0.98674980726E+01  0.98883955709E+01  0.00000000000E+00 0.  1.
</event>
<event>
 7    1  0.2812635E-010  0.4778727E+02  0.7816164E-02  0.1312668E+00
        -11   -1    0    0    0    0  0.00000000000E+00  0.00000000000E+00  0.45593999997E+02  0.45594000000E+02  0.51100000000E-03 0.  1.
         11   -1    0    0    0    0 -0.00000000000E+00 -0.00000000000E+00 -0.45593999997E+02  0.45594000000E+02  0.51100000000E-03 0. -1.
    9900012    2    1    2    0    0  0.55447119195E+01  0.40867629433E+02  0.13517271358E+02  0.47787267394E+02  0.19999983357E+02 0.  0.
         12    1    1    2    0    0 -0.55447119195E+01 -0.40867629433E+02 -0.13517271358E+02  0.43400732606E+02  0.00000000000E+00 0. -1.
         11    1    3    3    0    0 -0.59131437356E+00  0.18315007920E+02 -0.23030291315E+01  0.18468706269E+02  0.51100000000E-03 0. -1.
        -11    1    3    3    0    0  0.62493598351E+01  0.19736201474E+02  0.10305596213E+02  0.23125255902E+02  0.51100000000E-03 0.  1.
         12    1    3    3    0    0 -0.11333354197E+00  0.28164200388E+01  0.55147042768E+01  0.61933052232E+01  0.00000000000E+00 0. -1.
</event>
<event>
 7    1  0.2812635E-010  0.4778727E+02  0.7816164E-02  0.1312668E+00
        -11   -1    0    0    0    0  0.00000000000E+00  0.00000000000E+00  0.45593999997E+02  0.45594000000E+02  0.51100000000E-03 0.  1.
         11   -1    0    0    0    0 -0.00000000000E+00 -0.00000000000E+00 -0.45593999997E+02  0.45594000000E+02  0.51100000000E-03 0. -1.
    9900012    2    1    2    0    0 -0.37992480075E+02  0.20752937189E+02  0.30838606547E+01  0.47787272579E+02  0.20000006995E+02 0.  0.
         12    1    1    2    0    0  0.37992480075E+02 -0.20752937189E+02 -0.30838606547E+01  0.43400727421E+02  0.00000000000E+00 0. -1.
         11    1    3    3    0    0 -0.12878123442E+02  0.16796066128E+02 -0.10767375996E+01  0.21192292582E+02  0.51100000000E-03 0. -1.
        -11    1    3    3    0    0 -0.11664754303E+02  0.51669891642E+00  0.49674928252E+01  0.12688950152E+02  0.51100000000E-03 0.  1.
         12    1    3    3    0    0 -0.13449602329E+02  0.34401721441E+01 -0.80689457088E+00  0.13906029845E+02  0.00000000000E+00 0. -1.
</event>
<event>
 7    1  0.2812635E-010  0.4778727E+02  0.7816164E-02  0.1312668E+00
        -11   -1    0    0    0    0  0.00000000000E+00  0.00000000000E+00  0.45593999997E+02  0.45594000000E+02  0.51100000000E-03 0.  1.
         11   -1    0    0    0    0 -0.00000000000E+00 -0.00000000000E+00 -0.45593999997E+02  0.45594000000E+02  0.51100000000E-03 0. -1.
    9900012    2    1    2    0    0 -0.59992572881E+01  0.42978974843E+02 -0.66328844727E+00  0.47787270535E+02  0.19999997677E+02 0.  0.
         12    1    1    2    0    0  0.59992572881E+01 -0.42978974843E+02  0.66328844727E+00  0.43400729465E+02  0.00000000000E+00 0. -1.
         11    1    3    3    0    0 -0.26303431874E+01  0.38866989072E+01 -0.44070212802E+01  0.64379321606E+01  0.51100000000E-03 0.  1.
        -11    1    3    3    0    0 -0.20964290987E+01  0.12791628739E+02  0.71418679547E+01  0.14799562795E+02  0.51100000000E-03 0. -1.
        -12    1    3    3    0    0 -0.12724850020E+01  0.26300647196E+02 -0.33981351218E+01  0.26549775580E+02  0.00000000000E+00 0.  1.
</event>
<event>
 7    1  0.2812635E-010  0.4778727E+02  0.7816164E-02  0.1312668E+00
        -11   -1    0    0    0    0  0.00000000000E+00  0.00000000000E+00  0.45593999997E+02  0.45594000000E+02  0.51100000000E-03 0.  1.
         11   -1    0    0    0    0 -0.00000000000E+00 -0.00000000000E+00 -0.45593999997E+02  0.45594000000E+02  0.51100000000E-03 0. -1.
    9900012    2    1    2    0    0 -0.16863560766E+02 -0.33191689912E+02  0.22305951218E+02  0.47787269354E+02  0.19999992292E+02 0.  0.
         12    1    1    2    0    0  0.16863560766E+02  0.33191689912E+02 -0.22305951218E+02  0.43400730646E+02  0.00000000000E+00 0. -1.
         11    1    3    3    0    0 -0.11350801754E+02 -0.28622143405E+02  0.21510745363E+02  0.37560350902E+02  0.51100000000E-03 0. -1.
        -11    1    3    3    0    0 -0.15454814387E+01 -0.28902352105E+01  0.37670465862E+01  0.49932567221E+01  0.51100000000E-03 0.  1.
         12    1    3    3    0    0 -0.39672775731E+01 -0.16793112964E+01 -0.29718407313E+01  0.52336617300E+01  0.00000000000E+00 0. -1.
</event>
<event>
 7    1  0.2812635E-010  0.4778727E+02  0.7816164E-02  0.1312668E+00
        -11   -1    0    0    0    0  0.00000000000E+00  0.00000000000E+00  0.45593999997E+02  0.45594000000E+02  0.51100000000E-03 0.  1.
         11   -1    0    0    0    0 -0.00000000000E+00 -0.00000000000E+00 -0.45593999997E+02  0.45594000000E+02  0.51100000000E-03 0. -1.
    9900012    2    1    2    0    0  0.15974513166E+02  0.19411283021E+01  0.40307198134E+02  0.47787271073E+02  0.20000000130E+02 0.  0.
         12    1    1    2    0    0 -0.15974513166E+02 -0.19411283021E+01 -0.40307198134E+02  0.43400728927E+02  0.00000000000E+00 0. -1.
         11    1    3    3    0    0  0.72785522585E+01  0.67739788295E+01  0.52174167224E+01  0.11228782199E+02  0.51100000000E-03 0. -1.
        -11    1    3    3    0    0  0.51540965540E+01 -0.26701039006E+01  0.15935230381E+02  0.16959532236E+02  0.51100000000E-03 0.  1.
         12    1    3    3    0    0  0.35418643534E+01 -0.21627466268E+01  0.19154551031E+02  0.19598956638E+02  0.00000000000E+00 0. -1.
</event>
<event>
 7    1  0.2812635E-010  0.4778729E+02  0.7816164E-02  0.1312668E+00
        -11   -1    0    0    0    0  0.00000000000E+00  0.00000000000E+00  0.45593999997E+02  0.45594000000E+02  0.51100000000E-03 0.  1.
         11   -1    0    0    0    0 -0.00000000000E+00 -0.00000000000E+00 -0.45593999997E+02  0.45594000000E+02  0.51100000000E-03 0. -1.
    9900012    2    1    2    0    0  0.35455596118E+02 -0.36830907873E+01  0.24757979048E+02  0.47787285946E+02  0.20000067943E+02 0.  0.
         12    1    1    2    0    0 -0.35455596118E+02  0.36830907873E+01 -0.24757979048E+02  0.43400714054E+02  0.00000000000E+00 0. -1.
         11    1    3    3    0    0  0.51606223767E+00 -0.48343791271E+01  0.22792968919E+01  0.53696123100E+01  0.51100000000E-03 0. -1.
        -11    1    3    3    0    0  0.16820456568E+02 -0.10386496346E+01  0.61845707340E+01  0.17951475361E+02  0.51100000000E-03 0.  1.
         12    1    3    3    0    0  0.18119077313E+02  0.21899379744E+01  0.16294111422E+02  0.24466198275E+02  0.00000000000E+00 0. -1.
</event>
<event>
 7    1  0.2812635E-010  0.4778727E+02  0.7816164E-02  0.1312668E+00
        -11   -1    0    0    0    0  0.00000000000E+00  0.00000000000E+00  0.45593999997E+02  0.45594000000E+02  0.51100000000E-03 0.  1.
         11   -1    0    0    0    0 -0.00000000000E+00 -0.00000000000E+00 -0.45593999997E+02  0.45594000000E+02  0.51100000000E-03 0. -1.
    9900012    2    1    2    0    0  0.40338013167E+02  0.15274908116E+02  0.48109597464E+01  0.47787268925E+02  0.19999990336E+02 0.  0.
         12    1    1    2    0    0 -0.40338013167E+02 -0.15274908116E+02 -0.48109597464E+01  0.43400731075E+02  0.00000000000E+00 0. -1.
         11    1    3    3    0    0  0.11147321810E+01  0.17961022925E+01 -0.42248417309E+01  0.47241823836E+01  0.51100000000E-03 0. -1.
        -11    1    3    3    0    0  0.39022189120E+02  0.13831929996E+02  0.83035205029E+01  0.42225608156E+02  0.51100000000E-03 0.  1.
        -12    1    3    3    0    0  0.20109186535E+00 -0.35312417335E+00  0.73228097447E+00  0.83747838521E+00  0.00000000000E+00 0.  1.
</event>
<event>
 7    1  0.2812635E-010  0.4778727E+02  0.7816164E-02  0.1312668E+00
        -11   -1    0    0    0    0  0.00000000000E+00  0.00000000000E+00  0.45593999997E+02  0.45594000000E+02  0.51100000000E-03 0.  1.
         11   -1    0    0    0    0 -0.00000000000E+00 -0.00000000000E+00 -0.45593999997E+02  0.45594000000E+02  0.51100000000E-03 0. -1.
    9900012    2    1    2    0    0  0.42130563556E+02  0.50205095177E+01 -0.91341866429E+01  0.47787271124E+02  0.20000000362E+02 0.  0.
         12    1    1    2    0    0 -0.42130563556E+02 -0.50205095177E+01  0.91341866429E+01  0.43400728876E+02  0.00000000000E+00 0. -1.
         11    1    3    3    0    0  0.90936905622E+01  0.89257862795E+01 -0.39115324376E+01  0.13329101808E+02  0.51100000000E-03 0. -1.
        -11    1    3    3    0    0  0.26650548144E+02 -0.49787624338E+01 -0.64468096081E+01  0.27867564409E+02  0.51100000000E-03 0.  1.
         12    1    3    3    0    0  0.63863248500E+01  0.10734856720E+01  0.12241554028E+01  0.65906049061E+01  0.00000000000E+00 0. -1.
</event>
<event>
 7    1  0.2812635E-010  0.4778727E+02  0.7816164E-02  0.1312668E+00
        -11   -1    0    0    0    0  0.00000000000E+00  0.00000000000E+00  0.45593999997E+02  0.45594000000E+02  0.51100000000E-03 0.  1.
         11   -1    0    0    0    0 -0.00000000000E+00 -0.00000000000E+00 -0.45593999997E+02  0.45594000000E+02  0.51100000000E-03 0. -1.
    9900012    2    1    2    0    0  0.68769560351E+01  0.25081097286E+02  0.34745777552E+02  0.47787273934E+02  0.20000013175E+02 0.  0.
         12    1    1    2    0    0 -0.68769560351E+01 -0.25081097286E+02 -0.34745777552E+02  0.43400726066E+02  0.00000000000E+00 0. -1.
         11    1    3    3    0    0  0.34907549644E+01  0.17357787941E+00  0.62012511949E+01  0.71183576860E+01  0.51100000000E-03 0. -1.
        -11    1    3    3    0    0  0.44730965978E+01  0.25876833054E+02  0.29019024435E+02  0.39137231143E+02  0.51100000000E-03 0.  1.
        -12    1    3    3    0    0 -0.10868955272E+01 -0.96931364806E+00 -0.47449807805E+00  0.15316851052E+01  0.00000000000E+00 0.  1.
</event>
<event>
 7    1  0.2812635E-010  0.4778727E+02  0.7816164E-02  0.1312668E+00
        -11   -1    0    0    0    0  0.00000000000E+00  0.00000000000E+00  0.45593999997E+02  0.45594000000E+02  0.51100000000E-03 0.  1.
         11   -1    0    0    0    0 -0.00000000000E+00 -0.00000000000E+00 -0.45593999997E+02  0.45594000000E+02  0.51100000000E-03 0. -1.
    9900012    2    1    2    0    0 -0.13631929653E+00  0.33625336751E+02  0.27439779925E+02  0.47787269858E+02  0.19999994589E+02 0.  0.
         12    1    1    2    0    0  0.13631929653E+00 -0.33625336751E+02 -0.27439779925E+02  0.43400730142E+02  0.00000000000E+00 0. -1.
         11    1    3    3    0    0 -0.36923053766E+01  0.28757949970E+02  0.26344200689E+02  0.39174860762E+02  0.51100000000E-03 0. -1.
        -11    1    3    3    0    0  0.11747942338E+01  0.39089484745E+01 -0.20376336159E+01  0.45620138844E+01  0.51100000000E-03 0.  1.
         12    1    3    3    0    0  0.23811918463E+01  0.95843830636E+00  0.31332128518E+01  0.40503952116E+01  0.00000000000E+00 0. -1.
</event>
<event>
 7    1  0.2812635E-010  0.4778727E+02  0.7816164E-02  0.1312668E+00
        -11   -1    0    0    0    0  0.00000000000E+00  0.00000000000E+00  0.45593999997E+02  0.45594000000E+02  0.51100000000E-03 0. -1.
         11   -1    0    0    0    0 -0.00000000000E+00 -0.00000000000E+00 -0.45593999997E+02  0.45594000000E+02  0.51100000000E-03 0.  1.
    9900012    2    1    2    0    0 -0.25956958555E+02  0.26950976584E+01 -0.34678468449E+02  0.47787269329E+02  0.19999992181E+02 0.  0.
         12    1    1    2    0    0  0.25956958555E+02 -0.26950976584E+01  0.34678468449E+02  0.43400730671E+02  0.00000000000E+00 0. -1.
         11    1    3    3    0    0  0.10581012962E+01 -0.55671722977E+00  0.13489503489E+01  0.18025481219E+01  0.51100000000E-03 0. -1.
        -11    1    3    3    0    0 -0.12042399629E+02  0.53919668938E+01 -0.13736372619E+02  0.19046801012E+02  0.51100000000E-03 0.  1.
         12    1    3    3    0    0 -0.14972660222E+02 -0.21401520056E+01 -0.22291046178E+02  0.26937920195E+02  0.00000000000E+00 0. -1.
</event>
<event>
 7    1  0.2812635E-010  0.4778727E+02  0.7816164E-02  0.1312668E+00
        -11   -1    0    0    0    0  0.00000000000E+00  0.00000000000E+00  0.45593999997E+02  0.45594000000E+02  0.51100000000E-03 0.  1.
         11   -1    0    0    0    0 -0.00000000000E+00 -0.00000000000E+00 -0.45593999997E+02  0.45594000000E+02  0.51100000000E-03 0. -1.
    9900012    2    1    2    0    0  0.14216450979E+02 -0.28287559630E+02  0.29687198701E+02  0.47787271032E+02  0.19999999945E+02 0.  0.
         12    1    1    2    0    0 -0.14216450979E+02  0.28287559630E+02 -0.29687198701E+02  0.43400728968E+02  0.00000000000E+00 0. -1.
         11    1    3    3    0    0  0.61652423794E+01 -0.31007691160E+01  0.80802929223E+01  0.10626199541E+02  0.51100000000E-03 0. -1.
        -11    1    3    3    0    0 -0.36816950320E+01 -0.61527837206E+01  0.89489335112E+01  0.11467128545E+02  0.51100000000E-03 0.  1.
        -12    1    3    3    0    0  0.11732903631E+02 -0.19034006793E+02  0.12657972267E+02  0.25693942946E+02  0.00000000000E+00 0.  1.
</event>
<event>
 7    1  0.2812635E-010  0.4778727E+02  0.7816164E-02  0.1312668E+00
        -11   -1    0    0    0    0  0.00000000000E+00  0.00000000000E+00  0.45593999997E+02  0.45594000000E+02  0.51100000000E-03 0.  1.
         11   -1    0    0    0    0 -0.00000000000E+00 -0.00000000000E+00 -0.45593999997E+02  0.45594000000E+02  0.51100000000E-03 0. -1.
    9900012    2    1    2    0    0  0.21969592516E+02  0.37238728434E+02 -0.37732304056E+01  0.47787272375E+02  0.20000006066E+02 0.  0.
         12    1    1    2    0    0 -0.21969592516E+02 -0.37238728434E+02  0.37732304056E+01  0.43400727625E+02  0.00000000000E+00 0. -1.
         11    1    3    3    0    0  0.19682793149E+02  0.25312144774E+02  0.82310928817E+00  0.32074827020E+02  0.51100000000E-03 0.  1.
        -11    1    3    3    0    0 -0.13734227545E+01  0.11200185946E+02 -0.36934332897E+01  0.11873159016E+02  0.51100000000E-03 0. -1.
        -12    1    3    3    0    0  0.36602221217E+01  0.72639771397E+00 -0.90290640409E+00  0.38392863391E+01  0.00000000000E+00 0.  1.
</event>
<event>
 7    1  0.4307475E-010  0.4778727E+02  0.7816164E-02  0.1312668E+00
        -11   -1    0    0    0    0  0.00000000000E+00  0.00000000000E+00  0.45593999997E+02  0.45594000000E+02  0.51100000000E-03 0.  1.
         11   -1    0    0    0    0 -0.00000000000E+00 -0.00000000000E+00 -0.45593999997E+02  0.45594000000E+02  0.51100000000E-03 0. -1.
    9900012    2    1    2    0    0  0.34885630486E+02  0.84019709445E+01  0.24413578432E+02  0.47787272564E+02  0.20000006926E+02 0.  0.
         12    1    1    2    0    0 -0.34885630486E+02 -0.84019709445E+01 -0.24413578432E+02  0.43400727436E+02  0.00000000000E+00 0. -1.
         11    1    3    3    0    0  0.63610802920E+01 -0.22514307662E+00 -0.28151733309E+01  0.69598299570E+01  0.51100000000E-03 0. -1.
        -11    1    3    3    0    0  0.17973300792E+02  0.37130330911E+01  0.13243117469E+02  0.22631975536E+02  0.51100000000E-03 0.  1.
         12    1    3    3    0    0  0.10551249402E+02  0.49140809300E+01  0.13985634293E+02  0.18195467071E+02  0.00000000000E+00 0. -1.
</event>
<event>
 7    1  0.2812635E-010  0.4778727E+02  0.7816164E-02  0.1312668E+00
        -11   -1    0    0    0    0  0.00000000000E+00  0.00000000000E+00  0.45593999997E+02  0.45594000000E+02  0.51100000000E-03 0. -1.
         11   -1    0    0    0    0 -0.00000000000E+00 -0.00000000000E+00 -0.45593999997E+02  0.45594000000E+02  0.51100000000E-03 0.  1.
    9900012    2    1    2    0    0  0.17665223926E+02  0.16061255552E+02 -0.36243609169E+02  0.47787271067E+02  0.20000000105E+02 0.  0.
         12    1    1    2    0    0 -0.17665223926E+02 -0.16061255552E+02  0.36243609169E+02  0.43400728933E+02  0.00000000000E+00 0. -1.
         11    1    3    3    0    0  0.53976536685E+01  0.19990526692E+01 -0.40927797486E+01  0.70626994153E+01  0.51100000000E-03 0. -1.
        -11    1    3    3    0    0  0.15408972844E+02  0.83982634601E+01 -0.17882038376E+02  0.25054631707E+02  0.51100000000E-03 0.  1.
        -12    1    3    3    0    0 -0.31414025863E+01  0.56639394232E+01 -0.14268791045E+02  0.15669939945E+02  0.00000000000E+00 0.  1.
</event>
<event>
 7    1  0.2812635E-010  0.4778727E+02  0.7816164E-02  0.1312668E+00
        -11   -1    0    0    0    0  0.00000000000E+00  0.00000000000E+00  0.45593999997E+02  0.45594000000E+02  0.51100000000E-03 0. -1.
         11   -1    0    0    0    0 -0.00000000000E+00 -0.00000000000E+00 -0.45593999997E+02  0.45594000000E+02  0.51100000000E-03 0.  1.
    9900012    2    1    2    0    0 -0.19043299237E+02 -0.19834412883E+02 -0.33579340939E+02  0.47787270534E+02  0.19999997674E+02 0.  0.
         12    1    1    2    0    0  0.19043299237E+02  0.19834412883E+02  0.33579340939E+02  0.43400729466E+02  0.00000000000E+00 0. -1.
         11    1    3    3    0    0 -0.32154858484E+01 -0.53661853562E+01  0.81624731325E+00  0.63088473159E+01  0.51100000000E-03 0. -1.
        -11    1    3    3    0    0 -0.94643895767E+01 -0.78334420437E+01 -0.27056237643E+02  0.29714936984E+02  0.51100000000E-03 0.  1.
         12    1    3    3    0    0 -0.63634238123E+01 -0.66347854829E+01 -0.73393506091E+01  0.11763486234E+02  0.00000000000E+00 0. -1.
</event>
<event>
 7    1  0.2812635E-010  0.4778727E+02  0.7816164E-02  0.1312668E+00
        -11   -1    0    0    0    0  0.00000000000E+00  0.00000000000E+00  0.45593999997E+02  0.45594000000E+02  0.51100000000E-03 0.  1.
         11   -1    0    0    0    0 -0.00000000000E+00 -0.00000000000E+00 -0.45593999997E+02  0.45594000000E+02  0.51100000000E-03 0. -1.
    9900012    2    1    2    0    0  0.17854116297E+02 -0.17555754062E+02  0.35449248729E+02  0.47787271839E+02  0.20000003622E+02 0.  0.
         12    1    1    2    0    0 -0.17854116297E+02  0.17555754062E+02 -0.35449248729E+02  0.43400728161E+02  0.00000000000E+00 0. -1.
         11    1    3    3    0    0  0.16706990544E+02 -0.87318476297E+01  0.19835999155E+02  0.27364859927E+02  0.51100000000E-03 0. -1.
        -11    1    3    3    0    0 -0.96858819395E+00 -0.10433228946E+02  0.11897773575E+02  0.15853941013E+02  0.51100000000E-03 0.  1.
        -12    1    3    3    0    0  0.21157139470E+01  0.16093225134E+01  0.37154759989E+01  0.45684708991E+01  0.00000000000E+00 0.  1.
</event>
<event>
 7    1  0.2812635E-010  0.4778727E+02  0.7816164E-02  0.1312668E+00
        -11   -1    0    0    0    0  0.00000000000E+00  0.00000000000E+00  0.45593999997E+02  0.45594000000E+02  0.51100000000E-03 0.  1.
         11   -1    0    0    0    0 -0.00000000000E+00 -0.00000000000E+00 -0.45593999997E+02  0.45594000000E+02  0.51100000000E-03 0. -1.
    9900012    2    1    2    0    0 -0.69894020415E+01  0.19428466408E+02  0.38174678307E+02  0.47787272913E+02  0.20000008519E+02 0.  0.
         12    1    1    2    0    0  0.69894020415E+01 -0.19428466408E+02 -0.38174678307E+02  0.43400727087E+02  0.00000000000E+00 0. -1.
         11    1    3    3    0    0 -0.84142239987E+01  0.15112614201E+02  0.21060005276E+02  0.27252781435E+02  0.51100000000E-03 0.  1.
        -11    1    3    3    0    0 -0.10267073902E+01  0.73073712963E+01  0.98881926001E+01  0.12338077504E+02  0.51100000000E-03 0. -1.
         12    1    3    3    0    0  0.24515293474E+01 -0.29915190898E+01  0.72264804313E+01  0.81964139738E+01  0.00000000000E+00 0. -1.
</event>
<event>
 7    1  0.2812635E-010  0.4778727E+02  0.7816164E-02  0.1312668E+00
        -11   -1    0    0    0    0  0.00000000000E+00  0.00000000000E+00  0.45593999997E+02  0.45594000000E+02  0.51100000000E-03 0. -1.
         11   -1    0    0    0    0 -0.00000000000E+00 -0.00000000000E+00 -0.45593999997E+02  0.45594000000E+02  0.51100000000E-03 0.  1.
    9900012    2    1    2    0    0 -0.17575008083E+02  0.26398291817E+02 -0.29628916201E+02  0.47787269646E+02  0.19999993626E+02 0.  0.
         12    1    1    2    0    0  0.17575008083E+02 -0.26398291817E+02  0.29628916201E+02  0.43400730354E+02  0.00000000000E+00 0. -1.
         11    1    3    3    0    0  0.11081655470E+01  0.53959397517E+00 -0.38740926830E+00  0.12920057042E+01  0.51100000000E-03 0. -1.
        -11    1    3    3    0    0 -0.13210809447E+01  0.10562824094E+02 -0.17659044445E+02  0.20619417030E+02  0.51100000000E-03 0.  1.
        -12    1    3    3    0    0 -0.17362092685E+02  0.15295873748E+02 -0.11582462487E+02  0.25875846912E+02  0.00000000000E+00 0.  1.
</event>
<event>
 7    1  0.2812635E-010  0.4778727E+02  0.7816164E-02  0.1312668E+00
        -11   -1    0    0    0    0  0.00000000000E+00  0.00000000000E+00  0.45593999997E+02  0.45594000000E+02  0.51100000000E-03 0.  1.
         11   -1    0    0    0    0 -0.00000000000E+00 -0.00000000000E+00 -0.45593999997E+02  0.45594000000E+02  0.51100000000E-03 0. -1.
    9900012    2    1    2    0    0 -0.65145470354E+01 -0.37550977163E+02  0.20763143963E+02  0.47787270096E+02  0.19999995677E+02 0.  0.
         12    1    1    2    0    0  0.65145470354E+01  0.37550977163E+02 -0.20763143963E+02  0.43400729904E+02  0.00000000000E+00 0. -1.
         11    1    3    3    0    0 -0.11149905269E+02 -0.20483037121E+02  0.18672019806E+02  0.29875065207E+02  0.51100000000E-03 0. -1.
        -11    1    3    3    0    0  0.45953338746E+01 -0.14745546250E+02  0.21163546770E+01  0.15589329203E+02  0.51100000000E-03 0.  1.
         12    1    3    3    0    0  0.40024358916E-01 -0.23223937922E+01 -0.25230520774E-01  0.23228756864E+01  0.00000000000E+00 0. -1.
</event>
<event>
 7    1  0.2812635E-010  0.4778727E+02  0.7816164E-02  0.1312668E+00
        -11   -1    0    0    0    0  0.00000000000E+00  0.00000000000E+00  0.45593999997E+02  0.45594000000E+02  0.51100000000E-03 0.  1.
         11   -1    0    0    0    0 -0.00000000000E+00 -0.00000000000E+00 -0.45593999997E+02  0.45594000000E+02  0.51100000000E-03 0. -1.
    9900012    2    1    2    0    0  0.27111650615E+02 -0.20510725892E+02  0.26979468988E+02  0.47787271636E+02  0.20000002697E+02 0.  0.
         12    1    1    2    0    0 -0.27111650615E+02  0.20510725892E+02 -0.26979468988E+02  0.43400728364E+02  0.00000000000E+00 0. -1.
         11    1    3    3    0    0  0.74317476071E+01  0.22075175818E+01  0.15930475229E+01  0.79146577336E+01  0.51100000000E-03 0. -1.
        -11    1    3    3    0    0  0.43864425192E+01 -0.17184251505E+01  0.48065995635E+01  0.67303241079E+01  0.51100000000E-03 0.  1.
         12    1    3    3    0    0  0.15293460488E+02 -0.20999818323E+02  0.20579821902E+02  0.33142289794E+02  0.00000000000E+00 0. -1.
</event>
<event>
 7    1  0.2812635E-010  0.4778727E+02  0.7816164E-02  0.1312668E+00
        -11   -1    0    0    0    0  0.00000000000E+00  0.00000000000E+00  0.45593999997E+02  0.45594000000E+02  0.51100000000E-03 0.  1.
         11   -1    0    0    0    0 -0.00000000000E+00 -0.00000000000E+00 -0.45593999997E+02  0.45594000000E+02  0.51100000000E-03 0. -1.
    9900012    2    1    2    0    0 -0.20941547927E+02  0.56151100154E+01  0.37597145506E+02  0.47787271431E+02  0.20000001765E+02 0.  0.
         12    1    1    2    0    0  0.20941547927E+02 -0.56151100154E+01 -0.37597145506E+02  0.43400728569E+02  0.00000000000E+00 0. -1.
         11    1    3    3    0    0  0.21191690331E+01  0.20568233944E+01  0.78437628119E+01  0.83812895892E+01  0.51100000000E-03 0. -1.
        -11    1    3    3    0    0 -0.22175590842E+02  0.56990203110E+01  0.29043299608E+02  0.36983089569E+02  0.51100000000E-03 0.  1.
        -12    1    3    3    0    0 -0.88512611835E+00 -0.21407336900E+01  0.71008308574E+00  0.24228922728E+01  0.00000000000E+00 0.  1.
</event>
<event>
 7    1  0.2812635E-010  0.4778727E+02  0.7816164E-02  0.1312668E+00
        -11   -1    0    0    0    0  0.00000000000E+00  0.00000000000E+00  0.45593999997E+02  0.45594000000E+02  0.51100000000E-03 0. -1.
         11   -1    0    0    0    0 -0.00000000000E+00 -0.00000000000E+00 -0.45593999997E+02  0.45594000000E+02  0.51100000000E-03 0.  1.
    9900012    2    1    2    0    0  0.97431860836E+01  0.22185829595E+02 -0.36006698860E+02  0.47787273362E+02  0.20000010568E+02 0.  0.
         12    1    1    2    0    0 -0.97431860836E+01 -0.22185829595E+02  0.36006698860E+02  0.43400726638E+02  0.00000000000E+00 0. -1.
         11    1    3    3    0    0  0.42344117712E+01  0.66196555583E+01 -0.67809151685E+00  0.78873247128E+01  0.51100000000E-03 0. -1.
        -11    1    3    3    0    0  0.26760475319E+01  0.15019595653E+02 -0.32274729239E+02  0.35698846363E+02  0.51100000000E-03 0.  1.
        -12    1    3    3    0    0  0.28327267805E+01  0.54657838380E+00 -0.30538781047E+01  0.42011022864E+01  0.00000000000E+00 0.  1.
</event>
<event>
 7    1  0.2812635E-010  0.4778725E+02  0.7816164E-02  0.1312668E+00
        -11   -1    0    0    0    0  0.00000000000E+00  0.00000000000E+00  0.45593999997E+02  0.45594000000E+02  0.51100000000E-03 0.  1.
         11   -1    0    0    0    0 -0.00000000000E+00 -0.00000000000E+00 -0.45593999997E+02  0.45594000000E+02  0.51100000000E-03 0. -1.
    9900012    2    1    2    0    0  0.37723931188E+02  0.18223640265E+02  0.11332638570E+02  0.47787254087E+02  0.19999922685E+02 0.  0.
         12    1    1    2    0    0 -0.37723931188E+02 -0.18223640265E+02 -0.11332638570E+02  0.43400745913E+02  0.00000000000E+00 0. -1.
         11    1    3    3    0    0  0.31398808478E+01  0.73402763409E+01  0.41792001667E+00  0.79945710267E+01  0.51100000000E-03 0. -1.
        -11    1    3    3    0    0  0.17784742789E+02  0.16898004643E+01  0.10323476031E+02  0.20633144678E+02  0.51100000000E-03 0.  1.
         12    1    3    3    0    0  0.16799307552E+02  0.91935634600E+01  0.59124252235E+00  0.19159538383E+02  0.00000000000E+00 0. -1.
</event>
<event>
 7    1  0.2812635E-010  0.4778727E+02  0.7816164E-02  0.1312668E+00
        -11   -1    0    0    0    0  0.00000000000E+00  0.00000000000E+00  0.45593999997E+02  0.45594000000E+02  0.51100000000E-03 0.  1.
         11   -1    0    0    0    0 -0.00000000000E+00 -0.00000000000E+00 -0.45593999997E+02  0.45594000000E+02  0.51100000000E-03 0. -1.
    9900012    2    1    2    0    0  0.62087129840E+01  0.42465810436E+02 -0.64599065509E+01  0.47787267684E+02  0.19999984679E+02 0.  0.
         12    1    1    2    0    0 -0.62087129840E+01 -0.42465810436E+02  0.64599065509E+01  0.43400732316E+02  0.00000000000E+00 0. -1.
         11    1    3    3    0    0 -0.43252352976E+01  0.47597443655E+01 -0.36082811938E+01  0.73744505043E+01  0.51100000000E-03 0. -1.
        -11    1    3    3    0    0  0.83357547323E+01  0.22262137427E+02 -0.59582493134E+01  0.24506903209E+02  0.51100000000E-03 0.  1.
         12    1    3    3    0    0  0.21981935493E+01  0.15443928644E+02  0.31066239564E+01  0.15905913971E+02  0.00000000000E+00 0. -1.
</event>
<event>
 7    1  0.2812635E-010  0.4778726E+02  0.7816164E-02  0.1312668E+00
        -11   -1    0    0    0    0  0.00000000000E+00  0.00000000000E+00  0.45593999997E+02  0.45594000000E+02  0.51100000000E-03 0.  1.
         11   -1    0    0    0    0 -0.00000000000E+00 -0.00000000000E+00 -0.45593999997E+02  0.45594000000E+02  0.51100000000E-03 0. -1.
    9900012    2    1    2    0    0 -0.12787685303E+02 -0.26858554172E+01  0.41387017969E+02  0.47787263012E+02  0.19999963377E+02 0.  0.
         12    1    1    2    0    0  0.12787685303E+02  0.26858554172E+01 -0.41387017969E+02  0.43400736988E+02  0.00000000000E+00 0. -1.
         11    1    3    3    0    0 -0.11477514807E+02  0.28447322810E+01  0.15244269008E+02  0.19292837680E+02  0.51100000000E-03 0. -1.
        -11    1    3    3    0    0  0.34006205767E+01 -0.56816190849E+01  0.15136310080E+02  0.16521286234E+02  0.51100000000E-03 0.  1.
        -12    1    3    3    0    0 -0.47107910731E+01  0.15103138675E+00  0.11006438882E+02  0.11973139098E+02  0.00000000000E+00 0.  1.
</event>
<event>
 7    1  0.2812635E-010  0.4778726E+02  0.7816164E-02  0.1312668E+00
        -11   -1    0    0    0    0  0.00000000000E+00  0.00000000000E+00  0.45593999997E+02  0.45594000000E+02  0.51100000000E-03 0.  1.
         11   -1    0    0    0    0 -0.00000000000E+00 -0.00000000000E+00 -0.45593999997E+02  0.45594000000E+02  0.51100000000E-03 0. -1.
    9900012    2    1    2    0    0  0.10584494144E+02  0.39080841627E+02  0.15629486268E+02  0.47787256463E+02  0.19999933518E+02 0.  0.
         12    1    1    2    0    0 -0.10584494144E+02 -0.39080841627E+02 -0.15629486268E+02  0.43400743537E+02  0.00000000000E+00 0. -1.
         11    1    3    3    0    0 -0.15623130820E+01  0.20039798101E+02  0.45885312449E+01  0.20617685353E+02  0.51100000000E-03 0. -1.
        -11    1    3    3    0    0  0.10692378578E+02  0.19456490406E+02  0.12136681128E+02  0.25301798506E+02  0.51100000000E-03 0.  1.
         12    1    3    3    0    0  0.14544286488E+01 -0.41544687963E+00 -0.10957261049E+01  0.18677726043E+01  0.00000000000E+00 0. -1.
</event>
<event>
 7    1  0.2812635E-010  0.4778727E+02  0.7816164E-02  0.1312668E+00
        -11   -1    0    0    0    0  0.00000000000E+00  0.00000000000E+00  0.45593999997E+02  0.45594000000E+02  0.51100000000E-03 0.  1.
         11   -1    0    0    0    0 -0.00000000000E+00 -0.00000000000E+00 -0.45593999997E+02  0.45594000000E+02  0.51100000000E-03 0. -1.
    9900012    2    1    2    0    0  0.78413071161E+01  0.42179778063E+02 -0.65576915720E+01  0.47787273123E+02  0.20000009477E+02 0.  0.
         12    1    1    2    0    0 -0.78413071161E+01 -0.42179778063E+02  0.65576915720E+01  0.43400726877E+02  0.00000000000E+00 0. -1.
         11    1    3    3    0    0  0.48382278419E+01  0.36784218782E+02 -0.10012210073E+02  0.38428265000E+02  0.51100000000E-03 0. -1.
        -11    1    3    3    0    0  0.14915961566E+01 -0.11681560764E+01  0.12588093455E+01  0.22746535874E+01  0.51100000000E-03 0.  1.
        -12    1    3    3    0    0  0.15114831176E+01  0.65637153566E+01  0.21957091554E+01  0.70843545360E+01  0.00000000000E+00 0.  1.
</event>
<event>
 7    1  0.2812635E-010  0.4778727E+02  0.7816164E-02  0.1312668E+00
        -11   -1    0    0    0    0  0.00000000000E+00  0.00000000000E+00  0.45593999997E+02  0.45594000000E+02  0.51100000000E-03 0. -1.
         11   -1    0    0    0    0 -0.00000000000E+00 -0.00000000000E+00 -0.45593999997E+02  0.45594000000E+02  0.51100000000E-03 0.  1.
    9900012    2    1    2    0    0  0.58693673277E+00 -0.10633166598E+01 -0.43383732593E+02  0.47787269698E+02  0.19999993861E+02 0.  0.
         12    1    1    2    0    0 -0.58693673277E+00  0.10633166598E+01  0.43383732593E+02  0.43400730302E+02  0.00000000000E+00 0. -1.
         11    1    3    3    0    0  0.36400835093E+01  0.40939939436E+01 -0.28557139646E+02  0.29077847572E+02  0.51100000000E-03 0. -1.
        -11    1    3    3    0    0 -0.18738778726E+01 -0.46265653402E+01 -0.16123161937E+02  0.16878177515E+02  0.51100000000E-03 0.  1.
         12    1    3    3    0    0 -0.11792689040E+01 -0.53074526318E+00  0.12965689898E+01  0.18312446116E+01  0.00000000000E+00 0. -1.
</event>
<event>
 7    1  0.2812635E-010  0.4778727E+02  0.7816164E-02  0.1312668E+00
        -11   -1    0    0    0    0  0.00000000000E+00  0.00000000000E+00  0.45593999997E+02  0.45594000000E+02  0.51100000000E-03 0.  1.
         11   -1    0    0    0    0 -0.00000000000E+00 -0.00000000000E+00 -0.45593999997E+02  0.45594000000E+02  0.51100000000E-03 0. -1.
    9900012    2    1    2    0    0  0.24971347230E+02  0.16216435649E+02  0.31576608044E+02  0.47787272549E+02  0.20000006861E+02 0.  0.
         12    1    1    2    0    0 -0.24971347230E+02 -0.16216435649E+02 -0.31576608044E+02  0.43400727451E+02  0.00000000000E+00 0. -1.
         11    1    3    3    0    0  0.18456185431E+01 -0.40071199287E+01  0.26437205375E+01  0.51432068276E+01  0.51100000000E-03 0. -1.
        -11    1    3    3    0    0  0.43189501636E+01  0.59054018203E+01  0.98245507023E+01  0.12249444801E+02  0.51100000000E-03 0.  1.
         12    1    3    3    0    0  0.18806778524E+02  0.14318153758E+02  0.19108336805E+02  0.30394620921E+02  0.00000000000E+00 0. -1.
</event>
<event>
 7    1  0.2812635E-010  0.4778727E+02  0.7816164E-02  0.1312668E+00
        -11   -1    0    0    0    0  0.00000000000E+00  0.00000000000E+00  0.45593999997E+02  0.45594000000E+02  0.51100000000E-03 0.  1.
         11   -1    0    0    0    0 -0.00000000000E+00 -0.00000000000E+00 -0.45593999997E+02  0.45594000000E+02  0.51100000000E-03 0. -1.
    9900012    2    1    2    0    0  0.25558464634E+02  0.25993437167E+02  0.23552687360E+02  0.47787274521E+02  0.20000015851E+02 0.  0.
         12    1    1    2    0    0 -0.25558464634E+02 -0.25993437167E+02 -0.23552687360E+02  0.43400725479E+02  0.00000000000E+00 0. -1.
         11    1    3    3    0    0  0.16397302656E+02  0.25804065890E+02  0.16987109471E+02  0.34975466248E+02  0.51100000000E-03 0. -1.
        -11    1    3    3    0    0  0.60448861948E+01 -0.14554656771E+01  0.11081140715E+01  0.63156113324E+01  0.51100000000E-03 0.  1.
         12    1    3    3    0    0  0.31162757831E+01  0.16448369544E+01  0.54574638182E+01  0.64961969405E+01  0.00000000000E+00 0. -1.
</event>
<event>
 7    1  0.2812635E-010  0.4778727E+02  0.7816164E-02  0.1312668E+00
        -11   -1    0    0    0    0  0.00000000000E+00  0.00000000000E+00  0.45593999997E+02  0.45594000000E+02  0.51100000000E-03 0.  1.
         11   -1    0    0    0    0 -0.00000000000E+00 -0.00000000000E+00 -0.45593999997E+02  0.45594000000E+02  0.51100000000E-03 0. -1.
    9900012    2    1    2    0    0 -0.39300031012E+02 -0.55234658709E+00  0.18407221554E+02  0.47787270402E+02  0.19999997069E+02 0.  0.
         12    1    1    2    0    0  0.39300031012E+02  0.55234658709E+00 -0.18407221554E+02  0.43400729598E+02  0.00000000000E+00 0. -1.
         11    1    3    3    0    0 -0.44930430433E+01  0.44489433599E+01 -0.13929845526E+01  0.64746381392E+01  0.51100000000E-03 0.  1.
        -11    1    3    3    0    0 -0.21474218269E+02 -0.66671766936E+01  0.15067721100E+02  0.27067129783E+02  0.51100000000E-03 0. -1.
        -12    1    3    3    0    0 -0.13332769701E+02  0.16658867467E+01  0.47324850070E+01  0.14245502479E+02  0.00000000000E+00 0.  1.
</event>
<event>
 7    1  0.2812635E-010  0.4778727E+02  0.7816164E-02  0.1312668E+00
        -11   -1    0    0    0    0  0.00000000000E+00  0.00000000000E+00  0.45593999997E+02  0.45594000000E+02  0.51100000000E-03 0.  1.
         11   -1    0    0    0    0 -0.00000000000E+00 -0.00000000000E+00 -0.45593999997E+02  0.45594000000E+02  0.51100000000E-03 0. -1.
    9900012    2    1    2    0    0  0.37040668805E+02 -0.21663065618E+02  0.65056490213E+01  0.47787273892E+02  0.20000012984E+02 0.  0.
         12    1    1    2    0    0 -0.37040668805E+02  0.21663065618E+02 -0.65056490213E+01  0.43400726108E+02  0.00000000000E+00 0. -1.
         11    1    3    3    0    0  0.55615170065E+01 -0.11323588614E+02 -0.19094606557E+01  0.12759317018E+02  0.51100000000E-03 0. -1.
        -11    1    3    3    0    0  0.14769485067E+02 -0.28944390346E+01  0.72284836485E+01  0.16696300266E+02  0.51100000000E-03 0.  1.
         12    1    3    3    0    0  0.16709666731E+02 -0.74450379699E+01  0.11866260284E+01  0.18331656608E+02  0.00000000000E+00 0. -1.
</event>
<event>
 7    1  0.2812635E-010  0.4778727E+02  0.7816164E-02  0.1312668E+00
        -11   -1    0    0    0    0  0.00000000000E+00  0.00000000000E+00  0.45593999997E+02  0.45594000000E+02  0.51100000000E-03 0.  1.
         11   -1    0    0    0    0 -0.00000000000E+00 -0.00000000000E+00 -0.45593999997E+02  0.45594000000E+02  0.51100000000E-03 0. -1.
    9900012    2    1    2    0    0 -0.81354350071E+01 -0.70331084955E+00  0.42625619154E+02  0.47787270085E+02  0.19999995625E+02 0.  0.
         12    1    1    2    0    0  0.81354350071E+01  0.70331084955E+00 -0.42625619154E+02  0.43400729915E+02  0.00000000000E+00 0. -1.
         11    1    3    3    0    0 -0.21754623645E+01 -0.14122797292E+01 -0.13108035509E+01  0.29060930376E+01  0.51100000000E-03 0. -1.
        -11    1    3    3    0    0 -0.39212153816E+01  0.14265930556E+00  0.41366826266E+02  0.41552504104E+02  0.51100000000E-03 0.  1.
        -12    1    3    3    0    0 -0.20387572611E+01  0.56630957413E+00  0.25695964391E+01  0.33286729432E+01  0.00000000000E+00 0.  1.
</event>
<event>
 7    1  0.2812635E-010  0.4778727E+02  0.7816164E-02  0.1312668E+00
        -11   -1    0    0    0    0  0.00000000000E+00  0.00000000000E+00  0.45593999997E+02  0.45594000000E+02  0.51100000000E-03 0.  1.
         11   -1    0    0    0    0 -0.00000000000E+00 -0.00000000000E+00 -0.45593999997E+02  0.45594000000E+02  0.51100000000E-03 0. -1.
    9900012    2    1    2    0    0 -0.35434763799E+02  0.19268676603E+02  0.16022448419E+02  0.47787271471E+02  0.20000001944E+02 0.  0.
         12    1    1    2    0    0  0.35434763799E+02 -0.19268676603E+02 -0.16022448419E+02  0.43400728529E+02  0.00000000000E+00 0. -1.
         11    1    3    3    0    0 -0.79452073213E+01  0.20405772775E+01  0.11875475187E+02  0.14433197366E+02  0.51100000000E-03 0. -1.
        -11    1    3    3    0    0 -0.18410717275E+02  0.77996624023E+01  0.29374942732E+01  0.20209357166E+02  0.51100000000E-03 0.  1.
         12    1    3    3    0    0 -0.90788392023E+01  0.94284369229E+01  0.12094789588E+01  0.13144716940E+02  0.00000000000E+00 0. -1.
</event>
<event>
 7    1  0.2812635E-010  0.4778727E+02  0.7816164E-02  0.1312668E+00
        -11   -1    0    0    0    0  0.00000000000E+00  0.00000000000E+00  0.45593999997E+02  0.45594000000E+02  0.51100000000E-03 0.  1.
         11   -1    0    0    0    0 -0.00000000000E+00 -0.00000000000E+00 -0.45593999997E+02  0.45594000000E+02  0.51100000000E-03 0. -1.
    9900012    2    1    2    0    0  0.12353577244E+02 -0.34697392407E+02  0.22958743063E+02  0.47787265057E+02  0.19999972701E+02 0.  0.
         12    1    1    2    0    0 -0.12353577244E+02  0.34697392407E+02 -0.22958743063E+02  0.43400734943E+02  0.00000000000E+00 0. -1.
         11    1    3    3    0    0  0.92966825790E+01 -0.13262567311E+02  0.18190722074E+02  0.24356238800E+02  0.51100000000E-03 0. -1.
        -11    1    3    3    0    0  0.37138164857E+01 -0.59075801861E+01  0.35847914919E+01  0.78449134378E+01  0.51100000000E-03 0.  1.
         12    1    3    3    0    0 -0.65692182084E+00 -0.15527244910E+02  0.11832294969E+01  0.15586112819E+02  0.00000000000E+00 0. -1.
</event>
<event>
 7    1  0.2812635E-010  0.4778727E+02  0.7816164E-02  0.1312668E+00
        -11   -1    0    0    0    0  0.00000000000E+00  0.00000000000E+00  0.45593999997E+02  0.45594000000E+02  0.51100000000E-03 0. -1.
         11   -1    0    0    0    0 -0.00000000000E+00 -0.00000000000E+00 -0.45593999997E+02  0.45594000000E+02  0.51100000000E-03 0.  1.
    9900012    2    1    2    0    0  0.40843729382E+02 -0.90380909173E+01  0.11564001707E+02  0.47787268984E+02  0.19999990604E+02 0.  0.
         12    1    1    2    0    0 -0.40843729382E+02  0.90380909173E+01 -0.11564001707E+02  0.43400731016E+02  0.00000000000E+00 0. -1.
         11    1    3    3    0    0  0.35127016161E+02 -0.70670640313E+01  0.12075772245E+02  0.37811042487E+02  0.51100000000E-03 0.  1.
        -11    1    3    3    0    0  0.57492811159E+01 -0.34752855458E+01  0.20338934119E+01  0.70191570467E+01  0.51100000000E-03 0. -1.
         12    1    3    3    0    0 -0.32567894234E-01  0.15042586598E+01 -0.25456639504E+01  0.29570694499E+01  0.00000000000E+00 0. -1.
</event>
<event>
 7    1  0.2812635E-010  0.4778732E+02  0.7816164E-02  0.1312668E+00
        -11   -1    0    0    0    0  0.00000000000E+00  0.00000000000E+00  0.45593999997E+02  0.45594000000E+02  0.51100000000E-03 0.  1.
         11   -1    0    0    0    0 -0.00000000000E+00 -0.00000000000E+00 -0.45593999997E+02  0.45594000000E+02  0.51100000000E-03 0. -1.
    9900012    2    1    2    0    0  0.61465329510E+01 -0.27364813780E+02  0.33121084096E+02  0.47787318989E+02  0.20000218598E+02 0.  0.
         12    1    1    2    0    0 -0.61465329510E+01  0.27364813780E+02 -0.33121084096E+02  0.43400681011E+02  0.00000000000E+00 0. -1.
         11    1    3    3    0    0 -0.14973436983E+01 -0.21588692682E+01  0.16923236938E+00  0.26327541708E+01  0.51100000000E-03 0. -1.
        -11    1    3    3    0    0 -0.33726511148E+01 -0.91689383959E+01  0.18489482284E+02  0.20911842631E+02  0.51100000000E-03 0.  1.
        -12    1    3    3    0    0  0.11016527764E+02 -0.16037006116E+02  0.14462369442E+02  0.24242722187E+02  0.00000000000E+00 0.  1.
</event>
<event>
 7    1  0.2812635E-010  0.4778728E+02  0.7816164E-02  0.1312668E+00
        -11   -1    0    0    0    0  0.00000000000E+00  0.00000000000E+00  0.45593999997E+02  0.45594000000E+02  0.51100000000E-03 0.  1.
         11   -1    0    0    0    0 -0.00000000000E+00 -0.00000000000E+00 -0.45593999997E+02  0.45594000000E+02  0.51100000000E-03 0. -1.
    9900012    2    1    2    0    0  0.10795359253E+02 -0.37529221908E+02  0.18937807611E+02  0.47787276095E+02  0.20000023027E+02 0.  0.
         12    1    1    2    0    0 -0.10795359253E+02  0.37529221908E+02 -0.18937807611E+02  0.43400723905E+02  0.00000000000E+00 0. -1.
         11    1    3    3    0    0 -0.13219644468E+01 -0.64115895152E+00 -0.12397967928E+00  0.14744646560E+01  0.51100000000E-03 0. -1.
        -11    1    3    3    0    0  0.56443874709E+01 -0.14114628441E+01  0.74588879845E+00  0.58658066489E+01  0.51100000000E-03 0.  1.
        -12    1    3    3    0    0  0.64729362285E+01 -0.35476600112E+02  0.18315898492E+02  0.40447004790E+02  0.00000000000E+00 0.  1.
</event>
<event>
 7    1  0.2812635E-010  0.4778727E+02  0.7816164E-02  0.1312668E+00
        -11   -1    0    0    0    0  0.00000000000E+00  0.00000000000E+00  0.45593999997E+02  0.45594000000E+02  0.51100000000E-03 0. -1.
         11   -1    0    0    0    0 -0.00000000000E+00 -0.00000000000E+00 -0.45593999997E+02  0.45594000000E+02  0.51100000000E-03 0.  1.
    9900012    2    1    2    0    0  0.26419723361E+02 -0.34432806419E+02  0.59470171641E-01  0.47787268704E+02  0.19999989328E+02 0.  0.
         12    1    1    2    0    0 -0.26419723361E+02  0.34432806419E+02 -0.59470171641E-01  0.43400731296E+02  0.00000000000E+00 0. -1.
         11    1    3    3    0    0  0.14703152352E+02 -0.23518778105E+02 -0.56522559473E+01  0.28306600117E+02  0.51100000000E-03 0. -1.
        -11    1    3    3    0    0  0.10148894518E+02 -0.12619560580E+02  0.56876136408E+01  0.17163983173E+02  0.51100000000E-03 0.  1.
         12    1    3    3    0    0  0.15676764910E+01  0.17055322667E+01  0.24112478170E-01  0.23166854134E+01  0.00000000000E+00 0. -1.
</event>
<event>
 7    1  0.2812635E-010  0.4778725E+02  0.7816164E-02  0.1312668E+00
        -11   -1    0    0    0    0  0.00000000000E+00  0.00000000000E+00  0.45593999997E+02  0.45594000000E+02  0.51100000000E-03 0.  1.
         11   -1    0    0    0    0 -0.00000000000E+00 -0.00000000000E+00 -0.45593999997E+02  0.45594000000E+02  0.51100000000E-03 0. -1.
    9900012    2    1    2    0    0  0.28691065070E+02 -0.32379702801E+02  0.34644959221E+01  0.47787250002E+02  0.19999904061E+02 0.  0.
         12    1    1    2    0    0 -0.28691065070E+02  0.32379702801E+02 -0.34644959221E+01  0.43400749998E+02  0.00000000000E+00 0. -1.
         11    1    3    3    0    0  0.24314134434E+02 -0.25154328914E+02  0.47117874970E+01  0.35300401386E+02  0.51100000000E-03 0. -1.
        -11    1    3    3    0    0  0.61074350374E+01 -0.32725048470E+01 -0.33390515097E+01  0.76915093418E+01  0.51100000000E-03 0.  1.
         12    1    3    3    0    0 -0.17305044005E+01 -0.39528690401E+01  0.20917599349E+01  0.47953392741E+01  0.00000000000E+00 0. -1.
</event>
<event>
 7    1  0.2812635E-010  0.4778727E+02  0.7816164E-02  0.1312668E+00
        -11   -1    0    0    0    0  0.00000000000E+00  0.00000000000E+00  0.45593999997E+02  0.45594000000E+02  0.51100000000E-03 0.  1.
         11   -1    0    0    0    0 -0.00000000000E+00 -0.00000000000E+00 -0.45593999997E+02  0.45594000000E+02  0.51100000000E-03 0. -1.
    9900012    2    1    2    0    0 -0.29906020204E+02  0.12953664296E+01  0.31425709029E+02  0.47787271819E+02  0.20000003532E+02 0.  0.
         12    1    1    2    0    0  0.29906020204E+02 -0.12953664296E+01 -0.31425709029E+02  0.43400728181E+02  0.00000000000E+00 0. -1.
         11    1    3    3    0    0 -0.22429643681E+02  0.41012641613E+01  0.26377258218E+02  0.34866445686E+02  0.51100000000E-03 0.  1.
        -11    1    3    3    0    0 -0.53012335305E+00 -0.45310858534E+01  0.30573960836E+01  0.54917611796E+01  0.51100000000E-03 0. -1.
        -12    1    3    3    0    0 -0.69462531699E+01  0.17251881216E+01  0.19910547273E+01  0.74290649535E+01  0.00000000000E+00 0.  1.
</event>
<event>
 7    1  0.2812635E-010  0.4778727E+02  0.7816164E-02  0.1312668E+00
        -11   -1    0    0    0    0  0.00000000000E+00  0.00000000000E+00  0.45593999997E+02  0.45594000000E+02  0.51100000000E-03 0.  1.
         11   -1    0    0    0    0 -0.00000000000E+00 -0.00000000000E+00 -0.45593999997E+02  0.45594000000E+02  0.51100000000E-03 0. -1.
    9900012    2    1    2    0    0  0.12147541955E+02  0.15637594317E+01  0.41636706783E+02  0.47787268775E+02  0.19999989654E+02 0.  0.
         12    1    1    2    0    0 -0.12147541955E+02 -0.15637594317E+01 -0.41636706783E+02  0.43400731225E+02  0.00000000000E+00 0. -1.
         11    1    3    3    0    0  0.21261675508E+01 -0.39025266856E+01  0.25636217441E+00  0.44515193823E+01  0.51100000000E-03 0. -1.
        -11    1    3    3    0    0  0.34201096177E+01  0.27582265719E+01  0.26154335829E+02  0.26520826656E+02  0.51100000000E-03 0.  1.
        -12    1    3    3    0    0  0.66012647867E+01  0.27080595453E+01  0.15226008780E+02  0.16814922737E+02  0.00000000000E+00 0.  1.
</event>
<event>
 7    1  0.2812635E-010  0.4778727E+02  0.7816164E-02  0.1312668E+00
        -11   -1    0    0    0    0  0.00000000000E+00  0.00000000000E+00  0.45593999997E+02  0.45594000000E+02  0.51100000000E-03 0.  1.
         11   -1    0    0    0    0 -0.00000000000E+00 -0.00000000000E+00 -0.45593999997E+02  0.45594000000E+02  0.51100000000E-03 0. -1.
    9900012    2    1    2    0    0  0.29309521515E+02  0.89601678296E+01  0.30729308769E+02  0.47787273319E+02  0.20000010373E+02 0.  0.
         12    1    1    2    0    0 -0.29309521515E+02 -0.89601678296E+01 -0.30729308769E+02  0.43400726681E+02  0.00000000000E+00 0. -1.
         11    1    3    3    0    0  0.12241742997E+02  0.88341424168E+01  0.54950973102E+01  0.16065442371E+02  0.51100000000E-03 0. -1.
        -11    1    3    3    0    0  0.10207287541E+02  0.44222900365E+01  0.14292570604E+02  0.18111403669E+02  0.51100000000E-03 0.  1.
         12    1    3    3    0    0  0.68604909766E+01 -0.42962646237E+01  0.10941640855E+02  0.13610427280E+02  0.00000000000E+00 0. -1.
</event>
<event>
 7    1  0.2812635E-010  0.4778727E+02  0.7816164E-02  0.1312668E+00
        -11   -1    0    0    0    0  0.00000000000E+00  0.00000000000E+00  0.45593999997E+02  0.45594000000E+02  0.51100000000E-03 0.  1.
         11   -1    0    0    0    0 -0.00000000000E+00 -0.00000000000E+00 -0.45593999997E+02  0.45594000000E+02  0.51100000000E-03 0. -1.
    9900012    2    1    2    0    0  0.25371548436E+02  0.34373898360E+02  0.76382706339E+01  0.47787268016E+02  0.19999986192E+02 0.  0.
         12    1    1    2    0    0 -0.25371548436E+02 -0.34373898360E+02 -0.76382706339E+01  0.43400731984E+02  0.00000000000E+00 0. -1.
         11    1    3    3    0    0  0.18396464807E+02  0.25628949415E+02 -0.19091502745E+01  0.31605661210E+02  0.51100000000E-03 0. -1.
        -11    1    3    3    0    0  0.41709476821E+01  0.22706207185E+01  0.59950843911E+00  0.47866411651E+01  0.51100000000E-03 0.  1.
         12    1    3    3    0    0  0.28041359470E+01  0.64743282260E+01  0.89479124693E+01  0.11394965640E+02  0.00000000000E+00 0. -1.
</event>
<event>
 7    1  0.2812635E-010  0.4778727E+02  0.7816164E-02  0.1312668E+00
        -11   -1    0    0    0    0  0.00000000000E+00  0.00000000000E+00  0.45593999997E+02  0.45594000000E+02  0.51100000000E-03 0.  1.
         11   -1    0    0    0    0 -0.00000000000E+00 -0.00000000000E+00 -0.45593999997E+02  0.45594000000E+02  0.51100000000E-03 0. -1.
    9900012    2    1    2    0    0 -0.50210239348E+01 -0.16675473839E+02  0.39753507151E+02  0.47787269131E+02  0.19999991278E+02 0.  0.
         12    1    1    2    0    0  0.50210239348E+01  0.16675473839E+02 -0.39753507151E+02  0.43400730869E+02  0.00000000000E+00 0. -1.
         11    1    3    3    0    0 -0.57090165184E+01  0.85284529577E+00  0.19682765192E+02  0.20511739579E+02  0.51100000000E-03 0. -1.
        -11    1    3    3    0    0  0.50066012477E+00 -0.14932558606E+02  0.19576277514E+02  0.24626461554E+02  0.51100000000E-03 0.  1.
         12    1    3    3    0    0  0.18733245884E+00 -0.25957605291E+01  0.49446444522E+00  0.26490679988E+01  0.00000000000E+00 0. -1.
</event>
<event>
 7    1  0.2812635E-010  0.4778728E+02  0.7816164E-02  0.1312668E+00
        -11   -1    0    0    0    0  0.00000000000E+00  0.00000000000E+00  0.45593999997E+02  0.45594000000E+02  0.51100000000E-03 0. -1.
         11   -1    0    0    0    0 -0.00000000000E+00 -0.00000000000E+00 -0.45593999997E+02  0.45594000000E+02  0.51100000000E-03 0.  1.
    9900012    2    1    2    0    0 -0.84606643372E+01 -0.39387829589E+02  0.16144305288E+02  0.47787279338E+02  0.20000037814E+02 0.  0.
         12    1    1    2    0    0  0.84606643372E+01  0.39387829589E+02 -0.16144305288E+02  0.43400720662E+02  0.00000000000E+00 0. -1.
         11    1    3    3    0    0  0.15822735409E+01 -0.10507958323E+02  0.92445961035E+01  0.14084861911E+02  0.51100000000E-03 0. -1.
        -11    1    3    3    0    0 -0.12267757698E+02 -0.17802314390E+02  0.55684264129E+01  0.22325493266E+02  0.51100000000E-03 0.  1.
        -12    1    3    3    0    0  0.22248198197E+01 -0.11077556875E+02  0.13312827721E+01  0.11376924161E+02  0.00000000000E+00 0.  1.
</event>
<event>
 7    1  0.2812635E-010  0.4778728E+02  0.7816164E-02  0.1312668E+00
        -11   -1    0    0    0    0  0.00000000000E+00  0.00000000000E+00  0.45593999997E+02  0.45594000000E+02  0.51100000000E-03 0.  1.
         11   -1    0    0    0    0 -0.00000000000E+00 -0.00000000000E+00 -0.45593999997E+02  0.45594000000E+02  0.51100000000E-03 0. -1.
    9900012    2    1    2    0    0 -0.30069619637E+02 -0.31295945614E+02 -0.66245813307E-01  0.47787278514E+02  0.20000034058E+02 0.  0.
         12    1    1    2    0    0  0.30069619637E+02  0.31295945614E+02  0.66245813307E-01  0.43400721486E+02  0.00000000000E+00 0. -1.
         11    1    3    3    0    0 -0.72423963053E+01 -0.84597905325E+01 -0.36627561699E+01  0.11723316217E+02  0.51100000000E-03 0. -1.
        -11    1    3    3    0    0 -0.14429886111E+02 -0.23284477675E+02  0.37791930733E+01  0.27652681865E+02  0.51100000000E-03 0.  1.
        -12    1    3    3    0    0 -0.83973372202E+01  0.44832259359E+00 -0.18268271665E+00  0.84112804324E+01  0.00000000000E+00 0.  1.
</event>
<event>
 7    1  0.2812635E-010  0.4778728E+02  0.7816164E-02  0.1312668E+00
        -11   -1    0    0    0    0  0.00000000000E+00  0.00000000000E+00  0.45593999997E+02  0.45594000000E+02  0.51100000000E-03 0.  1.
         11   -1    0    0    0    0 -0.00000000000E+00 -0.00000000000E+00 -0.45593999997E+02  0.45594000000E+02  0.51100000000E-03 0. -1.
    9900012    2    1    2    0    0 -0.35023200687E+02  0.20626666319E+02  0.15216395606E+02  0.47787278289E+02  0.20000033032E+02 0.  0.
         12    1    1    2    0    0  0.35023200687E+02 -0.20626666319E+02 -0.15216395606E+02  0.43400721711E+02  0.00000000000E+00 0. -1.
         11    1    3    3    0    0  0.90667664296E+00 -0.30890971303E+00  0.57926445793E+00  0.11193906016E+01  0.51100000000E-03 0. -1.
        -11    1    3    3    0    0 -0.85666948658E+01  0.57886001402E+01 -0.29952568746E+01  0.10764186756E+02  0.51100000000E-03 0.  1.
        -12    1    3    3    0    0 -0.27363182464E+02  0.15146975892E+02  0.17632388022E+02  0.35903700932E+02  0.00000000000E+00 0.  1.
</event>
<event>
 7    1  0.2812635E-010  0.4778727E+02  0.7816164E-02  0.1312668E+00
        -11   -1    0    0    0    0  0.00000000000E+00  0.00000000000E+00  0.45593999997E+02  0.45594000000E+02  0.51100000000E-03 0. -1.
         11   -1    0    0    0    0 -0.00000000000E+00 -0.00000000000E+00 -0.45593999997E+02  0.45594000000E+02  0.51100000000E-03 0.  1.
    9900012    2    1    2    0    0 -0.33620693333E+01 -0.25345493669E+02 -0.35070297254E+02  0.47787270640E+02  0.19999998156E+02 0.  0.
         12    1    1    2    0    0  0.33620693333E+01  0.25345493669E+02  0.35070297254E+02  0.43400729360E+02  0.00000000000E+00 0. -1.
         11    1    3    3    0    0  0.69641024592E+01 -0.96192266587E+01 -0.17236194341E+02  0.20931188218E+02  0.51100000000E-03 0. -1.
        -11    1    3    3    0    0 -0.45821909659E+01 -0.31418280465E+01 -0.85482215838E+01  0.10195079697E+02  0.51100000000E-03 0.  1.
         12    1    3    3    0    0 -0.57439808266E+01 -0.12584438963E+02 -0.92858813287E+01  0.16661002725E+02  0.00000000000E+00 0. -1.
</event>
<event>
 7    1  0.2812635E-010  0.4778727E+02  0.7816164E-02  0.1312668E+00
        -11   -1    0    0    0    0  0.00000000000E+00  0.00000000000E+00  0.45593999997E+02  0.45594000000E+02  0.51100000000E-03 0. -1.
         11   -1    0    0    0    0 -0.00000000000E+00 -0.00000000000E+00 -0.45593999997E+02  0.45594000000E+02  0.51100000000E-03 0.  1.
    9900012    2    1    2    0    0  0.37557592692E+01 -0.42214164261E+02 -0.93531988771E+01  0.47787265891E+02  0.19999976503E+02 0.  0.
         12    1    1    2    0    0 -0.37557592692E+01  0.42214164261E+02  0.93531988771E+01  0.43400734109E+02  0.00000000000E+00 0. -1.
         11    1    3    3    0    0  0.16475949440E+01 -0.22600150522E+02  0.39783316445E+01  0.23006705450E+02  0.51100000000E-03 0. -1.
        -11    1    3    3    0    0  0.13166370564E+01 -0.15757420588E+02 -0.69277368034E+01  0.17263353504E+02  0.51100000000E-03 0.  1.
         12    1    3    3    0    0  0.79152726887E+00 -0.38565931512E+01 -0.64037937182E+01  0.75172069372E+01  0.00000000000E+00 0. -1.
</event>
<event>
 7    1  0.2812635E-010  0.4778727E+02  0.7816164E-02  0.1312668E+00
        -11   -1    0    0    0    0  0.00000000000E+00  0.00000000000E+00  0.45593999997E+02  0.45594000000E+02  0.51100000000E-03 0.  1.
         11   -1    0    0    0    0 -0.00000000000E+00 -0.00000000000E+00 -0.45593999997E+02  0.45594000000E+02  0.51100000000E-03 0. -1.
    9900012    2    1    2    0    0 -0.10222398584E+02 -0.22963465213E+02  0.35380855846E+02  0.47787272728E+02  0.20000007674E+02 0.  0.
         12    1    1    2    0    0  0.10222398584E+02  0.22963465213E+02 -0.35380855846E+02  0.43400727272E+02  0.00000000000E+00 0. -1.
         11    1    3    3    0    0 -0.14881804255E+01  0.19996410871E+01 -0.30208998629E+00  0.25108771529E+01  0.51100000000E-03 0. -1.
        -11    1    3    3    0    0 -0.79344030069E+01 -0.10422220729E+02  0.19663678560E+02  0.23627054213E+02  0.51100000000E-03 0.  1.
         12    1    3    3    0    0 -0.79981515127E+00 -0.14540885571E+02  0.16019267272E+02  0.21649341362E+02  0.00000000000E+00 0. -1.
</event>
<event>
 7    1  0.2812635E-010  0.4778727E+02  0.7816164E-02  0.1312668E+00
        -11   -1    0    0    0    0  0.00000000000E+00  0.00000000000E+00  0.45593999997E+02  0.45594000000E+02  0.51100000000E-03 0.  1.
         11   -1    0    0    0    0 -0.00000000000E+00 -0.00000000000E+00 -0.45593999997E+02  0.45594000000E+02  0.51100000000E-03 0. -1.
    9900012    2    1    2    0    0 -0.38713843967E+02  0.12119870200E+02 -0.15426292193E+02  0.47787268909E+02  0.19999990266E+02 0.  0.
         12    1    1    2    0    0  0.38713843967E+02 -0.12119870200E+02  0.15426292193E+02  0.43400731091E+02  0.00000000000E+00 0. -1.
         11    1    3    3    0    0 -0.27821335246E+02  0.53222894718E+01 -0.15086672761E+02  0.32093007889E+02  0.51100000000E-03 0. -1.
        -11    1    3    3    0    0 -0.11006726294E+02  0.23787279592E+01  0.93006688819E-03  0.11260833519E+02  0.51100000000E-03 0.  1.
         12    1    3    3    0    0  0.11421757345E+00  0.44188527691E+01 -0.34054949910E+00  0.44334275015E+01  0.00000000000E+00 0. -1.
</event>
<event>
 7    1  0.2812635E-010  0.4778727E+02  0.7816164E-02  0.1312668E+00
        -11   -1    0    0    0    0  0.00000000000E+00  0.00000000000E+00  0.45593999997E+02  0.45594000000E+02  0.51100000000E-03 0. -1.
         11   -1    0    0    0    0 -0.00000000000E+00 -0.00000000000E+00 -0.45593999997E+02  0.45594000000E+02  0.51100000000E-03 0.  1.
    9900012    2    1    2    0    0 -0.31719613347E+02 -0.90159675092E+01  0.28217047774E+02  0.47787270443E+02  0.19999997256E+02 0.  0.
         12    1    1    2    0    0  0.31719613347E+02  0.90159675092E+01 -0.28217047774E+02  0.43400729557E+02  0.00000000000E+00 0. -1.
         11    1    3    3    0    0 -0.31497546620E+01 -0.11451323441E+01  0.89182622102E+01  0.95272075462E+01  0.51100000000E-03 0. -1.
        -11    1    3    3    0    0 -0.24717468428E+02 -0.10412012316E+02  0.11466489673E+02  0.29169224050E+02  0.51100000000E-03 0.  1.
        -12    1    3    3    0    0 -0.38523902567E+01  0.25411771514E+01  0.78322958914E+01  0.90908388467E+01  0.00000000000E+00 0.  1.
</event>
<event>
 7    1  0.2812635E-010  0.4778728E+02  0.7816164E-02  0.1312668E+00
        -11   -1    0    0    0    0  0.00000000000E+00  0.00000000000E+00  0.45593999997E+02  0.45594000000E+02  0.51100000000E-03 0. -1.
         11   -1    0    0    0    0 -0.00000000000E+00 -0.00000000000E+00 -0.45593999997E+02  0.45594000000E+02  0.51100000000E-03 0.  1.
    9900012    2    1    2    0    0  0.25561517236E+02 -0.33966291098E+02 -0.87477291316E+01  0.47787275820E+02  0.20000021776E+02 0.  0.
         12    1    1    2    0    0 -0.25561517236E+02  0.33966291098E+02  0.87477291316E+01  0.43400724180E+02  0.00000000000E+00 0. -1.
         11    1    3    3    0    0 -0.17924092117E-01 -0.33289012483E+01 -0.10817870838E-02  0.33289497180E+01  0.51100000000E-03 0. -1.
        -11    1    3    3    0    0  0.14124758667E+02 -0.28145989755E+02 -0.89347870288E+01  0.32734323977E+02  0.51100000000E-03 0.  1.
        -12    1    3    3    0    0  0.11454682661E+02 -0.24914000942E+01  0.18813968431E+00  0.11724002126E+02  0.00000000000E+00 0.  1.
</event>
<event>
 7    1  0.2812635E-010  0.4778728E+02  0.7816164E-02  0.1312668E+00
        -11   -1    0    0    0    0  0.00000000000E+00  0.00000000000E+00  0.45593999997E+02  0.45594000000E+02  0.51100000000E-03 0.  1.
         11   -1    0    0    0    0 -0.00000000000E+00 -0.00000000000E+00 -0.45593999997E+02  0.45594000000E+02  0.51100000000E-03 0. -1.
    9900012    2    1    2    0    0 -0.47280741451E+01  0.13432410328E+01  0.43121498184E+02  0.47787278955E+02  0.20000036068E+02 0.  0.
         12    1    1    2    0    0  0.47280741451E+01 -0.13432410328E+01 -0.43121498184E+02  0.43400721045E+02  0.00000000000E+00 0. -1.
         11    1    3    3    0    0 -0.37344093643E+01 -0.42815012973E+01  0.37092916026E+02  0.37525477828E+02  0.51100000000E-03 0.  1.
        -11    1    3    3    0    0 -0.24280707490E+01  0.60452115197E+01  0.36921371731E+01  0.74881230656E+01  0.51100000000E-03 0. -1.
         12    1    3    3    0    0  0.14344059682E+01 -0.42046918961E+00  0.23364449851E+01  0.27736780616E+01  0.00000000000E+00 0. -1.
</event>
<event>
 7    1  0.2812635E-010  0.4778727E+02  0.7816164E-02  0.1312668E+00
        -11   -1    0    0    0    0  0.00000000000E+00  0.00000000000E+00  0.45593999997E+02  0.45594000000E+02  0.51100000000E-03 0.  1.
         11   -1    0    0    0    0 -0.00000000000E+00 -0.00000000000E+00 -0.45593999997E+02  0.45594000000E+02  0.51100000000E-03 0. -1.
    9900012    2    1    2    0    0  0.18776967339E+02  0.94737633960E+01  0.37964408273E+02  0.47787274306E+02  0.20000014869E+02 0.  0.
         12    1    1    2    0    0 -0.18776967339E+02 -0.94737633960E+01 -0.37964408273E+02  0.43400725694E+02  0.00000000000E+00 0. -1.
         11    1    3    3    0    0 -0.21742063257E+01 -0.20048621481E+01  0.67309434585E+01  0.73520232237E+01  0.51100000000E-03 0. -1.
        -11    1    3    3    0    0  0.28604284478E+01 -0.74915195588E+00  0.81058527051E+01  0.86283328572E+01  0.51100000000E-03 0.  1.
         12    1    3    3    0    0  0.18090745216E+02  0.12227777500E+02  0.23127612109E+02  0.31806918225E+02  0.00000000000E+00 0. -1.
</event>
<event>
 7    1  0.2812635E-010  0.4778728E+02  0.7816164E-02  0.1312668E+00
        -11   -1    0    0    0    0  0.00000000000E+00  0.00000000000E+00  0.45593999997E+02  0.45594000000E+02  0.51100000000E-03 0. -1.
         11   -1    0    0    0    0 -0.00000000000E+00 -0.00000000000E+00 -0.45593999997E+02  0.45594000000E+02  0.51100000000E-03 0.  1.
    9900012    2    1    2    0    0  0.16733899389E+01  0.28353879067E+02 -0.32815853222E+02  0.47787275182E+02  0.20000018864E+02 0.  0.
         12    1    1    2    0    0 -0.16733899389E+01 -0.28353879067E+02  0.32815853222E+02  0.43400724818E+02  0.00000000000E+00 0. -1.
         11    1    3    3    0    0 -0.46731734393E+01  0.77983587960E+01 -0.22392882272E+01  0.93630850648E+01  0.51100000000E-03 0. -1.
        -11    1    3    3    0    0  0.45319000899E+00  0.87092528562E+01 -0.62404655880E+01  0.10723799584E+02  0.51100000000E-03 0.  1.
         12    1    3    3    0    0  0.58933733692E+01  0.11846267415E+02 -0.24336099407E+02  0.27700390533E+02  0.00000000000E+00 0. -1.
</event>
<event>
 7    1  0.2812635E-010  0.4778727E+02  0.7816164E-02  0.1312668E+00
        -11   -1    0    0    0    0  0.00000000000E+00  0.00000000000E+00  0.45593999997E+02  0.45594000000E+02  0.51100000000E-03 0. -1.
         11   -1    0    0    0    0 -0.00000000000E+00 -0.00000000000E+00 -0.45593999997E+02  0.45594000000E+02  0.51100000000E-03 0.  1.
    9900012    2    1    2    0    0 -0.23324375325E+02 -0.31608757462E+02 -0.18452184905E+02  0.47787272352E+02  0.20000005962E+02 0.  0.
         12    1    1    2    0    0  0.23324375325E+02  0.31608757462E+02  0.18452184905E+02  0.43400727648E+02  0.00000000000E+00 0. -1.
         11    1    3    3    0    0  0.11770712280E+01  0.18544451471E+01 -0.13328570782E+01  0.25692356317E+01  0.51100000000E-03 0. -1.
        -11    1    3    3    0    0 -0.20339126710E+02 -0.23686674392E+02 -0.13093614733E+02  0.33855300414E+02  0.51100000000E-03 0.  1.
         12    1    3    3    0    0 -0.41623198429E+01 -0.97765282178E+01 -0.40257130929E+01  0.11362736307E+02  0.00000000000E+00 0. -1.
</event>
<event>
 7    1  0.2812635E-010  0.4778726E+02  0.7816164E-02  0.1312668E+00
        -11   -1    0    0    0    0  0.00000000000E+00  0.00000000000E+00  0.45593999997E+02  0.45594000000E+02  0.51100000000E-03 0. -1.
         11   -1    0    0    0    0 -0.00000000000E+00 -0.00000000000E+00 -0.45593999997E+02  0.45594000000E+02  0.51100000000E-03 0.  1.
    9900012    2    1    2    0    0 -0.16737602696E+02 -0.30298321872E+02 -0.26181829134E+02  0.47787264649E+02  0.19999970839E+02 0.  0.
         12    1    1    2    0    0  0.16737602696E+02  0.30298321872E+02  0.26181829134E+02  0.43400735351E+02  0.00000000000E+00 0. -1.
         11    1    3    3    0    0 -0.12122829373E+01  0.10984186188E+01 -0.21544876422E+01  0.27051747898E+01  0.51100000000E-03 0. -1.
        -11    1    3    3    0    0  0.81774875898E+00 -0.14853306737E+02 -0.99931386092E+01  0.17920721346E+02  0.51100000000E-03 0.  1.
        -12    1    3    3    0    0 -0.16343068517E+02 -0.16543433754E+02 -0.14034202883E+02  0.27161368512E+02  0.00000000000E+00 0.  1.
</event>
<event>
 7    1  0.2812635E-010  0.4778727E+02  0.7816164E-02  0.1312668E+00
        -11   -1    0    0    0    0  0.00000000000E+00  0.00000000000E+00  0.45593999997E+02  0.45594000000E+02  0.51100000000E-03 0. -1.
         11   -1    0    0    0    0 -0.00000000000E+00 -0.00000000000E+00 -0.45593999997E+02  0.45594000000E+02  0.51100000000E-03 0.  1.
    9900012    2    1    2    0    0 -0.83996211824E+01  0.17473758435E+02 -0.38829595550E+02  0.47787270047E+02  0.19999995453E+02 0.  0.
         12    1    1    2    0    0  0.83996211824E+01 -0.17473758435E+02  0.38829595550E+02  0.43400729953E+02  0.00000000000E+00 0. -1.
         11    1    3    3    0    0  0.11527693496E+01 -0.13574448751E+01 -0.10981230227E+02  0.11124700055E+02  0.51100000000E-03 0. -1.
        -11    1    3    3    0    0 -0.85554900374E+01  0.18126664041E+02 -0.18634448712E+02  0.27368139105E+02  0.51100000000E-03 0.  1.
        -12    1    3    3    0    0 -0.99690049461E+00  0.70453926845E+00 -0.92139166121E+01  0.92944308869E+01  0.00000000000E+00 0.  1.
</event>
<event>
 7    1  0.2812635E-010  0.4778727E+02  0.7816164E-02  0.1312668E+00
        -11   -1    0    0    0    0  0.00000000000E+00  0.00000000000E+00  0.45593999997E+02  0.45594000000E+02  0.51100000000E-03 0. -1.
         11   -1    0    0    0    0 -0.00000000000E+00 -0.00000000000E+00 -0.45593999997E+02  0.45594000000E+02  0.51100000000E-03 0.  1.
    9900012    2    1    2    0    0  0.14388725532E+02  0.40072289167E+02  0.84142464282E+01  0.47787270462E+02  0.19999997343E+02 0.  0.
         12    1    1    2    0    0 -0.14388725532E+02 -0.40072289167E+02 -0.84142464282E+01  0.43400729538E+02  0.00000000000E+00 0. -1.
         11    1    3    3    0    0  0.17527832118E+02  0.33656235201E+02  0.11636285768E+02  0.39690933642E+02  0.51100000000E-03 0. -1.
        -11    1    3    3    0    0 -0.14677337659E+01  0.50592686615E+01 -0.21268875052E+01  0.56810291777E+01  0.51100000000E-03 0.  1.
         12    1    3    3    0    0 -0.16713728200E+01  0.13567853046E+01 -0.10951518344E+01  0.24153076422E+01  0.00000000000E+00 0. -1.
</event>
<event>
 7    1  0.2812635E-010  0.4778727E+02  0.7816164E-02  0.1312668E+00
        -11   -1    0    0    0    0  0.00000000000E+00  0.00000000000E+00  0.45593999997E+02  0.45594000000E+02  0.51100000000E-03 0.  1.
         11   -1    0    0    0    0 -0.00000000000E+00 -0.00000000000E+00 -0.45593999997E+02  0.45594000000E+02  0.51100000000E-03 0. -1.
    9900012    2    1    2    0    0  0.30147862508E+02 -0.94957108208E+00  0.31206213936E+02  0.47787273194E+02  0.20000009801E+02 0.  0.
         12    1    1    2    0    0 -0.30147862508E+02  0.94957108208E+00 -0.31206213936E+02  0.43400726806E+02  0.00000000000E+00 0. -1.
         11    1    3    3    0    0  0.97948563729E+01 -0.68046765000E+00 -0.20747037354E+00  0.98206563836E+01  0.51100000000E-03 0. -1.
        -11    1    3    3    0    0  0.81087868480E+01 -0.27453876624E+01  0.15803809738E+02  0.17973591184E+02  0.51100000000E-03 0.  1.
         12    1    3    3    0    0  0.12244219287E+02  0.24762842303E+01  0.15609874572E+02  0.19993025626E+02  0.00000000000E+00 0. -1.
</event>
<event>
 7    1  0.2812635E-010  0.4778726E+02  0.7816164E-02  0.1312668E+00
        -11   -1    0    0    0    0  0.00000000000E+00  0.00000000000E+00  0.45593999997E+02  0.45594000000E+02  0.51100000000E-03 0. -1.
         11   -1    0    0    0    0 -0.00000000000E+00 -0.00000000000E+00 -0.45593999997E+02  0.45594000000E+02  0.51100000000E-03 0.  1.
    9900012    2    1    2    0    0 -0.32070751989E+02 -0.28421438472E+02 -0.68784364786E+01  0.47787260532E+02  0.19999952071E+02 0.  0.
         12    1    1    2    0    0  0.32070751989E+02  0.28421438472E+02  0.68784364786E+01  0.43400739468E+02  0.00000000000E+00 0. -1.
         11    1    3    3    0    0 -0.38808842667E+01 -0.14109697093E+02 -0.68721928927E+01  0.16166998799E+02  0.51100000000E-03 0. -1.
        -11    1    3    3    0    0 -0.20397051201E+02 -0.10277874838E+02 -0.25881751449E+00  0.22841659214E+02  0.51100000000E-03 0.  1.
         12    1    3    3    0    0 -0.77928165215E+01 -0.40338665408E+01  0.25257392852E+00  0.87786025196E+01  0.00000000000E+00 0. -1.
</event>
<event>
 7    1  0.2812635E-010  0.4778727E+02  0.7816164E-02  0.1312668E+00
        -11   -1    0    0    0    0  0.00000000000E+00  0.00000000000E+00  0.45593999997E+02  0.45594000000E+02  0.51100000000E-03 0.  1.
         11   -1    0    0    0    0 -0.00000000000E+00 -0.00000000000E+00 -0.45593999997E+02  0.45594000000E+02  0.51100000000E-03 0. -1.
    9900012    2    1    2    0    0 -0.21389118238E+02  0.27631492783E+01  0.37662897968E+02  0.47787271247E+02  0.20000000922E+02 0.  0.
         12    1    1    2    0    0  0.21389118238E+02 -0.27631492783E+01 -0.37662897968E+02  0.43400728753E+02  0.00000000000E+00 0. -1.
         11    1    3    3    0    0 -0.22453806395E+01  0.62466661761E+01  0.70070233516E+01  0.96519919728E+01  0.51100000000E-03 0. -1.
        -11    1    3    3    0    0 -0.14421543015E+02 -0.76821970383E+01  0.22880144954E+02  0.28115797830E+02  0.51100000000E-03 0.  1.
        -12    1    3    3    0    0 -0.47221945835E+01  0.41986801404E+01  0.77757296630E+01  0.10019481444E+02  0.00000000000E+00 0.  1.
</event>
<event>
 7    1  0.2812635E-010  0.4778727E+02  0.7816164E-02  0.1312668E+00
        -11   -1    0    0    0    0  0.00000000000E+00  0.00000000000E+00  0.45593999997E+02  0.45594000000E+02  0.51100000000E-03 0.  1.
         11   -1    0    0    0    0 -0.00000000000E+00 -0.00000000000E+00 -0.45593999997E+02  0.45594000000E+02  0.51100000000E-03 0. -1.
    9900012    2    1    2    0    0 -0.19652576965E+02  0.37912192984E+02 -0.77501879345E+01  0.47787267619E+02  0.19999984381E+02 0.  0.
         12    1    1    2    0    0  0.19652576965E+02 -0.37912192984E+02  0.77501879345E+01  0.43400732381E+02  0.00000000000E+00 0. -1.
         11    1    3    3    0    0 -0.47955197040E+01  0.42846810623E+01 -0.52296509845E+01  0.82888328924E+01  0.51100000000E-03 0. -1.
        -11    1    3    3    0    0 -0.16170656761E+02  0.34114998246E+02 -0.32959365758E+01  0.37897050592E+02  0.51100000000E-03 0.  1.
        -12    1    3    3    0    0  0.13135995008E+01 -0.48748632441E+00  0.77539962577E+00  0.16013841340E+01  0.00000000000E+00 0.  1.
</event>
<event>
 7    1  0.2812635E-010  0.4778727E+02  0.7816164E-02  0.1312668E+00
        -11   -1    0    0    0    0  0.00000000000E+00  0.00000000000E+00  0.45593999997E+02  0.45594000000E+02  0.51100000000E-03 0. -1.
         11   -1    0    0    0    0 -0.00000000000E+00 -0.00000000000E+00 -0.45593999997E+02  0.45594000000E+02  0.51100000000E-03 0.  1.
    9900012    2    1    2    0    0 -0.12251263717E+02  0.40556843565E+02  0.94165842633E+01  0.47787273257E+02  0.20000010089E+02 0.  0.
         12    1    1    2    0    0  0.12251263717E+02 -0.40556843565E+02 -0.94165842633E+01  0.43400726743E+02  0.00000000000E+00 0. -1.
         11    1    3    3    0    0 -0.59792029113E+01  0.15960643282E+02  0.11731737032E+02  0.20691221701E+02  0.51100000000E-03 0. -1.
        -11    1    3    3    0    0 -0.43306689660E+01  0.24471248251E+02 -0.30037654298E+01  0.25032364884E+02  0.51100000000E-03 0.  1.
         12    1    3    3    0    0 -0.19413918398E+01  0.12495203203E+00  0.68861266127E+00  0.20636866727E+01  0.00000000000E+00 0. -1.
</event>
<event>
 7    1  0.2812635E-010  0.4778727E+02  0.7816164E-02  0.1312668E+00
        -11   -1    0    0    0    0  0.00000000000E+00  0.00000000000E+00  0.45593999997E+02  0.45594000000E+02  0.51100000000E-03 0.  1.
         11   -1    0    0    0    0 -0.00000000000E+00 -0.00000000000E+00 -0.45593999997E+02  0.45594000000E+02  0.51100000000E-03 0. -1.
    9900012    2    1    2    0    0 -0.10834592572E+02  0.38250446496E+02  0.17410865141E+02  0.47787270994E+02  0.19999999768E+02 0.  0.
         12    1    1    2    0    0  0.10834592572E+02 -0.38250446496E+02 -0.17410865141E+02  0.43400729006E+02  0.00000000000E+00 0. -1.
         11    1    3    3    0    0  0.12655405493E+01  0.39597823644E+01 -0.41488689954E-01  0.41573057174E+01  0.51100000000E-03 0. -1.
        -11    1    3    3    0    0  0.60914765211E+00 -0.93206740415E+00  0.34945365236E+01  0.36676417879E+01  0.51100000000E-03 0.  1.
        -12    1    3    3    0    0 -0.12709280774E+02  0.35222731535E+02  0.13957817308E+02  0.39962323488E+02  0.00000000000E+00 0.  1.
</event>
<event>
 7    1  0.2812635E-010  0.4778726E+02  0.7816164E-02  0.1312668E+00
        -11   -1    0    0    0    0  0.00000000000E+00  0.00000000000E+00  0.45593999997E+02  0.45594000000E+02  0.51100000000E-03 0.  1.
         11   -1    0    0    0    0 -0.00000000000E+00 -0.00000000000E+00 -0.45593999997E+02  0.45594000000E+02  0.51100000000E-03 0. -1.
    9900012    2    1    2    0    0 -0.10140879371E+02 -0.29151633118E+02  0.30511780602E+02  0.47787263792E+02  0.19999966935E+02 0.  0.
         12    1    1    2    0    0  0.10140879371E+02  0.29151633118E+02 -0.30511780602E+02  0.43400736208E+02  0.00000000000E+00 0. -1.
         11    1    3    3    0    0 -0.42814958319E+01 -0.69974603836E+00  0.33994331621E+01  0.55115331045E+01  0.51100000000E-03 0. -1.
        -11    1    3    3    0    0  0.14229647347E+01 -0.22893273628E+02  0.22009556824E+02  0.31789108164E+02  0.51100000000E-03 0.  1.
        -12    1    3    3    0    0 -0.72823482734E+01 -0.55586134512E+01  0.51027906168E+01  0.10486622524E+02  0.00000000000E+00 0.  1.
</event>
<event>
 7    1  0.2812635E-010  0.4778726E+02  0.7816164E-02  0.1312668E+00
        -11   -1    0    0    0    0  0.00000000000E+00  0.00000000000E+00  0.45593999997E+02  0.45594000000E+02  0.51100000000E-03 0.  1.
         11   -1    0    0    0    0 -0.00000000000E+00 -0.00000000000E+00 -0.45593999997E+02  0.45594000000E+02  0.51100000000E-03 0. -1.
    9900012    2    1    2    0    0  0.90689017196E+01  0.42065927632E+02  0.56424622225E+01  0.47787255469E+02  0.19999928984E+02 0.  0.
         12    1    1    2    0    0 -0.90689017196E+01 -0.42065927632E+02 -0.56424622225E+01  0.43400744531E+02  0.00000000000E+00 0. -1.
         11    1    3    3    0    0 -0.67723335567E+00 -0.93093246585E+00 -0.18133001186E+01  0.21478682118E+01  0.51100000000E-03 0. -1.
        -11    1    3    3    0    0  0.11203991877E+02  0.32370477948E+02  0.47969861815E+01  0.34588847238E+02  0.51100000000E-03 0.  1.
        -12    1    3    3    0    0 -0.14578568013E+01  0.10626382150E+02  0.26587761596E+01  0.11050540019E+02  0.00000000000E+00 0.  1.
</event>
<event>
 7    1  0.2812635E-010  0.4778727E+02  0.7816164E-02  0.1312668E+00
        -11   -1    0    0    0    0  0.00000000000E+00  0.00000000000E+00  0.45593999997E+02  0.45594000000E+02  0.51100000000E-03 0.  1.
         11   -1    0    0    0    0 -0.00000000000E+00 -0.00000000000E+00 -0.45593999997E+02  0.45594000000E+02  0.51100000000E-03 0. -1.
    9900012    2    1    2    0    0 -0.34132204477E+02 -0.38768739013E+01  0.26525190937E+02  0.47787270882E+02  0.19999999259E+02 0.  0.
         12    1    1    2    0    0  0.34132204477E+02  0.38768739013E+01 -0.26525190937E+02  0.43400729118E+02  0.00000000000E+00 0. -1.
         11    1    3    3    0    0 -0.38220082259E+01  0.24925997241E-01 -0.10464476417E+01  0.39627542331E+01  0.51100000000E-03 0. -1.
        -11    1    3    3    0    0  0.39002734142E+00 -0.31333630798E+01  0.40843592215E+01  0.51625648692E+01  0.51100000000E-03 0.  1.
        -12    1    3    3    0    0 -0.30700223593E+02 -0.76843681873E+00  0.23487279358E+02  0.38661951780E+02  0.00000000000E+00 0.  1.
</event>
<event>
 7    1  0.2812635E-010  0.4778727E+02  0.7816164E-02  0.1312668E+00
        -11   -1    0    0    0    0  0.00000000000E+00  0.00000000000E+00  0.45593999997E+02  0.45594000000E+02  0.51100000000E-03 0.  1.
         11   -1    0    0    0    0 -0.00000000000E+00 -0.00000000000E+00 -0.45593999997E+02  0.45594000000E+02  0.51100000000E-03 0. -1.
    9900012    2    1    2    0    0  0.27923598049E+02 -0.28753882880E+01  0.33100269443E+02  0.47787273934E+02  0.20000013176E+02 0.  0.
         12    1    1    2    0    0 -0.27923598049E+02  0.28753882880E+01 -0.33100269443E+02  0.43400726066E+02  0.00000000000E+00 0. -1.
         11    1    3    3    0    0  0.53185615896E+01  0.62314773394E+01  0.11635693135E+02  0.14230522204E+02  0.51100000000E-03 0. -1.
        -11    1    3    3    0    0  0.11164612786E+02 -0.89389370083E+01  0.12958762750E+02  0.19299811030E+02  0.51100000000E-03 0.  1.
        -12    1    3    3    0    0  0.11440423674E+02 -0.16792861915E+00  0.85058135583E+01  0.14256940701E+02  0.00000000000E+00 0.  1.
</event>
<event>
 7    1  0.2812635E-010  0.4778726E+02  0.7816164E-02  0.1312668E+00
        -11   -1    0    0    0    0  0.00000000000E+00  0.00000000000E+00  0.45593999997E+02  0.45594000000E+02  0.51100000000E-03 0. -1.
         11   -1    0    0    0    0 -0.00000000000E+00 -0.00000000000E+00 -0.45593999997E+02  0.45594000000E+02  0.51100000000E-03 0.  1.
    9900012    2    1    2    0    0 -0.21859687268E+02 -0.37071369849E+02  0.56117746744E+01  0.47787258014E+02  0.19999940590E+02 0.  0.
         12    1    1    2    0    0  0.21859687268E+02  0.37071369849E+02 -0.56117746744E+01  0.43400741986E+02  0.00000000000E+00 0. -1.
         11    1    3    3    0    0 -0.81581275175E+01 -0.52942755754E+01  0.17774486093E+01  0.98865424836E+01  0.51100000000E-03 0. -1.
        -11    1    3    3    0    0 -0.26447133225E+01 -0.24042111581E+02  0.17951620628E+01  0.24253664567E+02  0.51100000000E-03 0.  1.
        -12    1    3    3    0    0 -0.11056846428E+02 -0.77349826928E+01  0.20391640023E+01  0.13647050964E+02  0.00000000000E+00 0.  1.
</event>
<event>
 7    1  0.2812635E-010  0.4778728E+02  0.7816164E-02  0.1312668E+00
        -11   -1    0    0    0    0  0.00000000000E+00  0.00000000000E+00  0.45593999997E+02  0.45594000000E+02  0.51100000000E-03 0.  1.
         11   -1    0    0    0    0 -0.00000000000E+00 -0.00000000000E+00 -0.45593999997E+02  0.45594000000E+02  0.51100000000E-03 0. -1.
    9900012    2    1    2    0    0  0.31885499310E+02 -0.26949041055E+02  0.11861155842E+02  0.47787275375E+02  0.20000019746E+02 0.  0.
         12    1    1    2    0    0 -0.31885499310E+02  0.26949041055E+02 -0.11861155842E+02  0.43400724625E+02  0.00000000000E+00 0. -1.
         11    1    3    3    0    0 -0.22325966597E+00 -0.78346419773E+01 -0.11390597564E+01  0.79201589113E+01  0.51100000000E-03 0. -1.
        -11    1    3    3    0    0  0.17499497844E+02 -0.13170245474E+02  0.80916672369E+01  0.23348723082E+02  0.51100000000E-03 0.  1.
         12    1    3    3    0    0  0.14609261133E+02 -0.59441536042E+01  0.49085483616E+01  0.16518393382E+02  0.00000000000E+00 0. -1.
</event>
<event>
 7    1  0.2812635E-010  0.4778727E+02  0.7816164E-02  0.1312668E+00
        -11   -1    0    0    0    0  0.00000000000E+00  0.00000000000E+00  0.45593999997E+02  0.45594000000E+02  0.51100000000E-03 0. -1.
         11   -1    0    0    0    0 -0.00000000000E+00 -0.00000000000E+00 -0.45593999997E+02  0.45594000000E+02  0.51100000000E-03 0.  1.
    9900012    2    1    2    0    0 -0.33905769898E+02 -0.67421079363E+01 -0.26240543044E+02  0.47787270156E+02  0.19999995947E+02 0.  0.
         12    1    1    2    0    0  0.33905769898E+02  0.67421079363E+01  0.26240543044E+02  0.43400729844E+02  0.00000000000E+00 0. -1.
         11    1    3    3    0    0 -0.30834805347E+00  0.50195641418E+00 -0.74153153792E+01  0.74386787267E+01  0.51100000000E-03 0. -1.
        -11    1    3    3    0    0 -0.34221458668E+02 -0.74471693767E+01 -0.18351151676E+02  0.39539010271E+02  0.51100000000E-03 0.  1.
        -12    1    3    3    0    0  0.62403682355E+00  0.20310502614E+00 -0.47407598885E+00  0.80958115837E+00  0.00000000000E+00 0.  1.
</event>
<event>
 7    1  0.2812635E-010  0.4778725E+02  0.7816164E-02  0.1312668E+00
        -11   -1    0    0    0    0  0.00000000000E+00  0.00000000000E+00  0.45593999997E+02  0.45594000000E+02  0.51100000000E-03 0.  1.
         11   -1    0    0    0    0 -0.00000000000E+00 -0.00000000000E+00 -0.45593999997E+02  0.45594000000E+02  0.51100000000E-03 0. -1.
    9900012    2    1    2    0    0  0.24929687263E+02 -0.30432478925E+02  0.18330300374E+02  0.47787251246E+02  0.19999909732E+02 0.  0.
         12    1    1    2    0    0 -0.24929687263E+02  0.30432478925E+02 -0.18330300374E+02  0.43400748754E+02  0.00000000000E+00 0. -1.
         11    1    3    3    0    0  0.44245878825E+01 -0.10322291177E+02 -0.15110261634E+01  0.11331808037E+02  0.51100000000E-03 0. -1.
        -11    1    3    3    0    0  0.20466306244E+02 -0.17845136999E+02  0.14792007496E+02  0.30921223970E+02  0.51100000000E-03 0.  1.
        -12    1    3    3    0    0  0.38793137236E-01 -0.22650507494E+01  0.50493190409E+01  0.55342192387E+01  0.00000000000E+00 0.  1.
</event>
<event>
 7    1  0.2812635E-010  0.4778727E+02  0.7816164E-02  0.1312668E+00
        -11   -1    0    0    0    0  0.00000000000E+00  0.00000000000E+00  0.45593999997E+02  0.45594000000E+02  0.51100000000E-03 0.  1.
         11   -1    0    0    0    0 -0.00000000000E+00 -0.00000000000E+00 -0.45593999997E+02  0.45594000000E+02  0.51100000000E-03 0. -1.
    9900012    2    1    2    0    0 -0.28770855815E+02 -0.20415704398E+02  0.25279637410E+02  0.47787271919E+02  0.20000003987E+02 0.  0.
         12    1    1    2    0    0  0.28770855815E+02  0.20415704398E+02 -0.25279637410E+02  0.43400728081E+02  0.00000000000E+00 0. -1.
         11    1    3    3    0    0 -0.25998666403E+01 -0.40858232617E+01  0.96230463165E+01  0.10772941982E+02  0.51100000000E-03 0. -1.
        -11    1    3    3    0    0 -0.27506701546E+02 -0.14678824469E+02  0.13462073614E+02  0.33960476203E+02  0.51100000000E-03 0.  1.
         12    1    3    3    0    0  0.13357123711E+01 -0.16510566679E+01  0.21945174796E+01  0.30538537338E+01  0.00000000000E+00 0. -1.
</event>
<event>
 7    1  0.2812635E-010  0.4778727E+02  0.7816164E-02  0.1312668E+00
        -11   -1    0    0    0    0  0.00000000000E+00  0.00000000000E+00  0.45593999997E+02  0.45594000000E+02  0.51100000000E-03 0. -1.
         11   -1    0    0    0    0 -0.00000000000E+00 -0.00000000000E+00 -0.45593999997E+02  0.45594000000E+02  0.51100000000E-03 0.  1.
    9900012    2    1    2    0    0 -0.37616036676E+02  0.94468029467E+01  0.19478574000E+02  0.47787272516E+02  0.20000006709E+02 0.  0.
         12    1    1    2    0    0  0.37616036676E+02 -0.94468029467E+01 -0.19478574000E+02  0.43400727484E+02  0.00000000000E+00 0. -1.
         11    1    3    3    0    0 -0.18788895452E+02  0.98863014966E+01  0.18463441132E+02  0.28136456924E+02  0.51100000000E-03 0. -1.
        -11    1    3    3    0    0 -0.15733309684E+02  0.17542135496E+01  0.90214741008E+00  0.15856486654E+02  0.51100000000E-03 0.  1.
         12    1    3    3    0    0 -0.30938315399E+01 -0.21937120994E+01  0.11298545772E+00  0.37943289376E+01  0.00000000000E+00 0. -1.
</event>
<event>
 7    1  0.2812635E-010  0.4778727E+02  0.7816164E-02  0.1312668E+00
        -11   -1    0    0    0    0  0.00000000000E+00  0.00000000000E+00  0.45593999997E+02  0.45594000000E+02  0.51100000000E-03 0.  1.
         11   -1    0    0    0    0 -0.00000000000E+00 -0.00000000000E+00 -0.45593999997E+02  0.45594000000E+02  0.51100000000E-03 0. -1.
    9900012    2    1    2    0    0 -0.41203827010E+02  0.23400860566E+01  0.13431006573E+02  0.47787270737E+02  0.19999998596E+02 0.  0.
         12    1    1    2    0    0  0.41203827010E+02 -0.23400860566E+01 -0.13431006573E+02  0.43400729263E+02  0.00000000000E+00 0. -1.
         11    1    3    3    0    0 -0.60051389938E+01 -0.44988079941E+01 -0.32532824731E+01  0.81783136901E+01  0.51100000000E-03 0. -1.
        -11    1    3    3    0    0 -0.20129537188E+02  0.39794888150E+01  0.83519318477E+01  0.22153766372E+02  0.51100000000E-03 0.  1.
         12    1    3    3    0    0 -0.15069150828E+02  0.28594052357E+01  0.83323571984E+01  0.17455190674E+02  0.00000000000E+00 0. -1.
</event>
<event>
 7    1  0.2812635E-010  0.4778727E+02  0.7816164E-02  0.1312668E+00
        -11   -1    0    0    0    0  0.00000000000E+00  0.00000000000E+00  0.45593999997E+02  0.45594000000E+02  0.51100000000E-03 0. -1.
         11   -1    0    0    0    0 -0.00000000000E+00 -0.00000000000E+00 -0.45593999997E+02  0.45594000000E+02  0.51100000000E-03 0.  1.
    9900012    2    1    2    0    0  0.24349116674E+02 -0.34562070745E+02  0.98085189180E+01  0.47787271200E+02  0.20000000710E+02 0.  0.
         12    1    1    2    0    0 -0.24349116674E+02  0.34562070745E+02 -0.98085189180E+01  0.43400728800E+02  0.00000000000E+00 0. -1.
         11    1    3    3    0    0 -0.40189993256E-01 -0.73872049671E+00  0.10951843084E+01  0.13216475091E+01  0.51100000000E-03 0. -1.
        -11    1    3    3    0    0  0.13358368323E+02 -0.41592751073E+01  0.24836042562E+01  0.14209639828E+02  0.51100000000E-03 0.  1.
        -12    1    3    3    0    0  0.11030938345E+02 -0.29664075141E+02  0.62297303534E+01  0.32255983863E+02  0.00000000000E+00 0.  1.
</event>
<event>
 7    1  0.2812635E-010  0.4778726E+02  0.7816164E-02  0.1312668E+00
        -11   -1    0    0    0    0  0.00000000000E+00  0.00000000000E+00  0.45593999997E+02  0.45594000000E+02  0.51100000000E-03 0. -1.
         11   -1    0    0    0    0 -0.00000000000E+00 -0.00000000000E+00 -0.45593999997E+02  0.45594000000E+02  0.51100000000E-03 0.  1.
    9900012    2    1    2    0    0 -0.40046358675E+02  0.97550327363E+01 -0.13592365557E+02  0.47787263736E+02  0.19999966677E+02 0.  0.
         12    1    1    2    0    0  0.40046358675E+02 -0.97550327363E+01  0.13592365557E+02  0.43400736264E+02  0.00000000000E+00 0. -1.
         11    1    3    3    0    0 -0.83130275373E+01 -0.13048064174E+01 -0.26960387072E+01  0.88361514017E+01  0.51100000000E-03 0.  1.
        -11    1    3    3    0    0 -0.11069454771E+02  0.42621957877E+01  0.40769215357E+01  0.12542744171E+02  0.51100000000E-03 0. -1.
        -12    1    3    3    0    0 -0.20663876367E+02  0.67976433661E+01 -0.14973248386E+02  0.26408368163E+02  0.00000000000E+00 0.  1.
</event>
<event>
 7    1  0.2812635E-010  0.4778727E+02  0.7816164E-02  0.1312668E+00
        -11   -1    0    0    0    0  0.00000000000E+00  0.00000000000E+00  0.45593999997E+02  0.45594000000E+02  0.51100000000E-03 0. -1.
         11   -1    0    0    0    0 -0.00000000000E+00 -0.00000000000E+00 -0.45593999997E+02  0.45594000000E+02  0.51100000000E-03 0.  1.
    9900012    2    1    2    0    0  0.32700144914E+02 -0.28255518368E+02 -0.39936564573E+01  0.47787273191E+02  0.20000009788E+02 0.  0.
         12    1    1    2    0    0 -0.32700144914E+02  0.28255518368E+02  0.39936564573E+01  0.43400726809E+02  0.00000000000E+00 0. -1.
         11    1    3    3    0    0  0.10941622796E+02 -0.17915523363E+02 -0.20890038063E+01  0.21096185057E+02  0.51100000000E-03 0. -1.
        -11    1    3    3    0    0  0.69265809855E+01 -0.81781690560E+01 -0.42324553211E+01  0.11522744967E+02  0.51100000000E-03 0.  1.
         12    1    3    3    0    0  0.14831941132E+02 -0.21618259487E+01  0.23278026701E+01  0.15168343168E+02  0.00000000000E+00 0. -1.
</event>
<event>
 7    1  0.2812635E-010  0.4778727E+02  0.7816164E-02  0.1312668E+00
        -11   -1    0    0    0    0  0.00000000000E+00  0.00000000000E+00  0.45593999997E+02  0.45594000000E+02  0.51100000000E-03 0.  1.
         11   -1    0    0    0    0 -0.00000000000E+00 -0.00000000000E+00 -0.45593999997E+02  0.45594000000E+02  0.51100000000E-03 0. -1.
    9900012    2    1    2    0    0  0.13606785381E+02 -0.41200148993E+02  0.10132544402E+01  0.47787267633E+02  0.19999984445E+02 0.  0.
         12    1    1    2    0    0 -0.13606785381E+02  0.41200148993E+02 -0.10132544402E+01  0.43400732367E+02  0.00000000000E+00 0. -1.
         11    1    3    3    0    0  0.85576058782E+01 -0.11447055249E+02 -0.42357069895E+01  0.14906673211E+02  0.51100000000E-03 0. -1.
        -11    1    3    3    0    0  0.13408678677E+01 -0.28349643872E+02  0.54932964107E+01  0.28908070500E+02  0.51100000000E-03 0.  1.
        -12    1    3    3    0    0  0.37083116356E+01 -0.14034498712E+01 -0.24433498103E+00  0.39725239219E+01  0.00000000000E+00 0.  1.
</event>
<event>
 7    1  0.2812635E-010  0.4778730E+02  0.7816164E-02  0.1312668E+00
        -11   -1    0    0    0    0  0.00000000000E+00  0.00000000000E+00  0.45593999997E+02  0.45594000000E+02  0.51100000000E-03 0. -1.
         11   -1    0    0    0    0 -0.00000000000E+00 -0.00000000000E+00 -0.45593999997E+02  0.45594000000E+02  0.51100000000E-03 0.  1.
    9900012    2    1    2    0    0 -0.16253623642E+02  0.39680792418E+02 -0.66989055735E+01  0.47787298343E+02  0.20000124465E+02 0.  0.
         12    1    1    2    0    0  0.16253623642E+02 -0.39680792418E+02  0.66989055735E+01  0.43400701657E+02  0.00000000000E+00 0. -1.
         11    1    3    3    0    0 -0.55645140002E+00  0.38240762902E+01  0.12094210959E+01  0.40491847676E+01  0.51100000000E-03 0. -1.
        -11    1    3    3    0    0 -0.10792230838E+02  0.79201447092E+01  0.23203922262E+01  0.13586212092E+02  0.51100000000E-03 0.  1.
        -12    1    3    3    0    0 -0.49049414049E+01  0.27936571419E+02 -0.10228718896E+02  0.30151901483E+02  0.00000000000E+00 0.  1.
</event>
<event>
 7    1  0.2812635E-010  0.4778727E+02  0.7816164E-02  0.1312668E+00
        -11   -1    0    0    0    0  0.00000000000E+00  0.00000000000E+00  0.45593999997E+02  0.45594000000E+02  0.51100000000E-03 0.  1.
         11   -1    0    0    0    0 -0.00000000000E+00 -0.00000000000E+00 -0.45593999997E+02  0.45594000000E+02  0.51100000000E-03 0. -1.
    9900012    2    1    2    0    0  0.56012848484E+01  0.20439580197E+02  0.37874436517E+02  0.47787265305E+02  0.19999973832E+02 0.  0.
         12    1    1    2    0    0 -0.56012848484E+01 -0.20439580197E+02 -0.37874436517E+02  0.43400734695E+02  0.00000000000E+00 0. -1.
         11    1    3    3    0    0 -0.31817302785E+00 -0.29179460206E+01  0.51574720332E+01  0.59342363526E+01  0.51100000000E-03 0. -1.
        -11    1    3    3    0    0  0.80536749467E+01  0.13415761032E+02  0.22772866040E+02  0.27630558303E+02  0.51100000000E-03 0.  1.
        -12    1    3    3    0    0 -0.21342170705E+01  0.99417651858E+01  0.99440984440E+01  0.14222470650E+02  0.00000000000E+00 0.  1.
</event>
<event>
 7    1  0.2812635E-010  0.4778727E+02  0.7816164E-02  0.1312668E+00
        -11   -1    0    0    0    0  0.00000000000E+00  0.00000000000E+00  0.45593999997E+02  0.45594000000E+02  0.51100000000E-03 0.  1.
         11   -1    0    0    0    0 -0.00000000000E+00 -0.00000000000E+00 -0.45593999997E+02  0.45594000000E+02  0.51100000000E-03 0. -1.
    9900012    2    1    2    0    0 -0.10393634067E+02 -0.16906765664E+02  0.38597368686E+02  0.47787271621E+02  0.20000002628E+02 0.  0.
         12    1    1    2    0    0  0.10393634067E+02  0.16906765664E+02 -0.38597368686E+02  0.43400728379E+02  0.00000000000E+00 0. -1.
         11    1    3    3    0    0 -0.11580237725E+02 -0.21539490837E+01  0.12508839227E+02  0.17181747917E+02  0.51100000000E-03 0. -1.
        -11    1    3    3    0    0  0.32681438084E+01 -0.81643296197E+01  0.11627589971E+02  0.14578679326E+02  0.51100000000E-03 0.  1.
         12    1    3    3    0    0 -0.20815401507E+01 -0.65884869608E+01  0.14460939488E+02  0.16026844377E+02  0.00000000000E+00 0. -1.
</event>
<event>
 7    1  0.2812635E-010  0.4778728E+02  0.7816164E-02  0.1312668E+00
        -11   -1    0    0    0    0  0.00000000000E+00  0.00000000000E+00  0.45593999997E+02  0.45594000000E+02  0.51100000000E-03 0. -1.
         11   -1    0    0    0    0 -0.00000000000E+00 -0.00000000000E+00 -0.45593999997E+02  0.45594000000E+02  0.51100000000E-03 0.  1.
    9900012    2    1    2    0    0 -0.14332108561E+02 -0.39216161226E+02 -0.11845068129E+02  0.47787282539E+02  0.20000052410E+02 0.  0.
         12    1    1    2    0    0  0.14332108561E+02  0.39216161226E+02  0.11845068129E+02  0.43400717461E+02  0.00000000000E+00 0. -1.
         11    1    3    3    0    0  0.15661200935E+01 -0.28557013355E+01  0.34571696564E+01  0.47497141555E+01  0.51100000000E-03 0. -1.
        -11    1    3    3    0    0 -0.68889875790E+01 -0.23724695649E+02 -0.91903355664E+01  0.26358710166E+02  0.51100000000E-03 0.  1.
         12    1    3    3    0    0 -0.90092410759E+01 -0.12635764241E+02 -0.61119022193E+01  0.16678858218E+02  0.00000000000E+00 0. -1.
</event>
<event>
 7    1  0.2812635E-010  0.4778727E+02  0.7816164E-02  0.1312668E+00
        -11   -1    0    0    0    0  0.00000000000E+00  0.00000000000E+00  0.45593999997E+02  0.45594000000E+02  0.51100000000E-03 0. -1.
         11   -1    0    0    0    0 -0.00000000000E+00 -0.00000000000E+00 -0.45593999997E+02  0.45594000000E+02  0.51100000000E-03 0.  1.
    9900012    2    1    2    0    0 -0.12466164111E+02  0.90253343447E+01 -0.40580309548E+02  0.47787269238E+02  0.19999991765E+02 0.  0.
         12    1    1    2    0    0  0.12466164111E+02 -0.90253343447E+01  0.40580309548E+02  0.43400730762E+02  0.00000000000E+00 0. -1.
         11    1    3    3    0    0 -0.19524332330E+01  0.15546522768E+01  0.10915898035E+01  0.27240609008E+01  0.51100000000E-03 0. -1.
        -11    1    3    3    0    0 -0.56231176123E+00  0.67209949983E+01 -0.21907750111E+02  0.22922423159E+02  0.51100000000E-03 0.  1.
         12    1    3    3    0    0 -0.99514191169E+01  0.74968706965E+00 -0.19764149240E+02  0.22140785179E+02  0.00000000000E+00 0. -1.
</event>
<event>
 7    1  0.2812635E-010  0.4778727E+02  0.7816164E-02  0.1312668E+00
        -11   -1    0    0    0    0  0.00000000000E+00  0.00000000000E+00  0.45593999997E+02  0.45594000000E+02  0.51100000000E-03 0.  1.
         11   -1    0    0    0    0 -0.00000000000E+00 -0.00000000000E+00 -0.45593999997E+02  0.45594000000E+02  0.51100000000E-03 0. -1.
    9900012    2    1    2    0    0 -0.99491551440E+01 -0.38215682236E+02  0.18005538297E+02  0.47787268828E+02  0.19999989895E+02 0.  0.
         12    1    1    2    0    0  0.99491551440E+01  0.38215682236E+02 -0.18005538297E+02  0.43400731172E+02  0.00000000000E+00 0. -1.
         11    1    3    3    0    0 -0.53148391024E-01 -0.14406445875E+02  0.46959770671E+01  0.15152580915E+02  0.51100000000E-03 0. -1.
        -11    1    3    3    0    0 -0.20432136095E+01 -0.11976838241E+01 -0.28865245448E+01  0.37337906483E+01  0.51100000000E-03 0.  1.
        -12    1    3    3    0    0 -0.78527931434E+01 -0.22611552537E+02  0.16196085775E+02  0.28900897265E+02  0.00000000000E+00 0.  1.
</event>
<event>
 7    1  0.2812635E-010  0.4778727E+02  0.7816164E-02  0.1312668E+00
        -11   -1    0    0    0    0  0.00000000000E+00  0.00000000000E+00  0.45593999997E+02  0.45594000000E+02  0.51100000000E-03 0.  1.
         11   -1    0    0    0    0 -0.00000000000E+00 -0.00000000000E+00 -0.45593999997E+02  0.45594000000E+02  0.51100000000E-03 0. -1.
    9900012    2    1    2    0    0 -0.37658610064E+02 -0.14848794679E+02  0.15651368336E+02  0.47787274820E+02  0.20000017216E+02 0.  0.
         12    1    1    2    0    0  0.37658610064E+02  0.14848794679E+02 -0.15651368336E+02  0.43400725180E+02  0.00000000000E+00 0. -1.
         11    1    3    3    0    0 -0.19476611772E+02 -0.11151512667E+02  0.42374451292E+01  0.22839671240E+02  0.51100000000E-03 0. -1.
        -11    1    3    3    0    0 -0.53386082142E+01  0.97761277061E+00  0.97767042560E+01  0.11182146966E+02  0.51100000000E-03 0.  1.
        -12    1    3    3    0    0 -0.12843390078E+02 -0.46748947823E+01  0.16372189505E+01  0.13765456615E+02  0.00000000000E+00 0.  1.
</event>
<event>
 7    1  0.2812635E-010  0.4778727E+02  0.7816164E-02  0.1312668E+00
        -11   -1    0    0    0    0  0.00000000000E+00  0.00000000000E+00  0.45593999997E+02  0.45594000000E+02  0.51100000000E-03 0.  1.
         11   -1    0    0    0    0 -0.00000000000E+00 -0.00000000000E+00 -0.45593999997E+02  0.45594000000E+02  0.51100000000E-03 0. -1.
    9900012    2    1    2    0    0 -0.98571633194E+01 -0.12612960243E+02  0.40340710581E+02  0.47787269995E+02  0.19999995215E+02 0.  0.
         12    1    1    2    0    0  0.98571633194E+01  0.12612960243E+02 -0.40340710581E+02  0.43400730005E+02  0.00000000000E+00 0. -1.
         11    1    3    3    0    0  0.60331583110E+00 -0.10370838418E+01  0.24229851368E+02  0.24259538958E+02  0.51100000000E-03 0. -1.
        -11    1    3    3    0    0 -0.64419942468E+01 -0.86201220445E+01  0.61679448183E+01  0.12403601795E+02  0.51100000000E-03 0.  1.
         12    1    3    3    0    0 -0.40184849037E+01 -0.29557543565E+01  0.99429143947E+01  0.11124129242E+02  0.00000000000E+00 0. -1.
</event>
<event>
 7    1  0.2812635E-010  0.4778727E+02  0.7816164E-02  0.1312668E+00
        -11   -1    0    0    0    0  0.00000000000E+00  0.00000000000E+00  0.45593999997E+02  0.45594000000E+02  0.51100000000E-03 0.  1.
         11   -1    0    0    0    0 -0.00000000000E+00 -0.00000000000E+00 -0.45593999997E+02  0.45594000000E+02  0.51100000000E-03 0. -1.
    9900012    2    1    2    0    0 -0.26876315172E+02  0.25988651508E+02  0.22042620252E+02  0.47787269223E+02  0.19999991695E+02 0.  0.
         12    1    1    2    0    0  0.26876315172E+02 -0.25988651508E+02 -0.22042620252E+02  0.43400730777E+02  0.00000000000E+00 0. -1.
         11    1    3    3    0    0 -0.11480608255E+01  0.87391399780E+01  0.76768342033E+01  0.11688643842E+02  0.51100000000E-03 0. -1.
        -11    1    3    3    0    0 -0.17857182851E+02  0.17023208538E+02  0.78859097978E+01  0.25900891527E+02  0.51100000000E-03 0.  1.
        -12    1    3    3    0    0 -0.78710714953E+01  0.22630299171E+00  0.64798762507E+01  0.10197733854E+02  0.00000000000E+00 0.  1.
</event>
<event>
 7    1  0.2812635E-010  0.4778728E+02  0.7816164E-02  0.1312668E+00
        -11   -1    0    0    0    0  0.00000000000E+00  0.00000000000E+00  0.45593999997E+02  0.45594000000E+02  0.51100000000E-03 0.  1.
         11   -1    0    0    0    0 -0.00000000000E+00 -0.00000000000E+00 -0.45593999997E+02  0.45594000000E+02  0.51100000000E-03 0. -1.
    9900012    2    1    2    0    0  0.15556430590E+01  0.42640946944E+02  0.79342486778E+01  0.47787277844E+02  0.20000031001E+02 0.  0.
         12    1    1    2    0    0 -0.15556430590E+01 -0.42640946944E+02 -0.79342486778E+01  0.43400722156E+02  0.00000000000E+00 0. -1.
         11    1    3    3    0    0 -0.13498308511E+01  0.21659671250E+02  0.19748573396E+01  0.21791362136E+02  0.51100000000E-03 0. -1.
        -11    1    3    3    0    0 -0.10615159240E+01  0.20562322032E+02  0.72097271068E+01  0.21815500650E+02  0.51100000000E-03 0.  1.
         12    1    3    3    0    0  0.39669898341E+01  0.41895366173E+00 -0.12503357686E+01  0.41804150570E+01  0.00000000000E+00 0. -1.
</event>
<event>
 7    1  0.2812635E-010  0.4778728E+02  0.7816164E-02  0.1312668E+00
        -11   -1    0    0    0    0  0.00000000000E+00  0.00000000000E+00  0.45593999997E+02  0.45594000000E+02  0.51100000000E-03 0.  1.
         11   -1    0    0    0    0 -0.00000000000E+00 -0.00000000000E+00 -0.45593999997E+02  0.45594000000E+02  0.51100000000E-03 0. -1.
    9900012    2    1    2    0    0  0.25164812804E+02  0.10846563190E+02  0.33655713323E+02  0.47787276783E+02  0.20000026162E+02 0.  0.
         12    1    1    2    0    0 -0.25164812804E+02 -0.10846563190E+02 -0.33655713323E+02  0.43400723217E+02  0.00000000000E+00 0. -1.
         11    1    3    3    0    0 -0.40909528443E+00  0.32858209133E+01  0.63498677734E+01  0.71613405887E+01  0.51100000000E-03 0. -1.
        -11    1    3    3    0    0  0.27303296758E+02  0.66414969781E+01  0.25900455978E+02  0.38215351838E+02  0.51100000000E-03 0.  1.
        -12    1    3    3    0    0 -0.17293886693E+01  0.91924529910E+00  0.14053895718E+01  0.24105843561E+01  0.00000000000E+00 0.  1.
</event>
<event>
 7    1  0.2812635E-010  0.4778727E+02  0.7816164E-02  0.1312668E+00
        -11   -1    0    0    0    0  0.00000000000E+00  0.00000000000E+00  0.45593999997E+02  0.45594000000E+02  0.51100000000E-03 0.  1.
         11   -1    0    0    0    0 -0.00000000000E+00 -0.00000000000E+00 -0.45593999997E+02  0.45594000000E+02  0.51100000000E-03 0. -1.
    9900012    2    1    2    0    0 -0.30231688491E+02  0.26579636273E+02  0.16223173023E+02  0.47787269633E+02  0.19999993566E+02 0.  0.
         12    1    1    2    0    0  0.30231688491E+02 -0.26579636273E+02 -0.16223173023E+02  0.43400730367E+02  0.00000000000E+00 0. -1.
         11    1    3    3    0    0 -0.15831250039E+02  0.17125902440E+02  0.37228600654E+01  0.23617465984E+02  0.51100000000E-03 0. -1.
        -11    1    3    3    0    0 -0.53720662582E+01  0.68367914232E+00  0.99486427495E+01  0.11327047535E+02  0.51100000000E-03 0.  1.
        -12    1    3    3    0    0 -0.90283721931E+01  0.87700546913E+01  0.25516702082E+01  0.12842756114E+02  0.00000000000E+00 0.  1.
</event>
<event>
 7    1  0.2812635E-010  0.4778727E+02  0.7816164E-02  0.1312668E+00
        -11   -1    0    0    0    0  0.00000000000E+00  0.00000000000E+00  0.45593999997E+02  0.45594000000E+02  0.51100000000E-03 0.  1.
         11   -1    0    0    0    0 -0.00000000000E+00 -0.00000000000E+00 -0.45593999997E+02  0.45594000000E+02  0.51100000000E-03 0. -1.
    9900012    2    1    2    0    0  0.62317109524E+01 -0.26654771092E+02  0.33679555266E+02  0.47787268597E+02  0.19999988842E+02 0.  0.
         12    1    1    2    0    0 -0.62317109524E+01  0.26654771092E+02 -0.33679555266E+02  0.43400731403E+02  0.00000000000E+00 0. -1.
         11    1    3    3    0    0 -0.81696150390E+00  0.19672835593E+01  0.18125998956E+01  0.27969893357E+01  0.51100000000E-03 0. -1.
        -11    1    3    3    0    0  0.95948450877E+01 -0.20111154990E+02  0.26451585488E+02  0.34586210871E+02  0.51100000000E-03 0.  1.
        -12    1    3    3    0    0 -0.25461726314E+01 -0.85108996611E+01  0.54153698828E+01  0.10404068391E+02  0.00000000000E+00 0.  1.
</event>
<event>
 7    1  0.2812635E-010  0.4778727E+02  0.7816164E-02  0.1312668E+00
        -11   -1    0    0    0    0  0.00000000000E+00  0.00000000000E+00  0.45593999997E+02  0.45594000000E+02  0.51100000000E-03 0.  1.
         11   -1    0    0    0    0 -0.00000000000E+00 -0.00000000000E+00 -0.45593999997E+02  0.45594000000E+02  0.51100000000E-03 0. -1.
    9900012    2    1    2    0    0  0.31382125463E+02  0.20476060501E+02  0.21897862116E+02  0.47787271694E+02  0.20000002962E+02 0.  0.
         12    1    1    2    0    0 -0.31382125463E+02 -0.20476060501E+02 -0.21897862116E+02  0.43400728306E+02  0.00000000000E+00 0. -1.
         11    1    3    3    0    0  0.86810581041E+01 -0.13398908529E+01  0.63650460992E+01  0.10847575278E+02  0.51100000000E-03 0.  1.
        -11    1    3    3    0    0  0.15788683827E+02  0.21188865936E+02  0.13681618675E+02  0.29756297929E+02  0.51100000000E-03 0. -1.
         12    1    3    3    0    0  0.69123835327E+01  0.62708541747E+00  0.18511973422E+01  0.71833984870E+01  0.00000000000E+00 0. -1.
</event>
<event>
 7    1  0.2812635E-010  0.4778727E+02  0.7816164E-02  0.1312668E+00
        -11   -1    0    0    0    0  0.00000000000E+00  0.00000000000E+00  0.45593999997E+02  0.45594000000E+02  0.51100000000E-03 0.  1.
         11   -1    0    0    0    0 -0.00000000000E+00 -0.00000000000E+00 -0.45593999997E+02  0.45594000000E+02  0.51100000000E-03 0. -1.
    9900012    2    1    2    0    0  0.45862507834E+01  0.23857943176E+02  0.35963707009E+02  0.47787269929E+02  0.19999994916E+02 0.  0.
         12    1    1    2    0    0 -0.45862507834E+01 -0.23857943176E+02 -0.35963707009E+02  0.43400730071E+02  0.00000000000E+00 0. -1.
         11    1    3    3    0    0  0.29958618291E+01  0.48866022360E+01  0.24913150927E+02  0.25564020788E+02  0.51100000000E-03 0. -1.
        -11    1    3    3    0    0  0.84977497926E+00  0.13448290228E+02  0.93348402073E+01  0.16392616312E+02  0.51100000000E-03 0.  1.
         12    1    3    3    0    0  0.74061397507E+00  0.55230507122E+01  0.17157158749E+01  0.58306328295E+01  0.00000000000E+00 0. -1.
</event>
<event>
 7    1  0.2812635E-010  0.4778727E+02  0.7816164E-02  0.1312668E+00
        -11   -1    0    0    0    0  0.00000000000E+00  0.00000000000E+00  0.45593999997E+02  0.45594000000E+02  0.51100000000E-03 0.  1.
         11   -1    0    0    0    0 -0.00000000000E+00 -0.00000000000E+00 -0.45593999997E+02  0.45594000000E+02  0.51100000000E-03 0. -1.
    9900012    2    1    2    0    0  0.38041849284E+02 -0.11755424243E+02  0.17269948121E+02  0.47787269543E+02  0.19999993156E+02 0.  0.
         12    1    1    2    0    0 -0.38041849284E+02  0.11755424243E+02 -0.17269948121E+02  0.43400730457E+02  0.00000000000E+00 0. -1.
         11    1    3    3    0    0  0.33833321719E+01 -0.44905714534E+01 -0.12756884164E+01  0.57653750754E+01  0.51100000000E-03 0. -1.
        -11    1    3    3    0    0  0.14356503546E+02 -0.78674838230E+01  0.34885178682E+01  0.16738466266E+02  0.51100000000E-03 0.  1.
        -12    1    3    3    0    0  0.20302013566E+02  0.60263103382E+00  0.15057118669E+02  0.25283428202E+02  0.00000000000E+00 0.  1.
</event>
<event>
 7    1  0.2812635E-010  0.4778727E+02  0.7816164E-02  0.1312668E+00
        -11   -1    0    0    0    0  0.00000000000E+00  0.00000000000E+00  0.45593999997E+02  0.45594000000E+02  0.51100000000E-03 0.  1.
         11   -1    0    0    0    0 -0.00000000000E+00 -0.00000000000E+00 -0.45593999997E+02  0.45594000000E+02  0.51100000000E-03 0. -1.
    9900012    2    1    2    0    0 -0.26555429108E+02 -0.17226748302E+02  0.29692959945E+02  0.47787267950E+02  0.19999985893E+02 0.  0.
         12    1    1    2    0    0  0.26555429108E+02  0.17226748302E+02 -0.29692959945E+02  0.43400732050E+02  0.00000000000E+00 0. -1.
         11    1    3    3    0    0 -0.21209369910E+01  0.87287361324E-01  0.41835082292E+01  0.46912401525E+01  0.51100000000E-03 0. -1.
        -11    1    3    3    0    0 -0.61329078360E+01 -0.28910961997E+01  0.16977726295E+02  0.18281525816E+02  0.51100000000E-03 0.  1.
        -12    1    3    3    0    0 -0.18301584281E+02 -0.14422939464E+02  0.85317254211E+01  0.24814501982E+02  0.00000000000E+00 0.  1.
</event>
<event>
 7    1  0.2812635E-010  0.4778726E+02  0.7816164E-02  0.1312668E+00
        -11   -1    0    0    0    0  0.00000000000E+00  0.00000000000E+00  0.45593999997E+02  0.45594000000E+02  0.51100000000E-03 0.  1.
         11   -1    0    0    0    0 -0.00000000000E+00 -0.00000000000E+00 -0.45593999997E+02  0.45594000000E+02  0.51100000000E-03 0. -1.
    9900012    2    1    2    0    0 -0.61914875310E+01 -0.42635798237E+01  0.42744726349E+02  0.47787259668E+02  0.19999948129E+02 0.  0.
         12    1    1    2    0    0  0.61914875310E+01  0.42635798237E+01 -0.42744726349E+02  0.43400740332E+02  0.00000000000E+00 0. -1.
         11    1    3    3    0    0 -0.39334786874E+01 -0.28247031685E+01  0.48363346929E+01  0.68440730634E+01  0.51100000000E-03 0. -1.
        -11    1    3    3    0    0  0.50478972687E+01 -0.44233073950E+01  0.10856676759E+02  0.12763790411E+02  0.51100000000E-03 0.  1.
        -12    1    3    3    0    0 -0.73059061123E+01  0.29844307397E+01  0.27051714897E+02  0.28179396193E+02  0.00000000000E+00 0.  1.
</event>
<event>
 7    1  0.2812635E-010  0.4778727E+02  0.7816164E-02  0.1312668E+00
        -11   -1    0    0    0    0  0.00000000000E+00  0.00000000000E+00  0.45593999997E+02  0.45594000000E+02  0.51100000000E-03 0.  1.
         11   -1    0    0    0    0 -0.00000000000E+00 -0.00000000000E+00 -0.45593999997E+02  0.45594000000E+02  0.51100000000E-03 0. -1.
    9900012    2    1    2    0    0  0.36029777563E+02  0.20360244477E+02  0.13074350873E+02  0.47787273310E+02  0.20000010332E+02 0.  0.
         12    1    1    2    0    0 -0.36029777563E+02 -0.20360244477E+02 -0.13074350873E+02  0.43400726690E+02  0.00000000000E+00 0. -1.
         11    1    3    3    0    0  0.22273156291E+02  0.19054741830E+02  0.10168985087E+01  0.29329349808E+02  0.51100000000E-03 0. -1.
        -11    1    3    3    0    0  0.10058045323E+02  0.18784460289E+01  0.89149961606E+01  0.13570924508E+02  0.51100000000E-03 0.  1.
         12    1    3    3    0    0  0.36985759490E+01 -0.57294338121E+00  0.31424562041E+01  0.48869989936E+01  0.00000000000E+00 0. -1.
</event>
<event>
 7    1  0.2812635E-010  0.4778727E+02  0.7816164E-02  0.1312668E+00
        -11   -1    0    0    0    0  0.00000000000E+00  0.00000000000E+00  0.45593999997E+02  0.45594000000E+02  0.51100000000E-03 0. -1.
         11   -1    0    0    0    0 -0.00000000000E+00 -0.00000000000E+00 -0.45593999997E+02  0.45594000000E+02  0.51100000000E-03 0.  1.
    9900012    2    1    2    0    0  0.40193019752E+02  0.16325429046E+02 -0.12748293854E+01  0.47787266593E+02  0.19999979705E+02 0.  0.
         12    1    1    2    0    0 -0.40193019752E+02 -0.16325429046E+02  0.12748293854E+01  0.43400733407E+02  0.00000000000E+00 0. -1.
         11    1    3    3    0    0  0.56813498794E+01 -0.78577050110E+00 -0.45039067880E+01  0.72924857455E+01  0.51100000000E-03 0. -1.
        -11    1    3    3    0    0  0.12647466331E+02  0.37884379103E+01 -0.41666014641E+01  0.13844538071E+02  0.51100000000E-03 0.  1.
         12    1    3    3    0    0  0.21864203541E+02  0.13322761637E+02  0.73956788668E+01  0.26650242776E+02  0.00000000000E+00 0. -1.
</event>
<event>
 7    1  0.2812635E-010  0.4778727E+02  0.7816164E-02  0.1312668E+00
        -11   -1    0    0    0    0  0.00000000000E+00  0.00000000000E+00  0.45593999997E+02  0.45594000000E+02  0.51100000000E-03 0. -1.
         11   -1    0    0    0    0 -0.00000000000E+00 -0.00000000000E+00 -0.45593999997E+02  0.45594000000E+02  0.51100000000E-03 0.  1.
    9900012    2    1    2    0    0  0.11848697370E+02  0.68600733847E+01 -0.41184595577E+02  0.47787272482E+02  0.20000006556E+02 0.  0.
         12    1    1    2    0    0 -0.11848697370E+02 -0.68600733847E+01  0.41184595577E+02  0.43400727518E+02  0.00000000000E+00 0. -1.
         11    1    3    3    0    0  0.81977339993E+01  0.10999297233E+01 -0.19500024830E+02  0.21181682104E+02  0.51100000000E-03 0. -1.
        -11    1    3    3    0    0 -0.43483978671E+01  0.59853088415E+01 -0.98352024307E+01  0.12307058668E+02  0.51100000000E-03 0.  1.
        -12    1    3    3    0    0  0.79993612381E+01 -0.22516518018E+00 -0.11849368316E+02  0.14298531710E+02  0.00000000000E+00 0.  1.
</event>
<event>
 7    1  0.2812635E-010  0.4778727E+02  0.7816164E-02  0.1312668E+00
        -11   -1    0    0    0    0  0.00000000000E+00  0.00000000000E+00  0.45593999997E+02  0.45594000000E+02  0.51100000000E-03 0. -1.
         11   -1    0    0    0    0 -0.00000000000E+00 -0.00000000000E+00 -0.45593999997E+02  0.45594000000E+02  0.51100000000E-03 0.  1.
    9900012    2    1    2    0    0 -0.26533429443E+02  0.32592886820E+02  0.10830699384E+02  0.47787271914E+02  0.20000003966E+02 0.  0.
         12    1    1    2    0    0  0.26533429443E+02 -0.32592886820E+02 -0.10830699384E+02  0.43400728086E+02  0.00000000000E+00 0. -1.
         11    1    3    3    0    0 -0.27433999292E+01  0.17390041472E-01  0.52177736875E+01  0.58950579387E+01  0.51100000000E-03 0. -1.
        -11    1    3    3    0    0 -0.17173483817E+02  0.24625648086E+02 -0.20891700866E+00  0.30023236612E+02  0.51100000000E-03 0.  1.
        -12    1    3    3    0    0 -0.66165456963E+01  0.79498486919E+01  0.58218427047E+01  0.11868977363E+02  0.00000000000E+00 0.  1.
</event>
<event>
 7    1  0.2812635E-010  0.4778727E+02  0.7816164E-02  0.1312668E+00
        -11   -1    0    0    0    0  0.00000000000E+00  0.00000000000E+00  0.45593999997E+02  0.45594000000E+02  0.51100000000E-03 0. -1.
         11   -1    0    0    0    0 -0.00000000000E+00 -0.00000000000E+00 -0.45593999997E+02  0.45594000000E+02  0.51100000000E-03 0.  1.
    9900012    2    1    2    0    0 -0.80370829403E+01 -0.27533726651E+02 -0.32571803197E+02  0.47787272253E+02  0.20000005509E+02 0.  0.
         12    1    1    2    0    0  0.80370829403E+01  0.27533726651E+02  0.32571803197E+02  0.43400727747E+02  0.00000000000E+00 0. -1.
         11    1    3    3    0    0 -0.58223359556E+01 -0.12223537806E+02 -0.27462788933E+02  0.30618936113E+02  0.51100000000E-03 0.  1.
        -11    1    3    3    0    0 -0.17036038552E+01 -0.14266384737E+02 -0.61305252405E+01  0.15620990351E+02  0.51100000000E-03 0. -1.
         12    1    3    3    0    0 -0.51114312952E+00 -0.10438041079E+01  0.10215109763E+01  0.15473457885E+01  0.00000000000E+00 0. -1.
</event>
<event>
 7    1  0.2812635E-010  0.4778726E+02  0.7816164E-02  0.1312668E+00
        -11   -1    0    0    0    0  0.00000000000E+00  0.00000000000E+00  0.45593999997E+02  0.45594000000E+02  0.51100000000E-03 0. -1.
         11   -1    0    0    0    0 -0.00000000000E+00 -0.00000000000E+00 -0.45593999997E+02  0.45594000000E+02  0.51100000000E-03 0.  1.
    9900012    2    1    2    0    0 -0.37012214585E+02  0.18915070252E+02  0.12487604619E+02  0.47787260603E+02  0.19999952392E+02 0.  0.
         12    1    1    2    0    0  0.37012214585E+02 -0.18915070252E+02 -0.12487604619E+02  0.43400739397E+02  0.00000000000E+00 0. -1.
         11    1    3    3    0    0 -0.93476619163E+01  0.10716841754E+02  0.62471942347E+01  0.15532447217E+02  0.51100000000E-03 0. -1.
        -11    1    3    3    0    0 -0.26777423132E+02  0.10783209850E+02  0.52066785773E+01  0.29332874158E+02  0.51100000000E-03 0.  1.
        -12    1    3    3    0    0 -0.88712953613E+00 -0.25849813519E+01  0.10337318072E+01  0.29219392281E+01  0.00000000000E+00 0.  1.
</event>
<event>
 7    1  0.2812635E-010  0.4778727E+02  0.7816164E-02  0.1312668E+00
        -11   -1    0    0    0    0  0.00000000000E+00  0.00000000000E+00  0.45593999997E+02  0.45594000000E+02  0.51100000000E-03 0.  1.
         11   -1    0    0    0    0 -0.00000000000E+00 -0.00000000000E+00 -0.45593999997E+02  0.45594000000E+02  0.51100000000E-03 0. -1.
    9900012    2    1    2    0    0 -0.11226498277E+02  0.32924168647E+02  0.25953580032E+02  0.47787268887E+02  0.19999990165E+02 0.  0.
         12    1    1    2    0    0  0.11226498277E+02 -0.32924168647E+02 -0.25953580032E+02  0.43400731113E+02  0.00000000000E+00 0. -1.
         11    1    3    3    0    0  0.17880268364E+01  0.10891847252E+02  0.15107727162E+02  0.18710232409E+02  0.51100000000E-03 0. -1.
        -11    1    3    3    0    0  0.50035975756E+00  0.37748425251E+01  0.35837628606E+01  0.52290680316E+01  0.51100000000E-03 0.  1.
         12    1    3    3    0    0 -0.13514884871E+02  0.18257478869E+02  0.72620900090E+01  0.23847968447E+02  0.00000000000E+00 0. -1.
</event>
<event>
 7    1  0.2812635E-010  0.4778727E+02  0.7816164E-02  0.1312668E+00
        -11   -1    0    0    0    0  0.00000000000E+00  0.00000000000E+00  0.45593999997E+02  0.45594000000E+02  0.51100000000E-03 0. -1.
         11   -1    0    0    0    0 -0.00000000000E+00 -0.00000000000E+00 -0.45593999997E+02  0.45594000000E+02  0.51100000000E-03 0.  1.
    9900012    2    1    2    0    0  0.19391884430E+02  0.11397958489E+01 -0.38810809899E+02  0.47787270959E+02  0.19999999608E+02 0.  0.
         12    1    1    2    0    0 -0.19391884430E+02 -0.11397958489E+01  0.38810809899E+02  0.43400729041E+02  0.00000000000E+00 0. -1.
         11    1    3    3    0    0  0.35169699210E+00 -0.48082677593E+01 -0.26206919832E+01  0.54873633333E+01  0.51100000000E-03 0. -1.
        -11    1    3    3    0    0  0.19658122608E+02  0.42808063626E+01 -0.33400676455E+02  0.38991951419E+02  0.51100000000E-03 0.  1.
        -12    1    3    3    0    0 -0.61793516994E+00  0.16672572456E+01 -0.27894414607E+01  0.33079562059E+01  0.00000000000E+00 0.  1.
</event>
<event>
 7    1  0.2812635E-010  0.4778727E+02  0.7816164E-02  0.1312668E+00
        -11   -1    0    0    0    0  0.00000000000E+00  0.00000000000E+00  0.45593999997E+02  0.45594000000E+02  0.51100000000E-03 0. -1.
         11   -1    0    0    0    0 -0.00000000000E+00 -0.00000000000E+00 -0.45593999997E+02  0.45594000000E+02  0.51100000000E-03 0.  1.
    9900012    2    1    2    0    0 -0.11502502549E+01  0.26332888458E+02 -0.34480127495E+02  0.47787270948E+02  0.19999999562E+02 0.  0.
         12    1    1    2    0    0  0.11502502549E+01 -0.26332888458E+02  0.34480127495E+02  0.43400729052E+02  0.00000000000E+00 0. -1.
         11    1    3    3    0    0  0.81932573855E+00  0.66403590343E+00  0.60677028333E+00  0.12167205040E+01  0.51100000000E-03 0. -1.
        -11    1    3    3    0    0  0.12923980735E+01  0.16370496405E+02 -0.90914508169E+01  0.18770133818E+02  0.51100000000E-03 0.  1.
        -12    1    3    3    0    0 -0.32619740670E+01  0.92983561487E+01 -0.25995446961E+02  0.27800416626E+02  0.00000000000E+00 0.  1.
</event>
<event>
 7    1  0.2812635E-010  0.4778727E+02  0.7816164E-02  0.1312668E+00
        -11   -1    0    0    0    0  0.00000000000E+00  0.00000000000E+00  0.45593999997E+02  0.45594000000E+02  0.51100000000E-03 0. -1.
         11   -1    0    0    0    0 -0.00000000000E+00 -0.00000000000E+00 -0.45593999997E+02  0.45594000000E+02  0.51100000000E-03 0.  1.
    9900012    2    1    2    0    0 -0.33141276699E+02  0.23550206945E+02  0.15187711472E+02  0.47787273644E+02  0.20000011854E+02 0.  0.
         12    1    1    2    0    0  0.33141276699E+02 -0.23550206945E+02 -0.15187711472E+02  0.43400726356E+02  0.00000000000E+00 0. -1.
         11    1    3    3    0    0 -0.19131107219E+00  0.13940486088E+01 -0.84099152009E+00  0.16392798565E+01  0.51100000000E-03 0. -1.
        -11    1    3    3    0    0 -0.22178663315E+02  0.16489325964E+02  0.21971946096E+01  0.27723972327E+02  0.51100000000E-03 0.  1.
        -12    1    3    3    0    0 -0.10771302312E+02  0.56668323728E+01  0.13831508383E+02  0.18424021460E+02  0.00000000000E+00 0.  1.
</event>
<event>
 7    1  0.2812635E-010  0.4778727E+02  0.7816164E-02  0.1312668E+00
        -11   -1    0    0    0    0  0.00000000000E+00  0.00000000000E+00  0.45593999997E+02  0.45594000000E+02  0.51100000000E-03 0.  1.
         11   -1    0    0    0    0 -0.00000000000E+00 -0.00000000000E+00 -0.45593999997E+02  0.45594000000E+02  0.51100000000E-03 0. -1.
    9900012    2    1    2    0    0 -0.60093485701E+01  0.39530647625E+02  0.16877172160E+02  0.47787270605E+02  0.19999997996E+02 0.  0.
         12    1    1    2    0    0  0.60093485701E+01 -0.39530647625E+02 -0.16877172160E+02  0.43400729395E+02  0.00000000000E+00 0. -1.
         11    1    3    3    0    0  0.50337123659E+01  0.21671044448E+02  0.12245689006E+02  0.25395458790E+02  0.51100000000E-03 0.  1.
        -11    1    3    3    0    0 -0.10788193281E+02  0.15978250291E+02  0.58362557872E+01  0.20143273778E+02  0.51100000000E-03 0. -1.
        -12    1    3    3    0    0 -0.25486765508E+00  0.18813528868E+01 -0.12047726336E+01  0.22485380373E+01  0.00000000000E+00 0.  1.
</event>
<event>
 7    1  0.2812635E-010  0.4778728E+02  0.7816164E-02  0.1312668E+00
        -11   -1    0    0    0    0  0.00000000000E+00  0.00000000000E+00  0.45593999997E+02  0.45594000000E+02  0.51100000000E-03 0. -1.
         11   -1    0    0    0    0 -0.00000000000E+00 -0.00000000000E+00 -0.45593999997E+02  0.45594000000E+02  0.51100000000E-03 0.  1.
    9900012    2    1    2    0    0 -0.17117771721E+02  0.29011779914E+02  0.27366426456E+02  0.47787276741E+02  0.20000025971E+02 0.  0.
         12    1    1    2    0    0  0.17117771721E+02 -0.29011779914E+02 -0.27366426456E+02  0.43400723259E+02  0.00000000000E+00 0. -1.
         11    1    3    3    0    0 -0.16196922014E+02  0.16031317460E+02  0.15761254017E+02  0.27708492393E+02  0.51100000000E-03 0. -1.
        -11    1    3    3    0    0 -0.30012807376E+01  0.62074972767E+01  0.50938906798E+00  0.69137678577E+01  0.51100000000E-03 0.  1.
         12    1    3    3    0    0  0.20804310306E+01  0.67729651772E+01  0.11095783371E+02  0.13165016490E+02  0.00000000000E+00 0. -1.
</event>
<event>
 7    1  0.2812635E-010  0.4778727E+02  0.7816164E-02  0.1312668E+00
        -11   -1    0    0    0    0  0.00000000000E+00  0.00000000000E+00  0.45593999997E+02  0.45594000000E+02  0.51100000000E-03 0.  1.
         11   -1    0    0    0    0 -0.00000000000E+00 -0.00000000000E+00 -0.45593999997E+02  0.45594000000E+02  0.51100000000E-03 0. -1.
    9900012    2    1    2    0    0  0.40806008970E+02  0.92858907697E+01  0.11500649124E+02  0.47787273442E+02  0.20000010932E+02 0.  0.
         12    1    1    2    0    0 -0.40806008970E+02 -0.92858907697E+01 -0.11500649124E+02  0.43400726558E+02  0.00000000000E+00 0. -1.
         11    1    3    3    0    0  0.11825317074E+02  0.87809640047E+01  0.41570983285E+01  0.15304408499E+02  0.51100000000E-03 0. -1.
        -11    1    3    3    0    0  0.20863992268E+02 -0.33704450836E+01  0.95955993830E+01  0.23210807853E+02  0.51100000000E-03 0.  1.
        -12    1    3    3    0    0  0.81166996287E+01  0.38753718487E+01 -0.22520485872E+01  0.92720570893E+01  0.00000000000E+00 0.  1.
</event>
<event>
 7    1  0.2812635E-010  0.4778728E+02  0.7816164E-02  0.1312668E+00
        -11   -1    0    0    0    0  0.00000000000E+00  0.00000000000E+00  0.45593999997E+02  0.45594000000E+02  0.51100000000E-03 0.  1.
         11   -1    0    0    0    0 -0.00000000000E+00 -0.00000000000E+00 -0.45593999997E+02  0.45594000000E+02  0.51100000000E-03 0. -1.
    9900012    2    1    2    0    0 -0.23472261630E+01  0.42381797299E+02 -0.90496719043E+01  0.47787276797E+02  0.20000026228E+02 0.  0.
         12    1    1    2    0    0  0.23472261630E+01 -0.42381797299E+02  0.90496719043E+01  0.43400723203E+02  0.00000000000E+00 0. -1.
         11    1    3    3    0    0 -0.69360506485E+01  0.12022230632E+02 -0.17532937514E+01  0.13989884460E+02  0.51100000000E-03 0. -1.
        -11    1    3    3    0    0  0.55017879404E+01  0.84619062663E+01  0.14559770774E+01  0.10197715318E+02  0.51100000000E-03 0.  1.
        -12    1    3    3    0    0 -0.91296345496E+00  0.21897660401E+02 -0.87523552303E+01  0.23599677019E+02  0.00000000000E+00 0.  1.
</event>
<event>
 7    1  0.2812635E-010  0.4778724E+02  0.7816164E-02  0.1312668E+00
        -11   -1    0    0    0    0  0.00000000000E+00  0.00000000000E+00  0.45593999997E+02  0.45594000000E+02  0.51100000000E-03 0.  1.
         11   -1    0    0    0    0 -0.00000000000E+00 -0.00000000000E+00 -0.45593999997E+02  0.45594000000E+02  0.51100000000E-03 0. -1.
    9900012    2    1    2    0    0  0.95595358670E+01  0.11293391466E+02  0.40800742540E+02  0.47787239538E+02  0.19999856351E+02 0.  0.
         12    1    1    2    0    0 -0.95595358670E+01 -0.11293391466E+02 -0.40800742540E+02  0.43400760462E+02  0.00000000000E+00 0. -1.
         11    1    3    3    0    0 -0.79713082489E+00  0.13438637985E+00 -0.17333793987E+01  0.19126112130E+01  0.51100000000E-03 0. -1.
        -11    1    3    3    0    0  0.32947739520E+01  0.92055586637E+01  0.26482215802E+02  0.28229516463E+02  0.51100000000E-03 0.  1.
         12    1    3    3    0    0  0.70618927399E+01  0.19534464224E+01  0.16051906137E+02  0.17645111862E+02  0.00000000000E+00 0. -1.
</event>
<event>
 7    1  0.2812635E-010  0.4778727E+02  0.7816164E-02  0.1312668E+00
        -11   -1    0    0    0    0  0.00000000000E+00  0.00000000000E+00  0.45593999997E+02  0.45594000000E+02  0.51100000000E-03 0.  1.
         11   -1    0    0    0    0 -0.00000000000E+00 -0.00000000000E+00 -0.45593999997E+02  0.45594000000E+02  0.51100000000E-03 0. -1.
    9900012    2    1    2    0    0  0.29642102929E+01  0.28522295745E+02  0.32577830920E+02  0.47787274606E+02  0.20000016241E+02 0.  0.
         12    1    1    2    0    0 -0.29642102929E+01 -0.28522295745E+02 -0.32577830920E+02  0.43400725394E+02  0.00000000000E+00 0. -1.
         11    1    3    3    0    0  0.67180465523E+01  0.19869432441E+02  0.24656072361E+02  0.32370486551E+02  0.51100000000E-03 0.  1.
        -11    1    3    3    0    0 -0.19655848565E+00  0.72061152673E+00 -0.20534160041E+01  0.21850477701E+01  0.51100000000E-03 0. -1.
        -12    1    3    3    0    0 -0.35572777738E+01  0.79322517773E+01  0.99751745630E+01  0.13231740285E+02  0.00000000000E+00 0.  1.
</event>
<event>
 7    1  0.2812635E-010  0.4778727E+02  0.7816164E-02  0.1312668E+00
        -11   -1    0    0    0    0  0.00000000000E+00  0.00000000000E+00  0.45593999997E+02  0.45594000000E+02  0.51100000000E-03 0.  1.
         11   -1    0    0    0    0 -0.00000000000E+00 -0.00000000000E+00 -0.45593999997E+02  0.45594000000E+02  0.51100000000E-03 0. -1.
    9900012    2    1    2    0    0 -0.24428684301E+02  0.18914186322E+02  0.30481415907E+02  0.47787265253E+02  0.19999973594E+02 0.  0.
         12    1    1    2    0    0  0.24428684301E+02 -0.18914186322E+02 -0.30481415907E+02  0.43400734747E+02  0.00000000000E+00 0. -1.
         11    1    3    3    0    0 -0.12168542739E+02  0.39703770077E+01  0.29686390128E+01  0.13139640171E+02  0.51100000000E-03 0. -1.
        -11    1    3    3    0    0 -0.43833638292E+01  0.19670929875E+01  0.12079366379E+02  0.12999785600E+02  0.51100000000E-03 0.  1.
         12    1    3    3    0    0 -0.78767777330E+01  0.12976716327E+02  0.15433410515E+02  0.21647839482E+02  0.00000000000E+00 0. -1.
</event>
<event>
 7    1  0.2812635E-010  0.4778728E+02  0.7816164E-02  0.1312668E+00
        -11   -1    0    0    0    0  0.00000000000E+00  0.00000000000E+00  0.45593999997E+02  0.45594000000E+02  0.51100000000E-03 0.  1.
         11   -1    0    0    0    0 -0.00000000000E+00 -0.00000000000E+00 -0.45593999997E+02  0.45594000000E+02  0.51100000000E-03 0. -1.
    9900012    2    1    2    0    0 -0.39813760427E+02 -0.99278167925E+01  0.14139513653E+02  0.47787275214E+02  0.20000019012E+02 0.  0.
         12    1    1    2    0    0  0.39813760427E+02  0.99278167925E+01 -0.14139513653E+02  0.43400724786E+02  0.00000000000E+00 0. -1.
         11    1    3    3    0    0 -0.49902304868E+01 -0.75623510823E+01 -0.52262529561E+00  0.90754995269E+01  0.51100000000E-03 0. -1.
        -11    1    3    3    0    0 -0.19276240825E+02 -0.15404726714E+01  0.12418314340E+02  0.22981754670E+02  0.51100000000E-03 0.  1.
        -12    1    3    3    0    0 -0.15547289115E+02 -0.82499303879E+00  0.22438246088E+01  0.15730021017E+02  0.00000000000E+00 0.  1.
</event>
<event>
 7    1  0.2812635E-010  0.4778728E+02  0.7816164E-02  0.1312668E+00
        -11   -1    0    0    0    0  0.00000000000E+00  0.00000000000E+00  0.45593999997E+02  0.45594000000E+02  0.51100000000E-03 0.  1.
         11   -1    0    0    0    0 -0.00000000000E+00 -0.00000000000E+00 -0.45593999997E+02  0.45594000000E+02  0.51100000000E-03 0. -1.
    9900012    2    1    2    0    0 -0.23540373705E+02 -0.33595500630E+02 -0.14170955646E+02  0.47787276035E+02  0.20000022755E+02 0.  0.
         12    1    1    2    0    0  0.23540373705E+02  0.33595500630E+02  0.14170955646E+02  0.43400723965E+02  0.00000000000E+00 0. -1.
         11    1    3    3    0    0 -0.18712793256E+02 -0.16049422604E+02 -0.14297115834E+02  0.28498423093E+02  0.51100000000E-03 0. -1.
        -11    1    3    3    0    0 -0.16593886924E+01 -0.12752091568E+02 -0.22781743596E+01  0.13059842605E+02  0.51100000000E-03 0.  1.
         12    1    3    3    0    0 -0.31681917570E+01 -0.47939864575E+01  0.24043345475E+01  0.62290103371E+01  0.00000000000E+00 0. -1.
</event>
<event>
 7    1  0.2812635E-010  0.4778727E+02  0.7816164E-02  0.1312668E+00
        -11   -1    0    0    0    0  0.00000000000E+00  0.00000000000E+00  0.45593999997E+02  0.45594000000E+02  0.51100000000E-03 0. -1.
         11   -1    0    0    0    0 -0.00000000000E+00 -0.00000000000E+00 -0.45593999997E+02  0.45594000000E+02  0.51100000000E-03 0.  1.
    9900012    2    1    2    0    0 -0.33934065014E+02 -0.26369771670E+02  0.60611457406E+01  0.47787272886E+02  0.20000008399E+02 0.  0.
         12    1    1    2    0    0  0.33934065014E+02  0.26369771670E+02 -0.60611457406E+01  0.43400727114E+02  0.00000000000E+00 0. -1.
         11    1    3    3    0    0 -0.16232236135E+02 -0.42390094778E+01  0.21584197459E+01  0.16914888925E+02  0.51100000000E-03 0. -1.
        -11    1    3    3    0    0 -0.18662154944E+02 -0.17959542068E+02  0.14537650785E+01  0.25940983243E+02  0.51100000000E-03 0.  1.
         12    1    3    3    0    0  0.96032606497E+00 -0.41712201241E+01  0.24489609162E+01  0.49314007182E+01  0.00000000000E+00 0. -1.
</event>
<event>
 7    1  0.2812635E-010  0.4778727E+02  0.7816164E-02  0.1312668E+00
        -11   -1    0    0    0    0  0.00000000000E+00  0.00000000000E+00  0.45593999997E+02  0.45594000000E+02  0.51100000000E-03 0.  1.
         11   -1    0    0    0    0 -0.00000000000E+00 -0.00000000000E+00 -0.45593999997E+02  0.45594000000E+02  0.51100000000E-03 0. -1.
    9900012    2    1    2    0    0 -0.25990192185E+02 -0.31633997240E+02  0.14402203933E+02  0.47787270175E+02  0.19999996035E+02 0.  0.
         12    1    1    2    0    0  0.25990192185E+02  0.31633997240E+02 -0.14402203933E+02  0.43400729825E+02  0.00000000000E+00 0. -1.
         11    1    3    3    0    0 -0.29646042478E+01  0.22517730448E+01 -0.32514569672E+00  0.37369881156E+01  0.51100000000E-03 0. -1.
        -11    1    3    3    0    0 -0.16215687181E+02 -0.28572220639E+02  0.11037777068E+02  0.34657651765E+02  0.51100000000E-03 0.  1.
        -12    1    3    3    0    0 -0.68099007567E+01 -0.53135496464E+01  0.36895725613E+01  0.93926302944E+01  0.00000000000E+00 0.  1.
</event>
<event>
 7    1  0.2812635E-010  0.4778726E+02  0.7816164E-02  0.1312668E+00
        -11   -1    0    0    0    0  0.00000000000E+00  0.00000000000E+00  0.45593999997E+02  0.45594000000E+02  0.51100000000E-03 0.  1.
         11   -1    0    0    0    0 -0.00000000000E+00 -0.00000000000E+00 -0.45593999997E+02  0.45594000000E+02  0.51100000000E-03 0. -1.
    9900012    2    1    2    0    0  0.27777121570E+02  0.11910166687E+02  0.31148094823E+02  0.47787258482E+02  0.19999942721E+02 0.  0.
         12    1    1    2    0    0 -0.27777121570E+02 -0.11910166687E+02 -0.31148094823E+02  0.43400741518E+02  0.00000000000E+00 0. -1.
         11    1    3    3    0    0  0.15568537850E+02  0.20685387033E+01  0.95090522275E+01  0.18359746667E+02  0.51100000000E-03 0. -1.
        -11    1    3    3    0    0  0.64409158437E+01  0.36628367048E+01  0.19275899071E+02  0.20650957723E+02  0.51100000000E-03 0.  1.
        -12    1    3    3    0    0  0.57676678766E+01  0.61787912787E+01  0.23631435247E+01  0.87765540914E+01  0.00000000000E+00 0.  1.
</event>
<event>
 7    1  0.2812635E-010  0.4778727E+02  0.7816164E-02  0.1312668E+00
        -11   -1    0    0    0    0  0.00000000000E+00  0.00000000000E+00  0.45593999997E+02  0.45594000000E+02  0.51100000000E-03 0.  1.
         11   -1    0    0    0    0 -0.00000000000E+00 -0.00000000000E+00 -0.45593999997E+02  0.45594000000E+02  0.51100000000E-03 0. -1.
    9900012    2    1    2    0    0  0.23906500074E+02  0.25951965032E+02  0.25270492409E+02  0.47787273953E+02  0.20000013260E+02 0.  0.
         12    1    1    2    0    0 -0.23906500074E+02 -0.25951965032E+02 -0.25270492409E+02  0.43400726047E+02  0.00000000000E+00 0. -1.
         11    1    3    3    0    0  0.92052298526E+01  0.44230336340E+01  0.12744819986E+02  0.16331868231E+02  0.51100000000E-03 0. -1.
        -11    1    3    3    0    0  0.15509543172E+02  0.18198168751E+02  0.69320529005E+01  0.24895233138E+02  0.51100000000E-03 0.  1.
        -12    1    3    3    0    0 -0.80827295024E+00  0.33307626467E+01  0.55936195225E+01  0.65601725841E+01  0.00000000000E+00 0.  1.
</event>
<event>
 7    1  0.2812635E-010  0.4778727E+02  0.7816164E-02  0.1312668E+00
        -11   -1    0    0    0    0  0.00000000000E+00  0.00000000000E+00  0.45593999997E+02  0.45594000000E+02  0.51100000000E-03 0.  1.
         11   -1    0    0    0    0 -0.00000000000E+00 -0.00000000000E+00 -0.45593999997E+02  0.45594000000E+02  0.51100000000E-03 0. -1.
    9900012    2    1    2    0    0 -0.37831220582E+02  0.93178833752E+01  0.19120647347E+02  0.47787270095E+02  0.19999995670E+02 0.  0.
         12    1    1    2    0    0  0.37831220582E+02 -0.93178833752E+01 -0.19120647347E+02  0.43400729905E+02  0.00000000000E+00 0. -1.
         11    1    3    3    0    0 -0.86446011483E+01  0.63828777208E+01  0.81547392343E+01  0.13489626728E+02  0.51100000000E-03 0.  1.
        -11    1    3    3    0    0 -0.11884781603E+02  0.35335574499E+01 -0.21423957254E+01  0.12582683406E+02  0.51100000000E-03 0. -1.
        -12    1    3    3    0    0 -0.17301837831E+02 -0.59855179544E+00  0.13108303838E+02  0.21714959961E+02  0.00000000000E+00 0.  1.
</event>
<event>
 7    1  0.2812635E-010  0.4778726E+02  0.7816164E-02  0.1312668E+00
        -11   -1    0    0    0    0  0.00000000000E+00  0.00000000000E+00  0.45593999997E+02  0.45594000000E+02  0.51100000000E-03 0.  1.
         11   -1    0    0    0    0 -0.00000000000E+00 -0.00000000000E+00 -0.45593999997E+02  0.45594000000E+02  0.51100000000E-03 0. -1.
    9900012    2    1    2    0    0  0.18357361328E+02 -0.21837746588E+02  0.32706943011E+02  0.47787262540E+02  0.19999961223E+02 0.  0.
         12    1    1    2    0    0 -0.18357361328E+02  0.21837746588E+02 -0.32706943011E+02  0.43400737460E+02  0.00000000000E+00 0. -1.
         11    1    3    3    0    0 -0.23591588268E+00 -0.46920452872E+01 -0.13758048484E+01  0.48952818635E+01  0.51100000000E-03 0. -1.
        -11    1    3    3    0    0  0.15919532193E+02 -0.15488490696E+02  0.25865683296E+02  0.34093377977E+02  0.51100000000E-03 0.  1.
         12    1    3    3    0    0  0.26737450178E+01 -0.16572106053E+01  0.82170645634E+01  0.87986026987E+01  0.00000000000E+00 0. -1.
</event>
<event>
 7    1  0.2812635E-010  0.4778727E+02  0.7816164E-02  0.1312668E+00
        -11   -1    0    0    0    0  0.00000000000E+00  0.00000000000E+00  0.45593999997E+02  0.45594000000E+02  0.51100000000E-03 0.  1.
         11   -1    0    0    0    0 -0.00000000000E+00 -0.00000000000E+00 -0.45593999997E+02  0.45594000000E+02  0.51100000000E-03 0. -1.
    9900012    2    1    2    0    0  0.40346495477E+02  0.29652012955E+01 -0.15715953367E+02  0.47787270672E+02  0.19999998302E+02 0.  0.
         12    1    1    2    0    0 -0.40346495477E+02 -0.29652012955E+01  0.15715953367E+02  0.43400729328E+02  0.00000000000E+00 0. -1.
         11    1    3    3    0    0  0.19606256544E+02  0.22219027752E+01 -0.14482240581E+02  0.24476058509E+02  0.51100000000E-03 0. -1.
        -11    1    3    3    0    0  0.18037476916E+02 -0.32712413734E+01 -0.61985676862E-01  0.18331814861E+02  0.51100000000E-03 0.  1.
        -12    1    3    3    0    0  0.27027620162E+01  0.40145398937E+01 -0.11717271092E+01  0.49793973022E+01  0.00000000000E+00 0.  1.
</event>
<event>
 7    1  0.2812635E-010  0.4778727E+02  0.7816164E-02  0.1312668E+00
        -11   -1    0    0    0    0  0.00000000000E+00  0.00000000000E+00  0.45593999997E+02  0.45594000000E+02  0.51100000000E-03 0.  1.
         11   -1    0    0    0    0 -0.00000000000E+00 -0.00000000000E+00 -0.45593999997E+02  0.45594000000E+02  0.51100000000E-03 0. -1.
    9900012    2    1    2    0    0 -0.11648423038E+02 -0.15866199145E+02  0.38680762623E+02  0.47787269226E+02  0.19999991709E+02 0.  0.
         12    1    1    2    0    0  0.11648423038E+02  0.15866199145E+02 -0.38680762623E+02  0.43400730774E+02  0.00000000000E+00 0. -1.
         11    1    3    3    0    0 -0.86726745143E+01  0.63127522761E+00  0.12968639022E+02  0.15614076661E+02  0.51100000000E-03 0. -1.
        -11    1    3    3    0    0  0.12958192550E+01 -0.33591618672E+01  0.12679604084E+02  0.13180875387E+02  0.51100000000E-03 0.  1.
         12    1    3    3    0    0 -0.42715677788E+01 -0.13138312506E+02  0.13032519518E+02  0.18992317177E+02  0.00000000000E+00 0. -1.
</event>
<event>
 7    1  0.2812635E-010  0.4778727E+02  0.7816164E-02  0.1312668E+00
        -11   -1    0    0    0    0  0.00000000000E+00  0.00000000000E+00  0.45593999997E+02  0.45594000000E+02  0.51100000000E-03 0. -1.
         11   -1    0    0    0    0 -0.00000000000E+00 -0.00000000000E+00 -0.45593999997E+02  0.45594000000E+02  0.51100000000E-03 0.  1.
    9900012    2    1    2    0    0  0.37040542790E+02 -0.18985034375E+02 -0.12295926508E+02  0.47787272482E+02  0.20000006553E+02 0.  0.
         12    1    1    2    0    0 -0.37040542790E+02  0.18985034375E+02  0.12295926508E+02  0.43400727518E+02  0.00000000000E+00 0. -1.
         11    1    3    3    0    0  0.94778893027E+01 -0.55496894724E+01 -0.18542216821E+01  0.11138562617E+02  0.51100000000E-03 0. -1.
        -11    1    3    3    0    0  0.27634357321E+02 -0.11083449253E+02 -0.13581162943E+02  0.32725350098E+02  0.51100000000E-03 0.  1.
        -12    1    3    3    0    0 -0.71703833664E-01 -0.23518956500E+01  0.31394581168E+01  0.39233597662E+01  0.00000000000E+00 0.  1.
</event>
<event>
 7    1  0.2812635E-010  0.4778729E+02  0.7816164E-02  0.1312668E+00
        -11   -1    0    0    0    0  0.00000000000E+00  0.00000000000E+00  0.45593999997E+02  0.45594000000E+02  0.51100000000E-03 0.  1.
         11   -1    0    0    0    0 -0.00000000000E+00 -0.00000000000E+00 -0.45593999997E+02  0.45594000000E+02  0.51100000000E-03 0. -1.
    9900012    2    1    2    0    0  0.15983671929E+01  0.41135338088E+02  0.13745946432E+02  0.47787287326E+02  0.20000074236E+02 0.  0.
         12    1    1    2    0    0 -0.15983671929E+01 -0.41135338088E+02 -0.13745946432E+02  0.43400712674E+02  0.00000000000E+00 0. -1.
         11    1    3    3    0    0 -0.15914671615E+01 -0.12466762301E+01  0.81634310198E+00  0.21802260594E+01  0.51100000000E-03 0. -1.
        -11    1    3    3    0    0  0.48503459476E+01  0.37213588097E+02  0.82149893590E+01  0.38416962989E+02  0.51100000000E-03 0.  1.
        -12    1    3    3    0    0 -0.16605115932E+01  0.51684262208E+01  0.47146139714E+01  0.71900982783E+01  0.00000000000E+00 0.  1.
</event>
<event>
 7    1  0.2812635E-010  0.4778728E+02  0.7816164E-02  0.1312668E+00
        -11   -1    0    0    0    0  0.00000000000E+00  0.00000000000E+00  0.45593999997E+02  0.45594000000E+02  0.51100000000E-03 0.  1.
         11   -1    0    0    0    0 -0.00000000000E+00 -0.00000000000E+00 -0.45593999997E+02  0.45594000000E+02  0.51100000000E-03 0. -1.
    9900012    2    1    2    0    0  0.40742207418E+02 -0.14614303062E+02  0.31808189171E+01  0.47787275026E+02  0.20000018152E+02 0.  0.
         12    1    1    2    0    0 -0.40742207418E+02  0.14614303062E+02 -0.31808189171E+01  0.43400724974E+02  0.00000000000E+00 0. -1.
         11    1    3    3    0    0 -0.19918328015E+01  0.12167777880E-01  0.69717015866E+00  0.21103536327E+01  0.51100000000E-03 0. -1.
        -11    1    3    3    0    0  0.36075986693E+02 -0.12100003820E+02  0.43936830206E+01  0.38303933990E+02  0.51100000000E-03 0.  1.
         12    1    3    3    0    0  0.66580535263E+01 -0.25264670204E+01 -0.19100342621E+01  0.73729874031E+01  0.00000000000E+00 0. -1.
</event>
<event>
 7    1  0.2812635E-010  0.4778727E+02  0.7816164E-02  0.1312668E+00
        -11   -1    0    0    0    0  0.00000000000E+00  0.00000000000E+00  0.45593999997E+02  0.45594000000E+02  0.51100000000E-03 0.  1.
         11   -1    0    0    0    0 -0.00000000000E+00 -0.00000000000E+00 -0.45593999997E+02  0.45594000000E+02  0.51100000000E-03 0. -1.
    9900012    2    1    2    0    0 -0.12990378417E+02  0.33633272561E+02  0.24159399040E+02  0.47787268249E+02  0.19999987253E+02 0.  0.
         12    1    1    2    0    0  0.12990378417E+02 -0.33633272561E+02 -0.24159399040E+02  0.43400731751E+02  0.00000000000E+00 0. -1.
         11    1    3    3    0    0  0.70803503297E+00  0.58668393070E+01  0.12952009686E+02  0.14236420626E+02  0.51100000000E-03 0. -1.
        -11    1    3    3    0    0 -0.12773000421E+02  0.27882666867E+02  0.11081546723E+02  0.32609712195E+02  0.51100000000E-03 0.  1.
        -12    1    3    3    0    0 -0.92541302886E+00 -0.11623361259E+00  0.12584262965E+00  0.94113542815E+00  0.00000000000E+00 0.  1.
</event>
<event>
 7    1  0.2812635E-010  0.4778727E+02  0.7816164E-02  0.1312668E+00
        -11   -1    0    0    0    0  0.00000000000E+00  0.00000000000E+00  0.45593999997E+02  0.45594000000E+02  0.51100000000E-03 0. -1.
         11   -1    0    0    0    0 -0.00000000000E+00 -0.00000000000E+00 -0.45593999997E+02  0.45594000000E+02  0.51100000000E-03 0.  1.
    9900012    2    1    2    0    0  0.18676819694E+02  0.37126727225E+02 -0.12506232869E+02  0.47787270410E+02  0.19999997109E+02 0.  0.
         12    1    1    2    0    0 -0.18676819694E+02 -0.37126727225E+02  0.12506232869E+02  0.43400729590E+02  0.00000000000E+00 0. -1.
         11    1    3    3    0    0  0.11885566524E+02  0.16702107609E+02 -0.14313296234E+02  0.25001950715E+02  0.51100000000E-03 0. -1.
        -11    1    3    3    0    0 -0.13313363748E+01  0.13375873016E+01 -0.38586940229E+00  0.19262636863E+01  0.51100000000E-03 0.  1.
         12    1    3    3    0    0  0.81225895447E+01  0.19087032314E+02  0.21929327676E+01  0.20859056009E+02  0.00000000000E+00 0. -1.
</event>
<event>
 7    1  0.2812635E-010  0.4778727E+02  0.7816164E-02  0.1312668E+00
        -11   -1    0    0    0    0  0.00000000000E+00  0.00000000000E+00  0.45593999997E+02  0.45594000000E+02  0.51100000000E-03 0. -1.
         11   -1    0    0    0    0 -0.00000000000E+00 -0.00000000000E+00 -0.45593999997E+02  0.45594000000E+02  0.51100000000E-03 0.  1.
    9900012    2    1    2    0    0  0.42973749585E+02 -0.57783446463E+01  0.18683122357E+01  0.47787274075E+02  0.20000013815E+02 0.  0.
         12    1    1    2    0    0 -0.42973749585E+02  0.57783446463E+01 -0.18683122357E+01  0.43400725925E+02  0.00000000000E+00 0. -1.
         11    1    3    3    0    0  0.30376594127E+02  0.44445513210E+01 -0.78163420688E-01  0.30700124055E+02  0.51100000000E-03 0. -1.
        -11    1    3    3    0    0  0.11827692171E+02 -0.71796758941E+01  0.16455602097E+01  0.13933768934E+02  0.51100000000E-03 0.  1.
         12    1    3    3    0    0  0.76946328641E+00 -0.30432200732E+01  0.30091544666E+00  0.31533810853E+01  0.00000000000E+00 0. -1.
</event>
<event>
 7    1  0.2812635E-010  0.4778728E+02  0.7816164E-02  0.1312668E+00
        -11   -1    0    0    0    0  0.00000000000E+00  0.00000000000E+00  0.45593999997E+02  0.45594000000E+02  0.51100000000E-03 0. -1.
         11   -1    0    0    0    0 -0.00000000000E+00 -0.00000000000E+00 -0.45593999997E+02  0.45594000000E+02  0.51100000000E-03 0.  1.
    9900012    2    1    2    0    0 -0.37210565214E+02 -0.18596071821E+02 -0.12376704917E+02  0.47787275636E+02  0.20000020936E+02 0.  0.
         12    1    1    2    0    0  0.37210565214E+02  0.18596071821E+02  0.12376704917E+02  0.43400724364E+02  0.00000000000E+00 0. -1.
         11    1    3    3    0    0 -0.19277399782E+02 -0.99734781917E+01 -0.23583233541E+01  0.21832317763E+02  0.51100000000E-03 0. -1.
        -11    1    3    3    0    0 -0.95962907968E+01 -0.53165903294E+01 -0.12517711509E+02  0.16644759880E+02  0.51100000000E-03 0.  1.
        -12    1    3    3    0    0 -0.83368746348E+01 -0.33060032998E+01  0.24993299459E+01  0.93101979932E+01  0.00000000000E+00 0.  1.
</event>
<event>
 7    1  0.2812635E-010  0.4778728E+02  0.7816164E-02  0.1312668E+00
        -11   -1    0    0    0    0  0.00000000000E+00  0.00000000000E+00  0.45593999997E+02  0.45594000000E+02  0.51100000000E-03 0.  1.
         11   -1    0    0    0    0 -0.00000000000E+00 -0.00000000000E+00 -0.45593999997E+02  0.45594000000E+02  0.51100000000E-03 0. -1.
    9900012    2    1    2    0    0  0.26343180834E+02  0.32938295773E+02 -0.10233680387E+02  0.47787277435E+02  0.20000029137E+02 0.  0.
         12    1    1    2    0    0 -0.26343180834E+02 -0.32938295773E+02  0.10233680387E+02  0.43400722565E+02  0.00000000000E+00 0. -1.
         11    1    3    3    0    0  0.31642725708E+01 -0.18246950910E+01 -0.12031296586E+01  0.38457319608E+01  0.51100000000E-03 0. -1.
        -11    1    3    3    0    0  0.83920103866E+01  0.49976448296E+01 -0.21115157764E+01  0.99930371413E+01  0.51100000000E-03 0.  1.
         12    1    3    3    0    0  0.14786897876E+02  0.29765346035E+02 -0.69190349524E+01  0.33948508333E+02  0.00000000000E+00 0. -1.
</event>
<event>
 7    1  0.2812635E-010  0.4778728E+02  0.7816164E-02  0.1312668E+00
        -11   -1    0    0    0    0  0.00000000000E+00  0.00000000000E+00  0.45593999997E+02  0.45594000000E+02  0.51100000000E-03 0.  1.
         11   -1    0    0    0    0 -0.00000000000E+00 -0.00000000000E+00 -0.45593999997E+02  0.45594000000E+02  0.51100000000E-03 0. -1.
    9900012    2    1    2    0    0  0.43132720722E+02  0.46170615260E+01  0.13689478636E+01  0.47787275671E+02  0.20000021093E+02 0.  0.
         12    1    1    2    0    0 -0.43132720722E+02 -0.46170615260E+01 -0.13689478636E+01  0.43400724329E+02  0.00000000000E+00 0. -1.
         11    1    3    3    0    0  0.63970410714E+01 -0.74403970474E+00  0.55294858655E+01  0.84882827327E+01  0.51100000000E-03 0. -1.
        -11    1    3    3    0    0  0.37145465822E+02  0.47270495434E+01 -0.54153361325E+01  0.37834593882E+02  0.51100000000E-03 0.  1.
        -12    1    3    3    0    0 -0.40978617067E+00  0.63405168736E+00  0.12547981306E+01  0.14643990564E+01  0.00000000000E+00 0.  1.
</event>
<event>
 7    1  0.2812635E-010  0.4778727E+02  0.7816164E-02  0.1312668E+00
        -11   -1    0    0    0    0  0.00000000000E+00  0.00000000000E+00  0.45593999997E+02  0.45594000000E+02  0.51100000000E-03 0. -1.
         11   -1    0    0    0    0 -0.00000000000E+00 -0.00000000000E+00 -0.45593999997E+02  0.45594000000E+02  0.51100000000E-03 0.  1.
    9900012    2    1    2    0    0  0.40139715641E+02 -0.11563829693E+02  0.11777281884E+02  0.47787270773E+02  0.19999998762E+02 0.  0.
         12    1    1    2    0    0 -0.40139715641E+02  0.11563829693E+02 -0.11777281884E+02  0.43400729227E+02  0.00000000000E+00 0. -1.
         11    1    3    3    0    0  0.59162138804E+01 -0.62860394413E+01  0.82399379279E+01  0.11933669002E+02  0.51100000000E-03 0. -1.
        -11    1    3    3    0    0  0.29508404345E+02 -0.13567028169E+01  0.31898070516E+01  0.29711301534E+02  0.51100000000E-03 0.  1.
        -12    1    3    3    0    0  0.47150974148E+01 -0.39210874343E+01  0.34753690462E+00  0.61423002368E+01  0.00000000000E+00 0.  1.
</event>
<event>
 7    1  0.2812635E-010  0.4778728E+02  0.7816164E-02  0.1312668E+00
        -11   -1    0    0    0    0  0.00000000000E+00  0.00000000000E+00  0.45593999997E+02  0.45594000000E+02  0.51100000000E-03 0.  1.
         11   -1    0    0    0    0 -0.00000000000E+00 -0.00000000000E+00 -0.45593999997E+02  0.45594000000E+02  0.51100000000E-03 0. -1.
    9900012    2    1    2    0    0  0.26500301806E+02  0.91302249442E+01  0.33136020864E+02  0.47787275558E+02  0.20000020581E+02 0.  0.
         12    1    1    2    0    0 -0.26500301806E+02 -0.91302249442E+01 -0.33136020864E+02  0.43400724442E+02  0.00000000000E+00 0. -1.
         11    1    3    3    0    0 -0.19659367096E+01  0.49914856098E+00  0.30198261988E+01  0.36377750018E+01  0.51100000000E-03 0. -1.
        -11    1    3    3    0    0  0.21159938493E+02  0.74439498330E+01  0.14071022764E+02  0.26479219551E+02  0.51100000000E-03 0.  1.
        -12    1    3    3    0    0  0.73063000225E+01  0.11871265502E+01  0.16045171901E+02  0.17670281005E+02  0.00000000000E+00 0.  1.
</event>
<event>
 7    1  0.2812635E-010  0.4778726E+02  0.7816164E-02  0.1312668E+00
        -11   -1    0    0    0    0  0.00000000000E+00  0.00000000000E+00  0.45593999997E+02  0.45594000000E+02  0.51100000000E-03 0. -1.
         11   -1    0    0    0    0 -0.00000000000E+00 -0.00000000000E+00 -0.45593999997E+02  0.45594000000E+02  0.51100000000E-03 0.  1.
    9900012    2    1    2    0    0 -0.31622486001E+02 -0.17134052037E+02 -0.24291296439E+02  0.47787257578E+02  0.19999938600E+02 0.  0.
         12    1    1    2    0    0  0.31622486001E+02  0.17134052037E+02  0.24291296439E+02  0.43400742422E+02  0.00000000000E+00 0. -1.
         11    1    3    3    0    0 -0.85699231489E+01 -0.46256356906E+01 -0.10689857778E+02  0.14460745067E+02  0.51100000000E-03 0.  1.
        -11    1    3    3    0    0 -0.48097982925E+01 -0.11123265710E+02 -0.58534725658E+01  0.13458244351E+02  0.51100000000E-03 0. -1.
        -12    1    3    3    0    0 -0.18242764560E+02 -0.13851506366E+01 -0.77479660956E+01  0.19868268160E+02  0.00000000000E+00 0.  1.
</event>
<event>
 7    1  0.2812635E-010  0.4778727E+02  0.7816164E-02  0.1312668E+00
        -11   -1    0    0    0    0  0.00000000000E+00  0.00000000000E+00  0.45593999997E+02  0.45594000000E+02  0.51100000000E-03 0. -1.
         11   -1    0    0    0    0 -0.00000000000E+00 -0.00000000000E+00 -0.45593999997E+02  0.45594000000E+02  0.51100000000E-03 0.  1.
    9900012    2    1    2    0    0 -0.32393935874E+02  0.18215624957E+02 -0.22415332622E+02  0.47787271774E+02  0.20000003327E+02 0.  0.
         12    1    1    2    0    0  0.32393935874E+02 -0.18215624957E+02  0.22415332622E+02  0.43400728226E+02  0.00000000000E+00 0. -1.
         11    1    3    3    0    0  0.42133800017E-01  0.97405350797E+00  0.60460157862E-01  0.97683733820E+00  0.51100000000E-03 0. -1.
        -11    1    3    3    0    0 -0.23228913463E+02  0.20257732164E+02 -0.20222175606E+02  0.36863186509E+02  0.51100000000E-03 0.  1.
        -12    1    3    3    0    0 -0.92071562114E+01 -0.30161607148E+01 -0.22536171731E+01  0.99472479270E+01  0.00000000000E+00 0.  1.
</event>
<event>
 7    1  0.2812635E-010  0.4778727E+02  0.7816164E-02  0.1312668E+00
        -11   -1    0    0    0    0  0.00000000000E+00  0.00000000000E+00  0.45593999997E+02  0.45594000000E+02  0.51100000000E-03 0. -1.
         11   -1    0    0    0    0 -0.00000000000E+00 -0.00000000000E+00 -0.45593999997E+02  0.45594000000E+02  0.51100000000E-03 0.  1.
    9900012    2    1    2    0    0 -0.90944616426E+01  0.34357018729E+02  0.24910025187E+02  0.47787270475E+02  0.19999997404E+02 0.  0.
         12    1    1    2    0    0  0.90944616426E+01 -0.34357018729E+02 -0.24910025187E+02  0.43400729525E+02  0.00000000000E+00 0. -1.
         11    1    3    3    0    0 -0.60186004151E+01  0.34550568186E+01 -0.31354694557E+00  0.69468899894E+01  0.51100000000E-03 0. -1.
        -11    1    3    3    0    0 -0.24015559195E+01  0.25662545909E+02  0.16379858923E+02  0.30539048969E+02  0.51100000000E-03 0.  1.
         12    1    3    3    0    0 -0.67430530811E+00  0.52394160017E+01  0.88437132090E+01  0.10301331516E+02  0.00000000000E+00 0. -1.
</event>
<event>
 7    1  0.2812635E-010  0.4778726E+02  0.7816164E-02  0.1312668E+00
        -11   -1    0    0    0    0  0.00000000000E+00  0.00000000000E+00  0.45593999997E+02  0.45594000000E+02  0.51100000000E-03 0.  1.
         11   -1    0    0    0    0 -0.00000000000E+00 -0.00000000000E+00 -0.45593999997E+02  0.45594000000E+02  0.51100000000E-03 0. -1.
    9900012    2    1    2    0    0  0.39733349752E+01 -0.42599202782E+02  0.72900359587E+01  0.47787261610E+02  0.19999956986E+02 0.  0.
         12    1    1    2    0    0 -0.39733349752E+01  0.42599202782E+02 -0.72900359587E+01  0.43400738390E+02  0.00000000000E+00 0. -1.
         11    1    3    3    0    0  0.60894084779E+00 -0.30231103675E+02  0.12985718617E+02  0.32907739616E+02  0.51100000000E-03 0. -1.
        -11    1    3    3    0    0  0.40071707213E+01 -0.12424840433E+02 -0.51488337413E+01  0.14033693959E+02  0.51100000000E-03 0.  1.
        -12    1    3    3    0    0 -0.64277659388E+00  0.56741326211E-01 -0.54684891677E+00  0.84582803542E+00  0.00000000000E+00 0.  1.
</event>
<event>
 7    1  0.2812635E-010  0.4778727E+02  0.7816164E-02  0.1312668E+00
        -11   -1    0    0    0    0  0.00000000000E+00  0.00000000000E+00  0.45593999997E+02  0.45594000000E+02  0.51100000000E-03 0.  1.
         11   -1    0    0    0    0 -0.00000000000E+00 -0.00000000000E+00 -0.45593999997E+02  0.45594000000E+02  0.51100000000E-03 0. -1.
    9900012    2    1    2    0    0 -0.15735852381E+02  0.32521240384E+02  0.24049434351E+02  0.47787269373E+02  0.19999992381E+02 0.  0.
         12    1    1    2    0    0  0.15735852381E+02 -0.32521240384E+02 -0.24049434351E+02  0.43400730627E+02  0.00000000000E+00 0. -1.
         11    1    3    3    0    0 -0.54374347094E+01  0.16682201936E+02  0.16164762080E+01  0.17620288115E+02  0.51100000000E-03 0. -1.
        -11    1    3    3    0    0 -0.57773460517E+01  0.14245095146E+02  0.16854818410E+02  0.22811956668E+02  0.51100000000E-03 0.  1.
         12    1    3    3    0    0 -0.45210716204E+01  0.15939433020E+01  0.55781397334E+01  0.73550245909E+01  0.00000000000E+00 0. -1.
</event>
<event>
 7    1  0.2812635E-010  0.4778727E+02  0.7816164E-02  0.1312668E+00
        -11   -1    0    0    0    0  0.00000000000E+00  0.00000000000E+00  0.45593999997E+02  0.45594000000E+02  0.51100000000E-03 0.  1.
         11   -1    0    0    0    0 -0.00000000000E+00 -0.00000000000E+00 -0.45593999997E+02  0.45594000000E+02  0.51100000000E-03 0. -1.
    9900012    2    1    2    0    0 -0.40404643895E+02 -0.59103412067E+01  0.14702235613E+02  0.47787272892E+02  0.20000008423E+02 0.  0.
         12    1    1    2    0    0  0.40404643895E+02  0.59103412067E+01 -0.14702235613E+02  0.43400727108E+02  0.00000000000E+00 0. -1.
         11    1    3    3    0    0  0.12363955930E+01  0.60488348869E+00 -0.10015229671E+01  0.17022357686E+01  0.51100000000E-03 0. -1.
        -11    1    3    3    0    0 -0.18454089412E+02 -0.22707546451E+01  0.12238103772E+02  0.22259400865E+02  0.51100000000E-03 0.  1.
         12    1    3    3    0    0 -0.23186950076E+02 -0.42444700503E+01  0.34656548079E+01  0.23825636258E+02  0.00000000000E+00 0. -1.
</event>
<event>
 7    1  0.2812635E-010  0.4778727E+02  0.7816164E-02  0.1312668E+00
        -11   -1    0    0    0    0  0.00000000000E+00  0.00000000000E+00  0.45593999997E+02  0.45594000000E+02  0.51100000000E-03 0.  1.
         11   -1    0    0    0    0 -0.00000000000E+00 -0.00000000000E+00 -0.45593999997E+02  0.45594000000E+02  0.51100000000E-03 0. -1.
    9900012    2    1    2    0    0 -0.12524658056E+02 -0.31147701332E+02  0.27505952270E+02  0.47787265353E+02  0.19999974049E+02 0.  0.
         12    1    1    2    0    0  0.12524658056E+02  0.31147701332E+02 -0.27505952270E+02  0.43400734647E+02  0.00000000000E+00 0. -1.
         11    1    3    3    0    0 -0.10762178884E+02 -0.18969609713E+02  0.25265025556E+02  0.33376520244E+02  0.51100000000E-03 0. -1.
        -11    1    3    3    0    0 -0.14978320677E+01 -0.30360614367E+01  0.38474651529E+01  0.51248569067E+01  0.51100000000E-03 0.  1.
         12    1    3    3    0    0 -0.26464710443E+00 -0.91420301817E+01 -0.16065384395E+01  0.92858882015E+01  0.00000000000E+00 0. -1.
</event>
<event>
 7    1  0.2812635E-010  0.4778727E+02  0.7816164E-02  0.1312668E+00
        -11   -1    0    0    0    0  0.00000000000E+00  0.00000000000E+00  0.45593999997E+02  0.45594000000E+02  0.51100000000E-03 0.  1.
         11   -1    0    0    0    0 -0.00000000000E+00 -0.00000000000E+00 -0.45593999997E+02  0.45594000000E+02  0.51100000000E-03 0. -1.
    9900012    2    1    2    0    0 -0.70155652346E+01 -0.31232079077E+02  0.29308058776E+02  0.47787271570E+02  0.20000002397E+02 0.  0.
         12    1    1    2    0    0  0.70155652346E+01  0.31232079077E+02 -0.29308058776E+02  0.43400728430E+02  0.00000000000E+00 0. -1.
         11    1    3    3    0    0 -0.61391649964E+01 -0.10461496524E+02  0.10321756426E+01  0.12173645435E+02  0.51100000000E-03 0. -1.
        -11    1    3    3    0    0 -0.13567497222E+01 -0.18318243839E+02  0.20893305883E+02  0.27819580481E+02  0.51100000000E-03 0.  1.
        -12    1    3    3    0    0  0.48034948396E+00 -0.24523387135E+01  0.73825772501E+01  0.77940456533E+01  0.00000000000E+00 0.  1.
</event>
<event>
 7    1  0.2812635E-010  0.4778726E+02  0.7816164E-02  0.1312668E+00
        -11   -1    0    0    0    0  0.00000000000E+00  0.00000000000E+00  0.45593999997E+02  0.45594000000E+02  0.51100000000E-03 0.  1.
         11   -1    0    0    0    0 -0.00000000000E+00 -0.00000000000E+00 -0.45593999997E+02  0.45594000000E+02  0.51100000000E-03 0. -1.
    9900012    2    1    2    0    0  0.11787965578E+02 -0.31755640637E+02  0.27133878249E+02  0.47787260450E+02  0.19999951693E+02 0.  0.
         12    1    1    2    0    0 -0.11787965578E+02  0.31755640637E+02 -0.27133878249E+02  0.43400739550E+02  0.00000000000E+00 0. -1.
         11    1    3    3    0    0  0.30710464500E+01 -0.58450170199E+01 -0.39907327534E+00  0.66147418696E+01  0.51100000000E-03 0. -1.
        -11    1    3    3    0    0  0.86532648447E+01 -0.25464558156E+02  0.29051048106E+02  0.39588964509E+02  0.51100000000E-03 0.  1.
        -12    1    3    3    0    0  0.63654283200E-01 -0.44606546106E+00 -0.15180965823E+01  0.15835540712E+01  0.00000000000E+00 0.  1.
</event>
<event>
 7    1  0.2812635E-010  0.4778729E+02  0.7816164E-02  0.1312668E+00
        -11   -1    0    0    0    0  0.00000000000E+00  0.00000000000E+00  0.45593999997E+02  0.45594000000E+02  0.51100000000E-03 0.  1.
         11   -1    0    0    0    0 -0.00000000000E+00 -0.00000000000E+00 -0.45593999997E+02  0.45594000000E+02  0.51100000000E-03 0. -1.
    9900012    2    1    2    0    0  0.16797289436E+01 -0.15363106928E+02  0.40555831152E+02  0.47787285901E+02  0.20000067739E+02 0.  0.
         12    1    1    2    0    0 -0.16797289436E+01  0.15363106928E+02 -0.40555831152E+02  0.43400714099E+02  0.00000000000E+00 0. -1.
         11    1    3    3    0    0 -0.46239151650E+00 -0.51674142637E+00  0.11606701872E+02  0.11627396795E+02  0.51100000000E-03 0. -1.
        -11    1    3    3    0    0  0.22912075177E+01 -0.12848232691E+02  0.84159173006E+01  0.15529146127E+02  0.51100000000E-03 0.  1.
        -12    1    3    3    0    0 -0.14908705755E+00 -0.19981328109E+01  0.20533211980E+02  0.20630742979E+02  0.00000000000E+00 0.  1.
</event>
<event>
 7    1  0.2812635E-010  0.4778727E+02  0.7816164E-02  0.1312668E+00
        -11   -1    0    0    0    0  0.00000000000E+00  0.00000000000E+00  0.45593999997E+02  0.45594000000E+02  0.51100000000E-03 0. -1.
         11   -1    0    0    0    0 -0.00000000000E+00 -0.00000000000E+00 -0.45593999997E+02  0.45594000000E+02  0.51100000000E-03 0.  1.
    9900012    2    1    2    0    0 -0.39600823048E+02 -0.15794573343E+02 -0.81197153699E+01  0.47787268314E+02  0.19999987552E+02 0.  0.
         12    1    1    2    0    0  0.39600823048E+02  0.15794573343E+02  0.81197153699E+01  0.43400731686E+02  0.00000000000E+00 0. -1.
         11    1    3    3    0    0 -0.57939532275E+01 -0.63530774011E+00  0.44517528438E+01  0.73342766222E+01  0.51100000000E-03 0. -1.
        -11    1    3    3    0    0 -0.14633129636E+02 -0.66498522518E+01 -0.10876573292E+02  0.19407443539E+02  0.51100000000E-03 0.  1.
        -12    1    3    3    0    0 -0.19173740185E+02 -0.85094133507E+01 -0.16948949221E+01  0.21045548153E+02  0.00000000000E+00 0.  1.
</event>
<event>
 7    1  0.2812635E-010  0.4778727E+02  0.7816164E-02  0.1312668E+00
        -11   -1    0    0    0    0  0.00000000000E+00  0.00000000000E+00  0.45593999997E+02  0.45594000000E+02  0.51100000000E-03 0. -1.
         11   -1    0    0    0    0 -0.00000000000E+00 -0.00000000000E+00 -0.45593999997E+02  0.45594000000E+02  0.51100000000E-03 0.  1.
    9900012    2    1    2    0    0  0.37812354794E+02  0.63024411627E+01 -0.20350138730E+02  0.47787273209E+02  0.20000009869E+02 0.  0.
         12    1    1    2    0    0 -0.37812354794E+02 -0.63024411627E+01  0.20350138730E+02  0.43400726791E+02  0.00000000000E+00 0. -1.
         11    1    3    3    0    0  0.26261403544E+00 -0.26744467692E+01 -0.49287463250E-01  0.26877613674E+01  0.51100000000E-03 0. -1.
        -11    1    3    3    0    0  0.31403672596E+02  0.11088294786E+02 -0.14264984847E+02  0.36230246021E+02  0.51100000000E-03 0.  1.
        -12    1    3    3    0    0  0.61460681620E+01 -0.21114068539E+01 -0.60358664201E+01  0.88692658205E+01  0.00000000000E+00 0.  1.
</event>
<event>
 7    1  0.2812635E-010  0.4778727E+02  0.7816164E-02  0.1312668E+00
        -11   -1    0    0    0    0  0.00000000000E+00  0.00000000000E+00  0.45593999997E+02  0.45594000000E+02  0.51100000000E-03 0. -1.
         11   -1    0    0    0    0 -0.00000000000E+00 -0.00000000000E+00 -0.45593999997E+02  0.45594000000E+02  0.51100000000E-03 0.  1.
    9900012    2    1    2    0    0  0.32311533875E+02  0.28900825527E+02  0.20809878438E+01  0.47787269040E+02  0.19999990859E+02 0.  0.
         12    1    1    2    0    0 -0.32311533875E+02 -0.28900825527E+02 -0.20809878438E+01  0.43400730960E+02  0.00000000000E+00 0. -1.
         11    1    3    3    0    0  0.15309960452E+02  0.12618700200E+02  0.73475389051E+01  0.21156862055E+02  0.51100000000E-03 0. -1.
        -11    1    3    3    0    0  0.18492535559E+02  0.16226219518E+02 -0.51376653299E+01  0.25132840598E+02  0.51100000000E-03 0.  1.
         12    1    3    3    0    0 -0.14909621359E+01  0.55905808798E-01 -0.12888573144E+00  0.14975663864E+01  0.00000000000E+00 0. -1.
</event>
<event>
 7    1  0.2812635E-010  0.4778727E+02  0.7816164E-02  0.1312668E+00
        -11   -1    0    0    0    0  0.00000000000E+00  0.00000000000E+00  0.45593999997E+02  0.45594000000E+02  0.51100000000E-03 0.  1.
         11   -1    0    0    0    0 -0.00000000000E+00 -0.00000000000E+00 -0.45593999997E+02  0.45594000000E+02  0.51100000000E-03 0. -1.
    9900012    2    1    2    0    0  0.35987664304E+02 -0.69262955325E+01  0.23249466235E+02  0.47787271526E+02  0.20000002196E+02 0.  0.
         12    1    1    2    0    0 -0.35987664304E+02  0.69262955325E+01 -0.23249466235E+02  0.43400728474E+02  0.00000000000E+00 0. -1.
         11    1    3    3    0    0  0.77184133535E+01 -0.61411825607E+01  0.15115240987E+02  0.18048782183E+02  0.51100000000E-03 0. -1.
        -11    1    3    3    0    0  0.51020242746E+01 -0.17358515084E+01  0.20581220584E+01  0.57688559374E+01  0.51100000000E-03 0.  1.
         12    1    3    3    0    0  0.23167226676E+02  0.95073853653E+00  0.60761031894E+01  0.23969633405E+02  0.00000000000E+00 0. -1.
</event>
<event>
 7    1  0.2812635E-010  0.4778727E+02  0.7816164E-02  0.1312668E+00
        -11   -1    0    0    0    0  0.00000000000E+00  0.00000000000E+00  0.45593999997E+02  0.45594000000E+02  0.51100000000E-03 0.  1.
         11   -1    0    0    0    0 -0.00000000000E+00 -0.00000000000E+00 -0.45593999997E+02  0.45594000000E+02  0.51100000000E-03 0. -1.
    9900012    2    1    2    0    0 -0.21358010201E+02 -0.11557637200E+02  0.35970537962E+02  0.47787272141E+02  0.20000005001E+02 0.  0.
         12    1    1    2    0    0  0.21358010201E+02  0.11557637200E+02 -0.35970537962E+02  0.43400727859E+02  0.00000000000E+00 0. -1.
         11    1    3    3    0    0 -0.20721801675E+02 -0.74937745589E+01  0.23874470581E+02  0.32489076126E+02  0.51100000000E-03 0.  1.
        -11    1    3    3    0    0  0.14857134445E+01 -0.59340471788E+01  0.59552098528E+01  0.85372586356E+01  0.51100000000E-03 0. -1.
         12    1    3    3    0    0 -0.21219219709E+01  0.18701845381E+01  0.61408575287E+01  0.67609373792E+01  0.00000000000E+00 0. -1.
</event>
<event>
 7    1  0.2812635E-010  0.4778726E+02  0.7816164E-02  0.1312668E+00
        -11   -1    0    0    0    0  0.00000000000E+00  0.00000000000E+00  0.45593999997E+02  0.45594000000E+02  0.51100000000E-03 0. -1.
         11   -1    0    0    0    0 -0.00000000000E+00 -0.00000000000E+00 -0.45593999997E+02  0.45594000000E+02  0.51100000000E-03 0.  1.
    9900012    2    1    2    0    0  0.41700021753E+01 -0.38789860912E+02 -0.19015310511E+02  0.47787259666E+02  0.19999948120E+02 0.  0.
         12    1    1    2    0    0 -0.41700021753E+01  0.38789860912E+02  0.19015310511E+02  0.43400740334E+02  0.00000000000E+00 0. -1.
         11    1    3    3    0    0  0.24201536041E+01 -0.75186218416E+01  0.26103238230E+01  0.83186903168E+01  0.51100000000E-03 0. -1.
        -11    1    3    3    0    0 -0.41742818033E+01 -0.10892737996E+02 -0.93656878960E+01  0.14959695172E+02  0.51100000000E-03 0.  1.
         12    1    3    3    0    0  0.59241303745E+01 -0.20378501075E+02 -0.12259946438E+02  0.24508874177E+02  0.00000000000E+00 0. -1.
</event>
<event>
 7    1  0.2812635E-010  0.4778727E+02  0.7816164E-02  0.1312668E+00
        -11   -1    0    0    0    0  0.00000000000E+00  0.00000000000E+00  0.45593999997E+02  0.45594000000E+02  0.51100000000E-03 0.  1.
         11   -1    0    0    0    0 -0.00000000000E+00 -0.00000000000E+00 -0.45593999997E+02  0.45594000000E+02  0.51100000000E-03 0. -1.
    9900012    2    1    2    0    0 -0.40270767331E+02  0.45209542403E+01  0.15538647943E+02  0.47787270645E+02  0.19999998178E+02 0.  0.
         12    1    1    2    0    0  0.40270767331E+02 -0.45209542403E+01 -0.15538647943E+02  0.43400729355E+02  0.00000000000E+00 0. -1.
         11    1    3    3    0    0  0.18019026251E+00  0.33025859788E+01  0.45891776378E+01  0.56568625872E+01  0.51100000000E-03 0. -1.
        -11    1    3    3    0    0 -0.21983080619E+02  0.25344366550E+00  0.38376016178E+01  0.22316972322E+02  0.51100000000E-03 0.  1.
         12    1    3    3    0    0 -0.18467876974E+02  0.96492459593E+00  0.71118686870E+01  0.19813435735E+02  0.00000000000E+00 0. -1.
</event>
<event>
 7    1  0.2812635E-010  0.4778727E+02  0.7816164E-02  0.1312668E+00
        -11   -1    0    0    0    0  0.00000000000E+00  0.00000000000E+00  0.45593999997E+02  0.45594000000E+02  0.51100000000E-03 0. -1.
         11   -1    0    0    0    0 -0.00000000000E+00 -0.00000000000E+00 -0.45593999997E+02  0.45594000000E+02  0.51100000000E-03 0.  1.
    9900012    2    1    2    0    0 -0.23637479798E+02  0.69127264033E+01 -0.35736634254E+02  0.47787271143E+02  0.20000000449E+02 0.  0.
         12    1    1    2    0    0  0.23637479798E+02 -0.69127264033E+01  0.35736634254E+02  0.43400728857E+02  0.00000000000E+00 0. -1.
         11    1    3    3    0    0  0.88763544372E+00  0.35805180121E+01 -0.48060717870E+00  0.37200792246E+01  0.51100000000E-03 0. -1.
        -11    1    3    3    0    0 -0.15964774263E+02  0.60037453487E+01 -0.26632354698E+02  0.31625959155E+02  0.51100000000E-03 0.  1.
        -12    1    3    3    0    0 -0.85603409790E+01 -0.26715369575E+01 -0.86236723777E+01  0.12441232763E+02  0.00000000000E+00 0.  1.
</event>
<event>
 7    1  0.2812635E-010  0.4778725E+02  0.7816164E-02  0.1312668E+00
        -11   -1    0    0    0    0  0.00000000000E+00  0.00000000000E+00  0.45593999997E+02  0.45594000000E+02  0.51100000000E-03 0. -1.
         11   -1    0    0    0    0 -0.00000000000E+00 -0.00000000000E+00 -0.45593999997E+02  0.45594000000E+02  0.51100000000E-03 0.  1.
    9900012    2    1    2    0    0  0.11228703352E+02  0.29524152357E+02 -0.29763503221E+02  0.47787245682E+02  0.19999884364E+02 0.  0.
         12    1    1    2    0    0 -0.11228703352E+02 -0.29524152357E+02  0.29763503221E+02  0.43400754318E+02  0.00000000000E+00 0. -1.
         11    1    3    3    0    0  0.74452126214E+01  0.31176306608E+02 -0.26826542324E+02  0.41797806857E+02  0.51100000000E-03 0.  1.
        -11    1    3    3    0    0  0.75487490360E+00 -0.18402181503E+01 -0.38809991774E+00  0.20265391110E+01  0.51100000000E-03 0. -1.
        -12    1    3    3    0    0  0.30286158271E+01  0.18806389928E+00 -0.25488609786E+01  0.39628997145E+01  0.00000000000E+00 0.  1.
</event>
<event>
 7    1  0.2812635E-010  0.4778727E+02  0.7816164E-02  0.1312668E+00
        -11   -1    0    0    0    0  0.00000000000E+00  0.00000000000E+00  0.45593999997E+02  0.45594000000E+02  0.51100000000E-03 0.  1.
         11   -1    0    0    0    0 -0.00000000000E+00 -0.00000000000E+00 -0.45593999997E+02  0.45594000000E+02  0.51100000000E-03 0. -1.
    9900012    2    1    2    0    0 -0.21041956326E+02  0.37825877301E+02 -0.31721561773E+01  0.47787268503E+02  0.19999988413E+02 0.  0.
         12    1    1    2    0    0  0.21041956326E+02 -0.37825877301E+02  0.31721561773E+01  0.43400731497E+02  0.00000000000E+00 0. -1.
         11    1    3    3    0    0 -0.61378165622E+00 -0.16981028914E+01 -0.14481745566E+01  0.23146254900E+01  0.51100000000E-03 0.  1.
        -11    1    3    3    0    0 -0.10714851601E+02  0.29693858973E+02 -0.19258503989E+00  0.31568503208E+02  0.51100000000E-03 0. -1.
        -12    1    3    3    0    0 -0.97133230685E+01  0.98301212198E+01 -0.15313965808E+01  0.13904139805E+02  0.00000000000E+00 0.  1.
</event>
<event>
 7    1  0.2812635E-010  0.4778727E+02  0.7816164E-02  0.1312668E+00
        -11   -1    0    0    0    0  0.00000000000E+00  0.00000000000E+00  0.45593999997E+02  0.45594000000E+02  0.51100000000E-03 0.  1.
         11   -1    0    0    0    0 -0.00000000000E+00 -0.00000000000E+00 -0.45593999997E+02  0.45594000000E+02  0.51100000000E-03 0. -1.
    9900012    2    1    2    0    0  0.97471358453E+01  0.41971650492E+02 -0.51958778425E+01  0.47787271333E+02  0.20000001317E+02 0.  0.
         12    1    1    2    0    0 -0.97471358453E+01 -0.41971650492E+02  0.51958778425E+01  0.43400728667E+02  0.00000000000E+00 0. -1.
         11    1    3    3    0    0 -0.10173418844E+01  0.78041850235E+01  0.52694214212E+01  0.94713827272E+01  0.51100000000E-03 0. -1.
        -11    1    3    3    0    0  0.11069419494E+02  0.32786814127E+02 -0.80686270878E+01  0.35533223494E+02  0.51100000000E-03 0.  1.
        -12    1    3    3    0    0 -0.30494176406E+00  0.13806513415E+01 -0.23966721758E+01  0.27826651119E+01  0.00000000000E+00 0.  1.
</event>
<event>
 7    1  0.2812635E-010  0.4778727E+02  0.7816164E-02  0.1312668E+00
        -11   -1    0    0    0    0  0.00000000000E+00  0.00000000000E+00  0.45593999997E+02  0.45594000000E+02  0.51100000000E-03 0. -1.
         11   -1    0    0    0    0 -0.00000000000E+00 -0.00000000000E+00 -0.45593999997E+02  0.45594000000E+02  0.51100000000E-03 0.  1.
    9900012    2    1    2    0    0 -0.38757803089E+02 -0.16678474127E+02 -0.10162891737E+02  0.47787272264E+02  0.20000005562E+02 0.  0.
         12    1    1    2    0    0  0.38757803089E+02  0.16678474127E+02  0.10162891737E+02  0.43400727736E+02  0.00000000000E+00 0. -1.
         11    1    3    3    0    0 -0.24953684924E+02 -0.13170280246E+02 -0.12279551921E+02  0.30772228855E+02  0.51100000000E-03 0. -1.
        -11    1    3    3    0    0 -0.13833182606E+02 -0.40533992956E+01  0.40768446660E+01  0.14980241973E+02  0.51100000000E-03 0.  1.
         12    1    3    3    0    0  0.29064440221E-01  0.54520541474E+00 -0.19601844818E+01  0.20348014372E+01  0.00000000000E+00 0. -1.
</event>
<event>
 7    1  0.2812635E-010  0.4778728E+02  0.7816164E-02  0.1312668E+00
        -11   -1    0    0    0    0  0.00000000000E+00  0.00000000000E+00  0.45593999997E+02  0.45594000000E+02  0.51100000000E-03 0. -1.
         11   -1    0    0    0    0 -0.00000000000E+00 -0.00000000000E+00 -0.45593999997E+02  0.45594000000E+02  0.51100000000E-03 0.  1.
    9900012    2    1    2    0    0  0.36615729573E+02  0.50279624604E+01 -0.22751490582E+02  0.47787281315E+02  0.20000046830E+02 0.  0.
         12    1    1    2    0    0 -0.36615729573E+02 -0.50279624604E+01  0.22751490582E+02  0.43400718685E+02  0.00000000000E+00 0. -1.
         11    1    3    3    0    0  0.80728758757E+01 -0.31726930858E+01 -0.11136454703E+02  0.14115875104E+02  0.51100000000E-03 0. -1.
        -11    1    3    3    0    0  0.76037347615E+01  0.56676357726E+01  0.21980037631E+00  0.94861578124E+01  0.51100000000E-03 0.  1.
        -12    1    3    3    0    0  0.20939118935E+02  0.25330197736E+01 -0.11834836254E+02  0.24185248399E+02  0.00000000000E+00 0.  1.
</event>
<event>
 7    1  0.2812635E-010  0.4778726E+02  0.7816164E-02  0.1312668E+00
        -11   -1    0    0    0    0  0.00000000000E+00  0.00000000000E+00  0.45593999997E+02  0.45594000000E+02  0.51100000000E-03 0.  1.
         11   -1    0    0    0    0 -0.00000000000E+00 -0.00000000000E+00 -0.45593999997E+02  0.45594000000E+02  0.51100000000E-03 0. -1.
    9900012    2    1    2    0    0  0.25723485554E+02  0.34563243932E+02  0.52258132284E+01  0.47787255029E+02  0.19999926980E+02 0.  0.
         12    1    1    2    0    0 -0.25723485554E+02 -0.34563243932E+02 -0.52258132284E+01  0.43400744971E+02  0.00000000000E+00 0. -1.
         11    1    3    3    0    0 -0.22401881313E+01  0.25767704955E+01 -0.24815265279E+01  0.42209197126E+01  0.51100000000E-03 0. -1.
        -11    1    3    3    0    0  0.15888821483E+02  0.14963542957E+02  0.19302100277E+01  0.21910909999E+02  0.51100000000E-03 0.  1.
         12    1    3    3    0    0  0.12074852202E+02  0.17022930479E+02  0.57771297286E+01  0.21655425318E+02  0.00000000000E+00 0. -1.
</event>
<event>
 7    1  0.2812635E-010  0.4778726E+02  0.7816164E-02  0.1312668E+00
        -11   -1    0    0    0    0  0.00000000000E+00  0.00000000000E+00  0.45593999997E+02  0.45594000000E+02  0.51100000000E-03 0.  1.
         11   -1    0    0    0    0 -0.00000000000E+00 -0.00000000000E+00 -0.45593999997E+02  0.45594000000E+02  0.51100000000E-03 0. -1.
    9900012    2    1    2    0    0  0.27938181844E+02  0.12664704858E+02  0.30703211823E+02  0.47787263023E+02  0.19999963428E+02 0.  0.
         12    1    1    2    0    0 -0.27938181844E+02 -0.12664704858E+02 -0.30703211823E+02  0.43400736977E+02  0.00000000000E+00 0. -1.
         11    1    3    3    0    0  0.14073293480E+02  0.32062261479E+01  0.32449118964E+01  0.14794151850E+02  0.51100000000E-03 0. -1.
        -11    1    3    3    0    0  0.13800947578E+02  0.64205029491E+01  0.23581799985E+02  0.28067602373E+02  0.51100000000E-03 0.  1.
         12    1    3    3    0    0  0.63940785812E-01  0.30379757606E+01  0.38764999417E+01  0.49255088006E+01  0.00000000000E+00 0. -1.
</event>
<event>
 7    1  0.2812635E-010  0.4778726E+02  0.7816164E-02  0.1312668E+00
        -11   -1    0    0    0    0  0.00000000000E+00  0.00000000000E+00  0.45593999997E+02  0.45594000000E+02  0.51100000000E-03 0. -1.
         11   -1    0    0    0    0 -0.00000000000E+00 -0.00000000000E+00 -0.45593999997E+02  0.45594000000E+02  0.51100000000E-03 0.  1.
    9900012    2    1    2    0    0 -0.32042445301E+02 -0.15924792506E+02 -0.24562307199E+02  0.47787259774E+02  0.19999948614E+02 0.  0.
         12    1    1    2    0    0  0.32042445301E+02  0.15924792506E+02  0.24562307199E+02  0.43400740226E+02  0.00000000000E+00 0. -1.
         11    1    3    3    0    0 -0.75207162410E+01  0.44592057415E+01 -0.56100614045E+01  0.10388381869E+02  0.51100000000E-03 0. -1.
        -11    1    3    3    0    0 -0.39937660708E+01 -0.17529433205E+01 -0.39159554780E+01  0.58615429095E+01  0.51100000000E-03 0.  1.
         12    1    3    3    0    0 -0.20527962989E+02 -0.18631054927E+02 -0.15036290316E+02  0.31537334996E+02  0.00000000000E+00 0. -1.
</event>
<event>
 7    1  0.2812635E-010  0.4778727E+02  0.7816164E-02  0.1312668E+00
        -11   -1    0    0    0    0  0.00000000000E+00  0.00000000000E+00  0.45593999997E+02  0.45594000000E+02  0.51100000000E-03 0. -1.
         11   -1    0    0    0    0 -0.00000000000E+00 -0.00000000000E+00 -0.45593999997E+02  0.45594000000E+02  0.51100000000E-03 0.  1.
    9900012    2    1    2    0    0  0.19955329021E+01 -0.18785270516E+02 -0.39073706899E+02  0.47787272924E+02  0.20000008568E+02 0.  0.
         12    1    1    2    0    0 -0.19955329021E+01  0.18785270516E+02  0.39073706899E+02  0.43400727076E+02  0.00000000000E+00 0. -1.
         11    1    3    3    0    0 -0.34535149545E+01 -0.12712734045E+02 -0.15388310649E+02  0.20256862475E+02  0.51100000000E-03 0. -1.
        -11    1    3    3    0    0  0.11117889670E+01  0.33805845951E+01 -0.73287931401E+01  0.81471244046E+01  0.51100000000E-03 0.  1.
        -12    1    3    3    0    0  0.43372588897E+01 -0.94531210666E+01 -0.16356603110E+02  0.19383286044E+02  0.00000000000E+00 0.  1.
</event>
<event>
 7    1  0.2812635E-010  0.4778726E+02  0.7816164E-02  0.1312668E+00
        -11   -1    0    0    0    0  0.00000000000E+00  0.00000000000E+00  0.45593999997E+02  0.45594000000E+02  0.51100000000E-03 0. -1.
         11   -1    0    0    0    0 -0.00000000000E+00 -0.00000000000E+00 -0.45593999997E+02  0.45594000000E+02  0.51100000000E-03 0.  1.
    9900012    2    1    2    0    0  0.38837119247E+02 -0.71465796009E+01 -0.18006354558E+02  0.47787259961E+02  0.19999949468E+02 0.  0.
         12    1    1    2    0    0 -0.38837119247E+02  0.71465796009E+01  0.18006354558E+02  0.43400740039E+02  0.00000000000E+00 0. -1.
         11    1    3    3    0    0  0.19597878234E+01 -0.62003841668E+01 -0.23501878265E+01  0.69143991214E+01  0.51100000000E-03 0. -1.
        -11    1    3    3    0    0  0.11612041026E+02  0.32018392279E+01 -0.64568106491E+01  0.13666809256E+02  0.51100000000E-03 0.  1.
         12    1    3    3    0    0  0.25265290398E+02 -0.41480346620E+01 -0.91993560824E+01  0.27206051584E+02  0.00000000000E+00 0. -1.
</event>
<event>
 7    1  0.2812635E-010  0.4778727E+02  0.7816164E-02  0.1312668E+00
        -11   -1    0    0    0    0  0.00000000000E+00  0.00000000000E+00  0.45593999997E+02  0.45594000000E+02  0.51100000000E-03 0. -1.
         11   -1    0    0    0    0 -0.00000000000E+00 -0.00000000000E+00 -0.45593999997E+02  0.45594000000E+02  0.51100000000E-03 0.  1.
    9900012    2    1    2    0    0  0.95032499988E+01 -0.34395641888E+02 -0.24703263949E+02  0.47787271997E+02  0.20000004344E+02 0.  0.
         12    1    1    2    0    0 -0.95032499988E+01  0.34395641888E+02  0.24703263949E+02  0.43400728003E+02  0.00000000000E+00 0. -1.
         11    1    3    3    0    0  0.53964374926E+01 -0.15376574940E+02 -0.26844998746E+01  0.16515663303E+02  0.51100000000E-03 0. -1.
        -11    1    3    3    0    0  0.71360408553E+01 -0.15829778689E+02 -0.19832318839E+02  0.26359549375E+02  0.51100000000E-03 0.  1.
         12    1    3    3    0    0 -0.30292283492E+01 -0.31892882589E+01 -0.21864452351E+01  0.49120593193E+01  0.00000000000E+00 0. -1.
</event>
<event>
 7    1  0.2812635E-010  0.4778728E+02  0.7816164E-02  0.1312668E+00
        -11   -1    0    0    0    0  0.00000000000E+00  0.00000000000E+00  0.45593999997E+02  0.45594000000E+02  0.51100000000E-03 0. -1.
         11   -1    0    0    0    0 -0.00000000000E+00 -0.00000000000E+00 -0.45593999997E+02  0.45594000000E+02  0.51100000000E-03 0.  1.
    9900012    2    1    2    0    0 -0.27620417273E+02 -0.10297042524E+02  0.31854443276E+02  0.47787284666E+02  0.20000062104E+02 0.  0.
         12    1    1    2    0    0  0.27620417273E+02  0.10297042524E+02 -0.31854443276E+02  0.43400715334E+02  0.00000000000E+00 0. -1.
         11    1    3    3    0    0 -0.58552026679E+01 -0.71108242888E+01  0.11735758549E+02  0.14918956040E+02  0.51100000000E-03 0. -1.
        -11    1    3    3    0    0 -0.11963140416E+02  0.45135287632E+01  0.14075509578E+02  0.19016010114E+02  0.51100000000E-03 0.  1.
        -12    1    3    3    0    0 -0.98020741892E+01 -0.76997469982E+01  0.60431751487E+01  0.13852318511E+02  0.00000000000E+00 0.  1.
</event>
<event>
 7    1  0.2812635E-010  0.4778727E+02  0.7816164E-02  0.1312668E+00
        -11   -1    0    0    0    0  0.00000000000E+00  0.00000000000E+00  0.45593999997E+02  0.45594000000E+02  0.51100000000E-03 0.  1.
         11   -1    0    0    0    0 -0.00000000000E+00 -0.00000000000E+00 -0.45593999997E+02  0.45594000000E+02  0.51100000000E-03 0. -1.
    9900012    2    1    2    0    0  0.57028626424E+01 -0.13027901246E+02  0.41004567000E+02  0.47787269959E+02  0.19999995053E+02 0.  0.
         12    1    1    2    0    0 -0.57028626424E+01  0.13027901246E+02 -0.41004567000E+02  0.43400730041E+02  0.00000000000E+00 0. -1.
         11    1    3    3    0    0 -0.57643574797E+01 -0.19536013253E+01  0.20350144513E+02  0.21240827602E+02  0.51100000000E-03 0. -1.
        -11    1    3    3    0    0  0.76177203841E+01 -0.87336321990E+01  0.11413248126E+02  0.16265553427E+02  0.51100000000E-03 0.  1.
         12    1    3    3    0    0  0.38494997379E+01 -0.23406677213E+01  0.92411743611E+01  0.10280888930E+02  0.00000000000E+00 0. -1.
</event>
<event>
 7    1  0.2812635E-010  0.4778727E+02  0.7816164E-02  0.1312668E+00
        -11   -1    0    0    0    0  0.00000000000E+00  0.00000000000E+00  0.45593999997E+02  0.45594000000E+02  0.51100000000E-03 0.  1.
         11   -1    0    0    0    0 -0.00000000000E+00 -0.00000000000E+00 -0.45593999997E+02  0.45594000000E+02  0.51100000000E-03 0. -1.
    9900012    2    1    2    0    0  0.26377227087E+02  0.34405064899E+02  0.20387333799E+01  0.47787273816E+02  0.20000012636E+02 0.  0.
         12    1    1    2    0    0 -0.26377227087E+02 -0.34405064899E+02 -0.20387333799E+01  0.43400726184E+02  0.00000000000E+00 0. -1.
         11    1    3    3    0    0  0.79640715878E+01  0.17823797876E+02 -0.71753585376E+01  0.20799037895E+02  0.51100000000E-03 0. -1.
        -11    1    3    3    0    0  0.16409599342E+02  0.16219987311E+02  0.73167854028E+01  0.24205335937E+02  0.51100000000E-03 0.  1.
         12    1    3    3    0    0  0.20035561575E+01  0.36127971217E+00  0.18973065147E+01  0.27828999834E+01  0.00000000000E+00 0. -1.
</event>
<event>
 7    1  0.2812635E-010  0.4778729E+02  0.7816164E-02  0.1312668E+00
        -11   -1    0    0    0    0  0.00000000000E+00  0.00000000000E+00  0.45593999997E+02  0.45594000000E+02  0.51100000000E-03 0. -1.
         11   -1    0    0    0    0 -0.00000000000E+00 -0.00000000000E+00 -0.45593999997E+02  0.45594000000E+02  0.51100000000E-03 0.  1.
    9900012    2    1    2    0    0  0.40878984034E+02  0.13153408210E+02  0.62863598711E+01  0.47787287983E+02  0.20000077229E+02 0.  0.
         12    1    1    2    0    0 -0.40878984034E+02 -0.13153408210E+02 -0.62863598711E+01  0.43400712017E+02  0.00000000000E+00 0. -1.
         11    1    3    3    0    0 -0.72148204524E+00  0.47074973736E+00  0.31045058727E+01  0.32218160456E+01  0.51100000000E-03 0. -1.
        -11    1    3    3    0    0  0.35814990357E+02  0.82043158890E+01  0.48502285603E+01  0.37061422677E+02  0.51100000000E-03 0.  1.
        -12    1    3    3    0    0  0.57854757222E+01  0.44783425835E+01 -0.16683745619E+01  0.75040492606E+01  0.00000000000E+00 0.  1.
</event>
<event>
 7    1  0.2812635E-010  0.4778728E+02  0.7816164E-02  0.1312668E+00
        -11   -1    0    0    0    0  0.00000000000E+00  0.00000000000E+00  0.45593999997E+02  0.45594000000E+02  0.51100000000E-03 0.  1.
         11   -1    0    0    0    0 -0.00000000000E+00 -0.00000000000E+00 -0.45593999997E+02  0.45594000000E+02  0.51100000000E-03 0. -1.
    9900012    2    1    2    0    0  0.77858948553E+01  0.25379211647E+02  0.34335085974E+02  0.47787277985E+02  0.20000031646E+02 0.  0.
         12    1    1    2    0    0 -0.77858948553E+01 -0.25379211647E+02 -0.34335085974E+02  0.43400722015E+02  0.00000000000E+00 0. -1.
         11    1    3    3    0    0  0.49355914636E+01  0.52494852841E+01  0.73708251571E+00  0.72429586316E+01  0.51100000000E-03 0. -1.
        -11    1    3    3    0    0 -0.12027376614E+01  0.17188970135E+02  0.29070486504E+02  0.33793497275E+02  0.51100000000E-03 0.  1.
        -12    1    3    3    0    0  0.40530410531E+01  0.29407562277E+01  0.45275169545E+01  0.67508220790E+01  0.00000000000E+00 0.  1.
</event>
<event>
 7    1  0.2812635E-010  0.4778727E+02  0.7816164E-02  0.1312668E+00
        -11   -1    0    0    0    0  0.00000000000E+00  0.00000000000E+00  0.45593999997E+02  0.45594000000E+02  0.51100000000E-03 0.  1.
         11   -1    0    0    0    0 -0.00000000000E+00 -0.00000000000E+00 -0.45593999997E+02  0.45594000000E+02  0.51100000000E-03 0. -1.
    9900012    2    1    2    0    0 -0.28249934043E+02  0.30446501596E+02  0.12592656881E+02  0.47787271433E+02  0.20000001770E+02 0.  0.
         12    1    1    2    0    0  0.28249934043E+02 -0.30446501596E+02 -0.12592656881E+02  0.43400728567E+02  0.00000000000E+00 0. -1.
         11    1    3    3    0    0 -0.27929057917E+02  0.32193235177E+02  0.11546070098E+02  0.44155955457E+02  0.51100000000E-03 0.  1.
        -11    1    3    3    0    0 -0.78563899443E+00 -0.10229365156E+01 -0.85278919597E+00  0.15462462347E+01  0.51100000000E-03 0. -1.
        -12    1    3    3    0    0  0.46476286859E+00 -0.72379706592E+00  0.18993759790E+01  0.20850697413E+01  0.00000000000E+00 0.  1.
</event>
<event>
 7    1  0.2812635E-010  0.4778725E+02  0.7816164E-02  0.1312668E+00
        -11   -1    0    0    0    0  0.00000000000E+00  0.00000000000E+00  0.45593999997E+02  0.45594000000E+02  0.51100000000E-03 0.  1.
         11   -1    0    0    0    0 -0.00000000000E+00 -0.00000000000E+00 -0.45593999997E+02  0.45594000000E+02  0.51100000000E-03 0. -1.
    9900012    2    1    2    0    0 -0.17475539930E+02 -0.31663062236E+02  0.23993351577E+02  0.47787252013E+02  0.19999913226E+02 0.  0.
         12    1    1    2    0    0  0.17475539930E+02  0.31663062236E+02 -0.23993351577E+02  0.43400747987E+02  0.00000000000E+00 0. -1.
         11    1    3    3    0    0 -0.11326763938E+02 -0.68372787001E+01  0.11420231941E+01  0.13279615151E+02  0.51100000000E-03 0. -1.
        -11    1    3    3    0    0 -0.35193298729E+01 -0.15092392645E+02  0.11327253390E+02  0.19195641905E+02  0.51100000000E-03 0.  1.
         12    1    3    3    0    0 -0.26294461193E+01 -0.97333908906E+01  0.11524074992E+02  0.15311994957E+02  0.00000000000E+00 0. -1.
</event>
<event>
 7    1  0.2812635E-010  0.4778727E+02  0.7816164E-02  0.1312668E+00
        -11   -1    0    0    0    0  0.00000000000E+00  0.00000000000E+00  0.45593999997E+02  0.45594000000E+02  0.51100000000E-03 0. -1.
         11   -1    0    0    0    0 -0.00000000000E+00 -0.00000000000E+00 -0.45593999997E+02  0.45594000000E+02  0.51100000000E-03 0.  1.
    9900012    2    1    2    0    0 -0.10771197624E+02  0.41964144408E+02 -0.25719834082E+01  0.47787271748E+02  0.20000003209E+02 0.  0.
         12    1    1    2    0    0  0.10771197624E+02 -0.41964144408E+02  0.25719834082E+01  0.43400728252E+02  0.00000000000E+00 0. -1.
         11    1    3    3    0    0  0.26910566527E+01  0.19179160401E+02  0.46274449678E-01  0.19367088609E+02  0.51100000000E-03 0. -1.
        -11    1    3    3    0    0 -0.34891959767E+01  0.39152560613E+01 -0.46123880105E+01  0.69841135451E+01  0.51100000000E-03 0.  1.
         12    1    3    3    0    0 -0.99730582997E+01  0.18869727946E+02  0.19941301526E+01  0.21436069594E+02  0.00000000000E+00 0. -1.
</event>
<event>
 7    1  0.2812635E-010  0.4778728E+02  0.7816164E-02  0.1312668E+00
        -11   -1    0    0    0    0  0.00000000000E+00  0.00000000000E+00  0.45593999997E+02  0.45594000000E+02  0.51100000000E-03 0.  1.
         11   -1    0    0    0    0 -0.00000000000E+00 -0.00000000000E+00 -0.45593999997E+02  0.45594000000E+02  0.51100000000E-03 0. -1.
    9900012    2    1    2    0    0 -0.88865148669E+01  0.10496181650E+02  0.41164095490E+02  0.47787277273E+02  0.20000028397E+02 0.  0.
         12    1    1    2    0    0  0.88865148669E+01 -0.10496181650E+02 -0.41164095490E+02  0.43400722727E+02  0.00000000000E+00 0. -1.
         11    1    3    3    0    0 -0.94593993329E+01  0.92652460141E+01  0.11378033710E+02  0.17458083251E+02  0.51100000000E-03 0. -1.
        -11    1    3    3    0    0  0.19059427958E+01  0.29659031910E+01  0.18592522073E+02  0.18923823001E+02  0.51100000000E-03 0.  1.
         12    1    3    3    0    0 -0.13330583298E+01 -0.17349675549E+01  0.11193539708E+02  0.11405371021E+02  0.00000000000E+00 0. -1.
</event>
<event>
 7    1  0.2812635E-010  0.4778727E+02  0.7816164E-02  0.1312668E+00
        -11   -1    0    0    0    0  0.00000000000E+00  0.00000000000E+00  0.45593999997E+02  0.45594000000E+02  0.51100000000E-03 0.  1.
         11   -1    0    0    0    0 -0.00000000000E+00 -0.00000000000E+00 -0.45593999997E+02  0.45594000000E+02  0.51100000000E-03 0. -1.
    9900012    2    1    2    0    0 -0.79214602037E+01  0.22362585695E+02  0.36342654264E+02  0.47787270862E+02  0.19999999168E+02 0.  0.
         12    1    1    2    0    0  0.79214602037E+01 -0.22362585695E+02 -0.36342654264E+02  0.43400729138E+02  0.00000000000E+00 0. -1.
         11    1    3    3    0    0  0.34583712273E+01  0.71228554363E+00  0.13180204894E+02  0.13644980160E+02  0.51100000000E-03 0. -1.
        -11    1    3    3    0    0 -0.88859700244E+01  0.18356432944E+02  0.21649410739E+02  0.29742496185E+02  0.51100000000E-03 0.  1.
        -12    1    3    3    0    0 -0.24938614067E+01  0.32938672073E+01  0.15130386311E+01  0.43997945173E+01  0.00000000000E+00 0.  1.
</event>
<event>
 7    1  0.2812635E-010  0.4778727E+02  0.7816164E-02  0.1312668E+00
        -11   -1    0    0    0    0  0.00000000000E+00  0.00000000000E+00  0.45593999997E+02  0.45594000000E+02  0.51100000000E-03 0. -1.
         11   -1    0    0    0    0 -0.00000000000E+00 -0.00000000000E+00 -0.45593999997E+02  0.45594000000E+02  0.51100000000E-03 0.  1.
    9900012    2    1    2    0    0 -0.19044710650E+02  0.22990937819E+02 -0.31501413680E+02  0.47787270866E+02  0.19999999185E+02 0.  0.
         12    1    1    2    0    0  0.19044710650E+02 -0.22990937819E+02  0.31501413680E+02  0.43400729134E+02  0.00000000000E+00 0. -1.
         11    1    3    3    0    0 -0.16220525626E+02  0.11039639805E+02 -0.13494453807E+02  0.23813428615E+02  0.51100000000E-03 0. -1.
        -11    1    3    3    0    0  0.30596995056E+01  0.80629486793E+00 -0.44918085419E+01  0.54943804670E+01  0.51100000000E-03 0.  1.
         12    1    3    3    0    0 -0.58838845293E+01  0.11145003147E+02 -0.13515151332E+02  0.18479461784E+02  0.00000000000E+00 0. -1.
</event>
<event>
 7    1  0.2812635E-010  0.4778727E+02  0.7816164E-02  0.1312668E+00
        -11   -1    0    0    0    0  0.00000000000E+00  0.00000000000E+00  0.45593999997E+02  0.45594000000E+02  0.51100000000E-03 0.  1.
         11   -1    0    0    0    0 -0.00000000000E+00 -0.00000000000E+00 -0.45593999997E+02  0.45594000000E+02  0.51100000000E-03 0. -1.
    9900012    2    1    2    0    0  0.30240444206E+02  0.21218047601E+02  0.22780107823E+02  0.47787270488E+02  0.19999997461E+02 0.  0.
         12    1    1    2    0    0 -0.30240444206E+02 -0.21218047601E+02 -0.22780107823E+02  0.43400729512E+02  0.00000000000E+00 0. -1.
         11    1    3    3    0    0  0.37992561960E+01 -0.12666603228E+01  0.85231636467E+01  0.94171702132E+01  0.51100000000E-03 0. -1.
        -11    1    3    3    0    0  0.22230274059E+02  0.14460059845E+02  0.98126084474E+01  0.28276592798E+02  0.51100000000E-03 0.  1.
        -12    1    3    3    0    0  0.42109139505E+01  0.80246480795E+01  0.44443357291E+01  0.10093507476E+02  0.00000000000E+00 0.  1.
</event>
<event>
 7    1  0.2812635E-010  0.4778727E+02  0.7816164E-02  0.1312668E+00
        -11   -1    0    0    0    0  0.00000000000E+00  0.00000000000E+00  0.45593999997E+02  0.45594000000E+02  0.51100000000E-03 0.  1.
         11   -1    0    0    0    0 -0.00000000000E+00 -0.00000000000E+00 -0.45593999997E+02  0.45594000000E+02  0.51100000000E-03 0. -1.
    9900012    2    1    2    0    0  0.77192369079E+01  0.13071603347E+02  0.40659195475E+02  0.47787267182E+02  0.19999982389E+02 0.  0.
         12    1    1    2    0    0 -0.77192369079E+01 -0.13071603347E+02 -0.40659195475E+02  0.43400732818E+02  0.00000000000E+00 0. -1.
         11    1    3    3    0    0 -0.32382740300E+01 -0.31016625508E+00  0.74959005453E+01  0.81713613949E+01  0.51100000000E-03 0. -1.
        -11    1    3    3    0    0  0.72515774769E+01  0.27458433576E+01  0.23597603585E+02  0.24838919599E+02  0.51100000000E-03 0.  1.
        -12    1    3    3    0    0  0.37059334611E+01  0.10635926245E+02  0.95656913444E+01  0.14776986188E+02  0.00000000000E+00 0.  1.
</event>
<event>
 7    1  0.2812635E-010  0.4778723E+02  0.7816164E-02  0.1312668E+00
        -11   -1    0    0    0    0  0.00000000000E+00  0.00000000000E+00  0.45593999997E+02  0.45594000000E+02  0.51100000000E-03 0.  1.
         11   -1    0    0    0    0 -0.00000000000E+00 -0.00000000000E+00 -0.45593999997E+02  0.45594000000E+02  0.51100000000E-03 0. -1.
    9900012    2    1    2    0    0 -0.13004863225E+02 -0.41184003069E+02  0.42869912580E+01  0.47787229611E+02  0.19999811089E+02 0.  0.
         12    1    1    2    0    0  0.13004863225E+02  0.41184003069E+02 -0.42869912580E+01  0.43400770389E+02  0.00000000000E+00 0. -1.
         11    1    3    3    0    0 -0.93386673159E+01 -0.29600874893E+02 -0.51523544566E+01  0.31463776925E+02  0.51100000000E-03 0. -1.
        -11    1    3    3    0    0 -0.13116305409E+01 -0.29294975752E+01 -0.12500253894E+00  0.32121576260E+01  0.51100000000E-03 0.  1.
         12    1    3    3    0    0 -0.23545653686E+01 -0.86536306009E+01  0.95643482535E+01  0.13111295061E+02  0.00000000000E+00 0. -1.
</event>
<event>
 7    1  0.2812635E-010  0.4778728E+02  0.7816164E-02  0.1312668E+00
        -11   -1    0    0    0    0  0.00000000000E+00  0.00000000000E+00  0.45593999997E+02  0.45594000000E+02  0.51100000000E-03 0.  1.
         11   -1    0    0    0    0 -0.00000000000E+00 -0.00000000000E+00 -0.45593999997E+02  0.45594000000E+02  0.51100000000E-03 0. -1.
    9900012    2    1    2    0    0 -0.13759353777E+01  0.10246908727E+02  0.42151278319E+02  0.47787278802E+02  0.20000035369E+02 0.  0.
         12    1    1    2    0    0  0.13759353777E+01 -0.10246908727E+02 -0.42151278319E+02  0.43400721198E+02  0.00000000000E+00 0. -1.
         11    1    3    3    0    0  0.26458131994E+01 -0.42946019024E+01  0.20693284461E+02  0.21299200807E+02  0.51100000000E-03 0. -1.
        -11    1    3    3    0    0 -0.11482451772E+01  0.80555714484E+01  0.14015265654E+02  0.16206121373E+02  0.51100000000E-03 0.  1.
         12    1    3    3    0    0 -0.28735033999E+01  0.64859391814E+01  0.74427282045E+01  0.10281956622E+02  0.00000000000E+00 0. -1.
</event>
<event>
 7    1  0.2812635E-010  0.4778727E+02  0.7816164E-02  0.1312668E+00
        -11   -1    0    0    0    0  0.00000000000E+00  0.00000000000E+00  0.45593999997E+02  0.45594000000E+02  0.51100000000E-03 0.  1.
         11   -1    0    0    0    0 -0.00000000000E+00 -0.00000000000E+00 -0.45593999997E+02  0.45594000000E+02  0.51100000000E-03 0. -1.
    9900012    2    1    2    0    0 -0.35862566695E+02 -0.47574079487E+01  0.23976375624E+02  0.47787271799E+02  0.20000003439E+02 0.  0.
         12    1    1    2    0    0  0.35862566695E+02  0.47574079487E+01 -0.23976375624E+02  0.43400728201E+02  0.00000000000E+00 0. -1.
         11    1    3    3    0    0 -0.39295993681E+01 -0.40278187626E+01 -0.14857480867E+01  0.58200105512E+01  0.51100000000E-03 0. -1.
        -11    1    3    3    0    0 -0.25319034934E+02 -0.45345539235E+01  0.20029211464E+02  0.32600383762E+02  0.51100000000E-03 0.  1.
        -12    1    3    3    0    0 -0.66139323924E+01  0.38049647374E+01  0.54329122476E+01  0.93668774858E+01  0.00000000000E+00 0.  1.
</event>
<event>
 7    1  0.2812635E-010  0.4778727E+02  0.7816164E-02  0.1312668E+00
        -11   -1    0    0    0    0  0.00000000000E+00  0.00000000000E+00  0.45593999997E+02  0.45594000000E+02  0.51100000000E-03 0.  1.
         11   -1    0    0    0    0 -0.00000000000E+00 -0.00000000000E+00 -0.45593999997E+02  0.45594000000E+02  0.51100000000E-03 0. -1.
    9900012    2    1    2    0    0 -0.22724266570E+02  0.25541744239E+02  0.26736687913E+02  0.47787268779E+02  0.19999989671E+02 0.  0.
         12    1    1    2    0    0  0.22724266570E+02 -0.25541744239E+02 -0.26736687913E+02  0.43400731221E+02  0.00000000000E+00 0. -1.
         11    1    3    3    0    0 -0.37845304769E+01 -0.15645761596E+01 -0.14209901353E+01  0.43347182971E+01  0.51100000000E-03 0. -1.
        -11    1    3    3    0    0 -0.16024244378E+02  0.23732559138E+02  0.24391970453E+02  0.37616206534E+02  0.51100000000E-03 0.  1.
         12    1    3    3    0    0 -0.29154917157E+01  0.33737612608E+01  0.37657075950E+01  0.58363439480E+01  0.00000000000E+00 0. -1.
</event>
<event>
 7    1  0.2812635E-010  0.4778727E+02  0.7816164E-02  0.1312668E+00
        -11   -1    0    0    0    0  0.00000000000E+00  0.00000000000E+00  0.45593999997E+02  0.45594000000E+02  0.51100000000E-03 0. -1.
         11   -1    0    0    0    0 -0.00000000000E+00 -0.00000000000E+00 -0.45593999997E+02  0.45594000000E+02  0.51100000000E-03 0.  1.
    9900012    2    1    2    0    0 -0.31386270828E+02 -0.22384592191E+02 -0.19936285228E+02  0.47787269214E+02  0.19999991655E+02 0.  0.
         12    1    1    2    0    0  0.31386270828E+02  0.22384592191E+02  0.19936285228E+02  0.43400730786E+02  0.00000000000E+00 0. -1.
         11    1    3    3    0    0 -0.14136700614E+02  0.29215169567E+00 -0.61078314420E+01  0.15402508304E+02  0.51100000000E-03 0. -1.
        -11    1    3    3    0    0 -0.59242604763E+01 -0.13371593573E+02 -0.67734044786E+01  0.16117548987E+02  0.51100000000E-03 0.  1.
        -12    1    3    3    0    0 -0.11325309738E+02 -0.93051503140E+01 -0.70550493072E+01  0.16267211923E+02  0.00000000000E+00 0.  1.
</event>
<event>
 7    1  0.2812635E-010  0.4778727E+02  0.7816164E-02  0.1312668E+00
        -11   -1    0    0    0    0  0.00000000000E+00  0.00000000000E+00  0.45593999997E+02  0.45594000000E+02  0.51100000000E-03 0. -1.
         11   -1    0    0    0    0 -0.00000000000E+00 -0.00000000000E+00 -0.45593999997E+02  0.45594000000E+02  0.51100000000E-03 0.  1.
    9900012    2    1    2    0    0 -0.14430300367E+01 -0.16667535406E+02 -0.40046651669E+02  0.47787269797E+02  0.19999994315E+02 0.  0.
         12    1    1    2    0    0  0.14430300367E+01  0.16667535406E+02  0.40046651669E+02  0.43400730203E+02  0.00000000000E+00 0. -1.
         11    1    3    3    0    0  0.13711548662E+01  0.25099301485E+01 -0.15693658803E+02  0.15952139101E+02  0.51100000000E-03 0. -1.
        -11    1    3    3    0    0 -0.38727847193E+01 -0.10757142376E+02 -0.10143053580E+02  0.15283851274E+02  0.51100000000E-03 0.  1.
         12    1    3    3    0    0  0.10585998163E+01 -0.84203231786E+01 -0.14209939286E+02  0.16551279423E+02  0.00000000000E+00 0. -1.
</event>
<event>
 7    1  0.2812635E-010  0.4778727E+02  0.7816164E-02  0.1312668E+00
        -11   -1    0    0    0    0  0.00000000000E+00  0.00000000000E+00  0.45593999997E+02  0.45594000000E+02  0.51100000000E-03 0.  1.
         11   -1    0    0    0    0 -0.00000000000E+00 -0.00000000000E+00 -0.45593999997E+02  0.45594000000E+02  0.51100000000E-03 0. -1.
    9900012    2    1    2    0    0 -0.19333382716E+01  0.42761461579E+02 -0.71654156513E+01  0.47787267578E+02  0.19999984197E+02 0.  0.
         12    1    1    2    0    0  0.19333382716E+01 -0.42761461579E+02  0.71654156513E+01  0.43400732422E+02  0.00000000000E+00 0. -1.
         11    1    3    3    0    0  0.61390301541E+01  0.71917323709E+01 -0.49712682524E+01  0.10682799915E+02  0.51100000000E-03 0. -1.
        -11    1    3    3    0    0 -0.85117712876E+01  0.26455748667E+02 -0.29564087121E+01  0.27948116944E+02  0.51100000000E-03 0.  1.
         12    1    3    3    0    0  0.43940286185E+00  0.91139805417E+01  0.76226131326E+00  0.91563507195E+01  0.00000000000E+00 0. -1.
</event>
<event>
 7    1  0.2812635E-010  0.4778727E+02  0.7816164E-02  0.1312668E+00
        -11   -1    0    0    0    0  0.00000000000E+00  0.00000000000E+00  0.45593999997E+02  0.45594000000E+02  0.51100000000E-03 0.  1.
         11   -1    0    0    0    0 -0.00000000000E+00 -0.00000000000E+00 -0.45593999997E+02  0.45594000000E+02  0.51100000000E-03 0. -1.
    9900012    2    1    2    0    0 -0.93451127646E+01  0.29377974402E+02  0.30548761886E+02  0.47787269991E+02  0.19999995198E+02 0.  0.
         12    1    1    2    0    0  0.93451127646E+01 -0.29377974402E+02 -0.30548761886E+02  0.43400730009E+02  0.00000000000E+00 0. -1.
         11    1    3    3    0    0 -0.39105473948E+01  0.13620109216E+02  0.14431271772E+01  0.14243678327E+02  0.51100000000E-03 0. -1.
        -11    1    3    3    0    0 -0.34400248756E+01  0.10565699280E+02  0.19253290545E+02  0.22229641686E+02  0.51100000000E-03 0.  1.
         12    1    3    3    0    0 -0.19945404942E+01  0.51921659057E+01  0.98523441642E+01  0.11313949978E+02  0.00000000000E+00 0. -1.
</event>
<event>
 7    1  0.2812635E-010  0.4778727E+02  0.7816164E-02  0.1312668E+00
        -11   -1    0    0    0    0  0.00000000000E+00  0.00000000000E+00  0.45593999997E+02  0.45594000000E+02  0.51100000000E-03 0.  1.
         11   -1    0    0    0    0 -0.00000000000E+00 -0.00000000000E+00 -0.45593999997E+02  0.45594000000E+02  0.51100000000E-03 0. -1.
    9900012    2    1    2    0    0 -0.35532698599E+02 -0.24757798901E+02 -0.28464679751E+01  0.47787266641E+02  0.19999979923E+02 0.  0.
         12    1    1    2    0    0  0.35532698599E+02  0.24757798901E+02  0.28464679751E+01  0.43400733359E+02  0.00000000000E+00 0. -1.
         11    1    3    3    0    0 -0.28280984557E+02 -0.95112677776E+01 -0.20037075037E+01  0.29904734512E+02  0.51100000000E-03 0. -1.
        -11    1    3    3    0    0 -0.83682264956E+00 -0.84722511915E+01  0.15839249639E-01  0.85134930283E+01  0.51100000000E-03 0.  1.
         12    1    3    3    0    0 -0.64148913929E+01 -0.67742799321E+01 -0.85859972109E+00  0.93690391003E+01  0.00000000000E+00 0. -1.
</event>
<event>
 7    1  0.2812635E-010  0.4778727E+02  0.7816164E-02  0.1312668E+00
        -11   -1    0    0    0    0  0.00000000000E+00  0.00000000000E+00  0.45593999997E+02  0.45594000000E+02  0.51100000000E-03 0. -1.
         11   -1    0    0    0    0 -0.00000000000E+00 -0.00000000000E+00 -0.45593999997E+02  0.45594000000E+02  0.51100000000E-03 0.  1.
    9900012    2    1    2    0    0  0.40509551930E+02  0.68321173176E+01  0.13997199547E+02  0.47787271668E+02  0.20000002842E+02 0.  0.
         12    1    1    2    0    0 -0.40509551930E+02 -0.68321173176E+01 -0.13997199547E+02  0.43400728332E+02  0.00000000000E+00 0. -1.
         11    1    3    3    0    0  0.31652990438E+02  0.10568836473E+02  0.87061316093E+01  0.34487807062E+02  0.51100000000E-03 0. -1.
        -11    1    3    3    0    0  0.10192461676E+02 -0.34862011430E+01  0.51281763623E+01  0.11930551810E+02  0.51100000000E-03 0.  1.
         12    1    3    3    0    0 -0.13359001843E+01 -0.25051801234E+00  0.16289157544E+00  0.13689127957E+01  0.00000000000E+00 0. -1.
</event>
<event>
 7    1  0.2812635E-010  0.4778728E+02  0.7816164E-02  0.1312668E+00
        -11   -1    0    0    0    0  0.00000000000E+00  0.00000000000E+00  0.45593999997E+02  0.45594000000E+02  0.51100000000E-03 0.  1.
         11   -1    0    0    0    0 -0.00000000000E+00 -0.00000000000E+00 -0.45593999997E+02  0.45594000000E+02  0.51100000000E-03 0. -1.
    9900012    2    1    2    0    0  0.37001039769E+01 -0.37423462965E+02  0.21666023507E+02  0.47787275071E+02  0.20000018361E+02 0.  0.
         12    1    1    2    0    0 -0.37001039769E+01  0.37423462965E+02 -0.21666023507E+02  0.43400724929E+02  0.00000000000E+00 0. -1.
         11    1    3    3    0    0  0.28785324693E+01 -0.21806355232E+01 -0.18354883827E+01  0.40509428935E+01  0.51100000000E-03 0. -1.
        -11    1    3    3    0    0 -0.22901227356E+00 -0.23715699072E+02  0.21456202402E+02  0.31982111420E+02  0.51100000000E-03 0.  1.
         12    1    3    3    0    0  0.10505837812E+01 -0.11527128369E+02  0.20453094873E+01  0.11754220758E+02  0.00000000000E+00 0. -1.
</event>
<event>
 7    1  0.2812635E-010  0.4778727E+02  0.7816164E-02  0.1312668E+00
        -11   -1    0    0    0    0  0.00000000000E+00  0.00000000000E+00  0.45593999997E+02  0.45594000000E+02  0.51100000000E-03 0.  1.
         11   -1    0    0    0    0 -0.00000000000E+00 -0.00000000000E+00 -0.45593999997E+02  0.45594000000E+02  0.51100000000E-03 0. -1.
    9900012    2    1    2    0    0  0.14549404275E+02  0.17021683833E+02  0.37177953443E+02  0.47787272961E+02  0.20000008739E+02 0.  0.
         12    1    1    2    0    0 -0.14549404275E+02 -0.17021683833E+02 -0.37177953443E+02  0.43400727039E+02  0.00000000000E+00 0. -1.
         11    1    3    3    0    0  0.25082696338E+01  0.98351578574E+00 -0.18922316810E+00  0.27008379302E+01  0.51100000000E-03 0. -1.
        -11    1    3    3    0    0  0.11854714901E+02  0.16221525639E+02  0.22296271664E+02  0.30013261899E+02  0.51100000000E-03 0.  1.
        -12    1    3    3    0    0  0.18641974063E+00 -0.18335759263E+00  0.15070904948E+02  0.15073173132E+02  0.00000000000E+00 0.  1.
</event>
<event>
 7    1  0.2812635E-010  0.4778727E+02  0.7816164E-02  0.1312668E+00
        -11   -1    0    0    0    0  0.00000000000E+00  0.00000000000E+00  0.45593999997E+02  0.45594000000E+02  0.51100000000E-03 0.  1.
         11   -1    0    0    0    0 -0.00000000000E+00 -0.00000000000E+00 -0.45593999997E+02  0.45594000000E+02  0.51100000000E-03 0. -1.
    9900012    2    1    2    0    0 -0.16136524047E+02 -0.17979129320E+02  0.36055332270E+02  0.47787268618E+02  0.19999988937E+02 0.  0.
         12    1    1    2    0    0  0.16136524047E+02  0.17979129320E+02 -0.36055332270E+02  0.43400731382E+02  0.00000000000E+00 0. -1.
         11    1    3    3    0    0 -0.80869835861E+01 -0.17096838489E+02  0.28628728075E+02  0.34311882217E+02  0.51100000000E-03 0. -1.
        -11    1    3    3    0    0 -0.31526137438E+01  0.34664277826E+01  0.28265825150E+01  0.54721717777E+01  0.51100000000E-03 0.  1.
         12    1    3    3    0    0 -0.48969267166E+01 -0.43487186133E+01  0.46000216799E+01  0.80032146229E+01  0.00000000000E+00 0. -1.
</event>
<event>
 7    1  0.2812635E-010  0.4778727E+02  0.7816164E-02  0.1312668E+00
        -11   -1    0    0    0    0  0.00000000000E+00  0.00000000000E+00  0.45593999997E+02  0.45594000000E+02  0.51100000000E-03 0.  1.
         11   -1    0    0    0    0 -0.00000000000E+00 -0.00000000000E+00 -0.45593999997E+02  0.45594000000E+02  0.51100000000E-03 0. -1.
    9900012    2    1    2    0    0 -0.27443798196E+02  0.26075894230E+02  0.21225196199E+02  0.47787271055E+02  0.20000000048E+02 0.  0.
         12    1    1    2    0    0  0.27443798196E+02 -0.26075894230E+02 -0.21225196199E+02  0.43400728945E+02  0.00000000000E+00 0. -1.
         11    1    3    3    0    0 -0.56423340701E+01  0.71636012565E+01 -0.31469039411E+01  0.96465600810E+01  0.51100000000E-03 0. -1.
        -11    1    3    3    0    0 -0.71094657166E+01  0.69215288638E+01  0.11659292654E+02  0.15309838994E+02  0.51100000000E-03 0.  1.
         12    1    3    3    0    0 -0.14691998409E+02  0.11990764109E+02  0.12712807486E+02  0.22830871980E+02  0.00000000000E+00 0. -1.
</event>
<event>
 7    1  0.2812635E-010  0.4778726E+02  0.7816164E-02  0.1312668E+00
        -11   -1    0    0    0    0  0.00000000000E+00  0.00000000000E+00  0.45593999997E+02  0.45594000000E+02  0.51100000000E-03 0.  1.
         11   -1    0    0    0    0 -0.00000000000E+00 -0.00000000000E+00 -0.45593999997E+02  0.45594000000E+02  0.51100000000E-03 0. -1.
    9900012    2    1    2    0    0  0.25871964107E+02 -0.10208332802E+02  0.33317492398E+02  0.47787264003E+02  0.19999967897E+02 0.  0.
         12    1    1    2    0    0 -0.25871964107E+02  0.10208332802E+02 -0.33317492398E+02  0.43400735997E+02  0.00000000000E+00 0. -1.
         11    1    3    3    0    0  0.65854517989E+01  0.57354200919E+01  0.12052468137E+02  0.14883722904E+02  0.51100000000E-03 0. -1.
        -11    1    3    3    0    0  0.90854356465E+01 -0.87102602549E+01  0.11270799623E+02  0.16895108730E+02  0.51100000000E-03 0.  1.
         12    1    3    3    0    0  0.10201076662E+02 -0.72334926388E+01  0.99942246379E+01  0.16008432369E+02  0.00000000000E+00 0. -1.
</event>
<event>
 7    1  0.2812635E-010  0.4778727E+02  0.7816164E-02  0.1312668E+00
        -11   -1    0    0    0    0  0.00000000000E+00  0.00000000000E+00  0.45593999997E+02  0.45594000000E+02  0.51100000000E-03 0. -1.
         11   -1    0    0    0    0 -0.00000000000E+00 -0.00000000000E+00 -0.45593999997E+02  0.45594000000E+02  0.51100000000E-03 0.  1.
    9900012    2    1    2    0    0  0.23774186451E+01 -0.71266007214E+01 -0.42745557062E+02  0.47787271829E+02  0.20000003575E+02 0.  0.
         12    1    1    2    0    0 -0.23774186451E+01  0.71266007214E+01  0.42745557062E+02  0.43400728171E+02  0.00000000000E+00 0. -1.
         11    1    3    3    0    0 -0.35262852078E+01 -0.52475727166E+01 -0.14513967939E+02  0.15831202493E+02  0.51100000000E-03 0. -1.
        -11    1    3    3    0    0  0.52202777345E+01  0.54773933695E+01 -0.15057285654E+02  0.16851557474E+02  0.51100000000E-03 0.  1.
        -12    1    3    3    0    0  0.68342611842E+00 -0.73564213742E+01 -0.13174303469E+02  0.15104511862E+02  0.00000000000E+00 0.  1.
</event>
<event>
 7    1  0.2812635E-010  0.4778727E+02  0.7816164E-02  0.1312668E+00
        -11   -1    0    0    0    0  0.00000000000E+00  0.00000000000E+00  0.45593999997E+02  0.45594000000E+02  0.51100000000E-03 0.  1.
         11   -1    0    0    0    0 -0.00000000000E+00 -0.00000000000E+00 -0.45593999997E+02  0.45594000000E+02  0.51100000000E-03 0. -1.
    9900012    2    1    2    0    0  0.11524495185E+02  0.39580691902E+02  0.13571221481E+02  0.47787271744E+02  0.20000003189E+02 0.  0.
         12    1    1    2    0    0 -0.11524495185E+02 -0.39580691902E+02 -0.13571221481E+02  0.43400728256E+02  0.00000000000E+00 0. -1.
         11    1    3    3    0    0  0.11145641323E+02  0.11252962720E+02  0.53578613433E+01  0.16720082802E+02  0.51100000000E-03 0. -1.
        -11    1    3    3    0    0  0.14830678309E+01  0.18262929148E+02  0.98622666080E+01  0.20808612981E+02  0.51100000000E-03 0.  1.
         12    1    3    3    0    0 -0.11042139685E+01  0.10064800034E+02 -0.16489064705E+01  0.10258575962E+02  0.00000000000E+00 0. -1.
</event>
<event>
 7    1  0.2812635E-010  0.4778727E+02  0.7816164E-02  0.1312668E+00
        -11   -1    0    0    0    0  0.00000000000E+00  0.00000000000E+00  0.45593999997E+02  0.45594000000E+02  0.51100000000E-03 0.  1.
         11   -1    0    0    0    0 -0.00000000000E+00 -0.00000000000E+00 -0.45593999997E+02  0.45594000000E+02  0.51100000000E-03 0. -1.
    9900012    2    1    2    0    0 -0.45820490806E+01  0.43012354532E+02 -0.35448003483E+01  0.47787269296E+02  0.19999992028E+02 0.  0.
         12    1    1    2    0    0  0.45820490806E+01 -0.43012354532E+02  0.35448003483E+01  0.43400730704E+02  0.00000000000E+00 0. -1.
         11    1    3    3    0    0  0.19119795410E+01  0.16645697147E+01  0.16342141810E+01  0.30161422962E+01  0.51100000000E-03 0. -1.
        -11    1    3    3    0    0 -0.62399658862E+01  0.39732724969E+02 -0.84650002507E+01  0.41100886088E+02  0.51100000000E-03 0.  1.
        -12    1    3    3    0    0 -0.25406273538E+00  0.16150598476E+01  0.32859857214E+01  0.36702409112E+01  0.00000000000E+00 0.  1.
</event>
<event>
 7    1  0.2812635E-010  0.4778728E+02  0.7816164E-02  0.1312668E+00
        -11   -1    0    0    0    0  0.00000000000E+00  0.00000000000E+00  0.45593999997E+02  0.45594000000E+02  0.51100000000E-03 0.  1.
         11   -1    0    0    0    0 -0.00000000000E+00 -0.00000000000E+00 -0.45593999997E+02  0.45594000000E+02  0.51100000000E-03 0. -1.
    9900012    2    1    2    0    0 -0.14556315436E+02 -0.40802053935E+02  0.26322722412E+01  0.47787276717E+02  0.20000025862E+02 0.  0.
         12    1    1    2    0    0  0.14556315436E+02  0.40802053935E+02 -0.26322722412E+01  0.43400723283E+02  0.00000000000E+00 0. -1.
         11    1    3    3    0    0  0.39085093291E+01 -0.10402230650E+02  0.18258112544E+01  0.11261280330E+02  0.51100000000E-03 0. -1.
        -11    1    3    3    0    0 -0.15953395576E+02 -0.29131602421E+02  0.23859801143E+01  0.33299459325E+02  0.51100000000E-03 0.  1.
         12    1    3    3    0    0 -0.25114291897E+01 -0.12682208643E+01 -0.15795191275E+01  0.32265370615E+01  0.00000000000E+00 0. -1.
</event>
<event>
 7    1  0.2812635E-010  0.4778727E+02  0.7816164E-02  0.1312668E+00
        -11   -1    0    0    0    0  0.00000000000E+00  0.00000000000E+00  0.45593999997E+02  0.45594000000E+02  0.51100000000E-03 0.  1.
         11   -1    0    0    0    0 -0.00000000000E+00 -0.00000000000E+00 -0.45593999997E+02  0.45594000000E+02  0.51100000000E-03 0. -1.
    9900012    2    1    2    0    0 -0.15995956601E+02 -0.94532246985E+01  0.39222303427E+02  0.47787272230E+02  0.20000005408E+02 0.  0.
         12    1    1    2    0    0  0.15995956601E+02  0.94532246985E+01 -0.39222303427E+02  0.43400727770E+02  0.00000000000E+00 0. -1.
         11    1    3    3    0    0 -0.40956197868E+01 -0.68964810983E+01  0.28127494903E+01  0.84998301709E+01  0.51100000000E-03 0. -1.
        -11    1    3    3    0    0 -0.44153349940E+01 -0.17907773032E+01  0.26059621424E+02  0.26491620100E+02  0.51100000000E-03 0.  1.
        -12    1    3    3    0    0 -0.74850018202E+01 -0.76596629704E+00  0.10349932513E+02  0.12795821960E+02  0.00000000000E+00 0.  1.
</event>
<event>
 7    1  0.2812635E-010  0.4778727E+02  0.7816164E-02  0.1312668E+00
        -11   -1    0    0    0    0  0.00000000000E+00  0.00000000000E+00  0.45593999997E+02  0.45594000000E+02  0.51100000000E-03 0.  1.
         11   -1    0    0    0    0 -0.00000000000E+00 -0.00000000000E+00 -0.45593999997E+02  0.45594000000E+02  0.51100000000E-03 0. -1.
    9900012    2    1    2    0    0 -0.28661966526E+02 -0.16870292747E+02  0.27883841164E+02  0.47787266129E+02  0.19999977587E+02 0.  0.
         12    1    1    2    0    0  0.28661966526E+02  0.16870292747E+02 -0.27883841164E+02  0.43400733871E+02  0.00000000000E+00 0. -1.
         11    1    3    3    0    0 -0.53743218547E+01 -0.10626828744E+02  0.24878750344E+01  0.12165621521E+02  0.51100000000E-03 0.  1.
        -11    1    3    3    0    0 -0.18942299435E+02 -0.31179598968E+01  0.16878953072E+02  0.25562305038E+02  0.51100000000E-03 0. -1.
        -12    1    3    3    0    0 -0.43453452369E+01 -0.31255041061E+01  0.85170130578E+01  0.10059339569E+02  0.00000000000E+00 0.  1.
</event>
<event>
 7    1  0.2812635E-010  0.4778727E+02  0.7816164E-02  0.1312668E+00
        -11   -1    0    0    0    0  0.00000000000E+00  0.00000000000E+00  0.45593999997E+02  0.45594000000E+02  0.51100000000E-03 0.  1.
         11   -1    0    0    0    0 -0.00000000000E+00 -0.00000000000E+00 -0.45593999997E+02  0.45594000000E+02  0.51100000000E-03 0. -1.
    9900012    2    1    2    0    0  0.30571210321E+01 -0.30975282423E+01  0.43181968608E+02  0.47787273242E+02  0.20000010021E+02 0.  0.
         12    1    1    2    0    0 -0.30571210321E+01  0.30975282423E+01 -0.43181968608E+02  0.43400726758E+02  0.00000000000E+00 0. -1.
         11    1    3    3    0    0 -0.12222247900E+01  0.63358847540E+01  0.18656099536E+02  0.19740499467E+02  0.51100000000E-03 0. -1.
        -11    1    3    3    0    0 -0.27202996987E+01 -0.29144004188E+01  0.61225336804E+01  0.73061056097E+01  0.51100000000E-03 0.  1.
         12    1    3    3    0    0  0.69996455208E+01 -0.65190125775E+01  0.18403335392E+02  0.20740668165E+02  0.00000000000E+00 0. -1.
</event>
<event>
 7    1  0.2812635E-010  0.4778726E+02  0.7816164E-02  0.1312668E+00
        -11   -1    0    0    0    0  0.00000000000E+00  0.00000000000E+00  0.45593999997E+02  0.45594000000E+02  0.51100000000E-03 0.  1.
         11   -1    0    0    0    0 -0.00000000000E+00 -0.00000000000E+00 -0.45593999997E+02  0.45594000000E+02  0.51100000000E-03 0. -1.
    9900012    2    1    2    0    0 -0.17389831976E+01 -0.73238851749E+01  0.42742963810E+02  0.47787259086E+02  0.19999945477E+02 0.  0.
         12    1    1    2    0    0  0.17389831976E+01  0.73238851749E+01 -0.42742963810E+02  0.43400740914E+02  0.00000000000E+00 0. -1.
         11    1    3    3    0    0 -0.94537745674E+01 -0.34355234440E+01  0.18525109711E+02  0.21079761976E+02  0.51100000000E-03 0. -1.
        -11    1    3    3    0    0  0.52635578071E+01 -0.44797742264E+01  0.22778450242E+02  0.23804016753E+02  0.51100000000E-03 0.  1.
        -12    1    3    3    0    0  0.24512335628E+01  0.59141249552E+00  0.14394038576E+01  0.29034803572E+01  0.00000000000E+00 0.  1.
</event>
<event>
 7    1  0.2812635E-010  0.4778728E+02  0.7816164E-02  0.1312668E+00
        -11   -1    0    0    0    0  0.00000000000E+00  0.00000000000E+00  0.45593999997E+02  0.45594000000E+02  0.51100000000E-03 0.  1.
         11   -1    0    0    0    0 -0.00000000000E+00 -0.00000000000E+00 -0.45593999997E+02  0.45594000000E+02  0.51100000000E-03 0. -1.
    9900012    2    1    2    0    0 -0.18647083106E+02 -0.25770899294E+02  0.29525745918E+02  0.47787278453E+02  0.20000033780E+02 0.  0.
         12    1    1    2    0    0  0.18647083106E+02  0.25770899294E+02 -0.29525745918E+02  0.43400721547E+02  0.00000000000E+00 0. -1.
         11    1    3    3    0    0  0.23292132903E+01 -0.61657824490E+01  0.73764728350E+01  0.98921413004E+01  0.51100000000E-03 0. -1.
        -11    1    3    3    0    0 -0.15128286160E+02 -0.11210560653E+02  0.80566921843E+01  0.20480527374E+02  0.51100000000E-03 0.  1.
         12    1    3    3    0    0 -0.58480102360E+01 -0.83945561920E+01  0.14092580899E+02  0.17414609779E+02  0.00000000000E+00 0. -1.
</event>
<event>
 7    1  0.2812635E-010  0.4778727E+02  0.7816164E-02  0.1312668E+00
        -11   -1    0    0    0    0  0.00000000000E+00  0.00000000000E+00  0.45593999997E+02  0.45594000000E+02  0.51100000000E-03 0.  1.
         11   -1    0    0    0    0 -0.00000000000E+00 -0.00000000000E+00 -0.45593999997E+02  0.45594000000E+02  0.51100000000E-03 0. -1.
    9900012    2    1    2    0    0  0.37818888228E+02  0.97443705552E+01  0.18931518287E+02  0.47787269027E+02  0.19999990802E+02 0.  0.
         12    1    1    2    0    0 -0.37818888228E+02 -0.97443705552E+01 -0.18931518287E+02  0.43400730973E+02  0.00000000000E+00 0. -1.
         11    1    3    3    0    0  0.98796195204E+01  0.45301874357E+01 -0.35949540681E+00  0.10874682399E+02  0.51100000000E-03 0. -1.
        -11    1    3    3    0    0  0.19810921424E+02 -0.17780391989E+01  0.16473595905E+02  0.25826602436E+02  0.51100000000E-03 0.  1.
        -12    1    3    3    0    0  0.81283472836E+01  0.69922223185E+01  0.28174177888E+01  0.11085984192E+02  0.00000000000E+00 0.  1.
</event>
<event>
 7    1  0.2812635E-010  0.4778727E+02  0.7816164E-02  0.1312668E+00
        -11   -1    0    0    0    0  0.00000000000E+00  0.00000000000E+00  0.45593999997E+02  0.45594000000E+02  0.51100000000E-03 0.  1.
         11   -1    0    0    0    0 -0.00000000000E+00 -0.00000000000E+00 -0.45593999997E+02  0.45594000000E+02  0.51100000000E-03 0. -1.
    9900012    2    1    2    0    0  0.16245702504E+02  0.15228256315E+02  0.37253197011E+02  0.47787270423E+02  0.19999997167E+02 0.  0.
         12    1    1    2    0    0 -0.16245702504E+02 -0.15228256315E+02 -0.37253197011E+02  0.43400729577E+02  0.00000000000E+00 0. -1.
         11    1    3    3    0    0  0.28931228868E+01  0.47748977650E+01  0.33462575068E+01  0.65090128489E+01  0.51100000000E-03 0. -1.
        -11    1    3    3    0    0 -0.31596441899E+01  0.45646002061E+00  0.14300519489E+01  0.34981074876E+01  0.51100000000E-03 0.  1.
        -12    1    3    3    0    0  0.16512223807E+02  0.99968985296E+01  0.32476887556E+02  0.37780150087E+02  0.00000000000E+00 0.  1.
</event>
<event>
 7    1  0.2812635E-010  0.4778728E+02  0.7816164E-02  0.1312668E+00
        -11   -1    0    0    0    0  0.00000000000E+00  0.00000000000E+00  0.45593999997E+02  0.45594000000E+02  0.51100000000E-03 0.  1.
         11   -1    0    0    0    0 -0.00000000000E+00 -0.00000000000E+00 -0.45593999997E+02  0.45594000000E+02  0.51100000000E-03 0. -1.
    9900012    2    1    2    0    0  0.47925796658E+01 -0.31382397811E+02  0.29593895725E+02  0.47787281383E+02  0.20000047139E+02 0.  0.
         12    1    1    2    0    0 -0.47925796658E+01  0.31382397811E+02 -0.29593895725E+02  0.43400718617E+02  0.00000000000E+00 0. -1.
         11    1    3    3    0    0  0.65709007083E+01 -0.79700548016E+01  0.27412019131E+01  0.10687034100E+02  0.51100000000E-03 0. -1.
        -11    1    3    3    0    0  0.38285908119E+01 -0.12323328022E+02  0.10989365228E+02  0.16949592016E+02  0.51100000000E-03 0.  1.
         12    1    3    3    0    0 -0.56069118544E+01 -0.11089014988E+02  0.15863328584E+02  0.20150655267E+02  0.00000000000E+00 0. -1.
</event>
<event>
 7    1  0.2812635E-010  0.4778727E+02  0.7816164E-02  0.1312668E+00
        -11   -1    0    0    0    0  0.00000000000E+00  0.00000000000E+00  0.45593999997E+02  0.45594000000E+02  0.51100000000E-03 0.  1.
         11   -1    0    0    0    0 -0.00000000000E+00 -0.00000000000E+00 -0.45593999997E+02  0.45594000000E+02  0.51100000000E-03 0. -1.
    9900012    2    1    2    0    0 -0.43226239072E+02  0.20370633124E-01 -0.38878158418E+01  0.47787271074E+02  0.20000000134E+02 0.  0.
         12    1    1    2    0    0  0.43226239072E+02 -0.20370633124E-01  0.38878158418E+01  0.43400728926E+02  0.00000000000E+00 0. -1.
         11    1    3    3    0    0 -0.23919855438E+02 -0.54262871738E+01  0.44406134638E+01  0.24926354023E+02  0.51100000000E-03 0.  1.
        -11    1    3    3    0    0 -0.17758523349E+02  0.26155763128E+01 -0.61785860434E+01  0.18983711880E+02  0.51100000000E-03 0. -1.
         12    1    3    3    0    0 -0.15478602855E+01  0.28310814941E+01 -0.21498432621E+01  0.38772051714E+01  0.00000000000E+00 0. -1.
</event>
<event>
 7    1  0.2812635E-010  0.4778727E+02  0.7816164E-02  0.1312668E+00
        -11   -1    0    0    0    0  0.00000000000E+00  0.00000000000E+00  0.45593999997E+02  0.45594000000E+02  0.51100000000E-03 0.  1.
         11   -1    0    0    0    0 -0.00000000000E+00 -0.00000000000E+00 -0.45593999997E+02  0.45594000000E+02  0.51100000000E-03 0. -1.
    9900012    2    1    2    0    0 -0.19736778656E+02  0.18791599044E+02  0.33778080587E+02  0.47787270116E+02  0.19999995767E+02 0.  0.
         12    1    1    2    0    0  0.19736778656E+02 -0.18791599044E+02 -0.33778080587E+02  0.43400729884E+02  0.00000000000E+00 0. -1.
         11    1    3    3    0    0 -0.32252951956E+01  0.17715107648E+01  0.11989094328E+02  0.12541098938E+02  0.51100000000E-03 0. -1.
        -11    1    3    3    0    0 -0.12979870879E+02  0.18645816839E+02  0.21608790162E+02  0.31354159950E+02  0.51100000000E-03 0.  1.
        -12    1    3    3    0    0 -0.35316125813E+01 -0.16257285593E+01  0.18019609614E+00  0.38920112290E+01  0.00000000000E+00 0.  1.
</event>
<event>
 7    1  0.2812635E-010  0.4778726E+02  0.7816164E-02  0.1312668E+00
        -11   -1    0    0    0    0  0.00000000000E+00  0.00000000000E+00  0.45593999997E+02  0.45594000000E+02  0.51100000000E-03 0.  1.
         11   -1    0    0    0    0 -0.00000000000E+00 -0.00000000000E+00 -0.45593999997E+02  0.45594000000E+02  0.51100000000E-03 0. -1.
    9900012    2    1    2    0    0  0.15611455354E+02  0.53856487073E+01  0.40136032387E+02  0.47787264452E+02  0.19999969944E+02 0.  0.
         12    1    1    2    0    0 -0.15611455354E+02 -0.53856487073E+01 -0.40136032387E+02  0.43400735548E+02  0.00000000000E+00 0. -1.
         11    1    3    3    0    0  0.40007133969E+01  0.39909293640E+00  0.32276357637E+02  0.32525808913E+02  0.51100000000E-03 0. -1.
        -11    1    3    3    0    0  0.77575780964E+01  0.17030590128E+01  0.39823695202E+01  0.88848013584E+01  0.51100000000E-03 0.  1.
         12    1    3    3    0    0  0.38531638607E+01  0.32834967581E+01  0.38773052300E+01  0.63766541811E+01  0.00000000000E+00 0. -1.
</event>
<event>
 7    1  0.2812635E-010  0.4778727E+02  0.7816164E-02  0.1312668E+00
        -11   -1    0    0    0    0  0.00000000000E+00  0.00000000000E+00  0.45593999997E+02  0.45594000000E+02  0.51100000000E-03 0.  1.
         11   -1    0    0    0    0 -0.00000000000E+00 -0.00000000000E+00 -0.45593999997E+02  0.45594000000E+02  0.51100000000E-03 0. -1.
    9900012    2    1    2    0    0  0.11990735051E+02 -0.36017304690E+01  0.41555663851E+02  0.47787269735E+02  0.19999994032E+02 0.  0.
         12    1    1    2    0    0 -0.11990735051E+02  0.36017304690E+01 -0.41555663851E+02  0.43400730265E+02  0.00000000000E+00 0. -1.
         11    1    3    3    0    0  0.12255813452E+02 -0.48181534250E+01  0.10901265290E+02  0.17095530146E+02  0.51100000000E-03 0. -1.
        -11    1    3    3    0    0  0.21082201784E+00  0.79043246418E+00  0.12942246059E+02  0.12968074750E+02  0.51100000000E-03 0.  1.
         12    1    3    3    0    0 -0.47590041887E+00  0.42599049181E+00  0.17712152501E+02  0.17723664839E+02  0.00000000000E+00 0. -1.
</event>
<event>
 7    1  0.2812635E-010  0.4778727E+02  0.7816164E-02  0.1312668E+00
        -11   -1    0    0    0    0  0.00000000000E+00  0.00000000000E+00  0.45593999997E+02  0.45594000000E+02  0.51100000000E-03 0. -1.
         11   -1    0    0    0    0 -0.00000000000E+00 -0.00000000000E+00 -0.45593999997E+02  0.45594000000E+02  0.51100000000E-03 0.  1.
    9900012    2    1    2    0    0  0.34560719739E+02  0.25516371215E+02 -0.61721079042E+01  0.47787268844E+02  0.19999989968E+02 0.  0.
         12    1    1    2    0    0 -0.34560719739E+02 -0.25516371215E+02  0.61721079042E+01  0.43400731156E+02  0.00000000000E+00 0. -1.
         11    1    3    3    0    0  0.24131377968E+01 -0.11292610576E+01  0.30454326986E+01  0.40463718497E+01  0.51100000000E-03 0. -1.
        -11    1    3    3    0    0  0.24270477500E+02  0.15276754832E+02 -0.39877886510E+01  0.28954063185E+02  0.51100000000E-03 0.  1.
         12    1    3    3    0    0  0.78771044417E+01  0.11368877441E+02 -0.52297519519E+01  0.14786833810E+02  0.00000000000E+00 0. -1.
</event>
<event>
 7    1  0.2812635E-010  0.4778727E+02  0.7816164E-02  0.1312668E+00
        -11   -1    0    0    0    0  0.00000000000E+00  0.00000000000E+00  0.45593999997E+02  0.45594000000E+02  0.51100000000E-03 0.  1.
         11   -1    0    0    0    0 -0.00000000000E+00 -0.00000000000E+00 -0.45593999997E+02  0.45594000000E+02  0.51100000000E-03 0. -1.
    9900012    2    1    2    0    0 -0.40114083507E+02 -0.15650053675E+02  0.54368625400E+01  0.47787270168E+02  0.19999996005E+02 0.  0.
         12    1    1    2    0    0  0.40114083507E+02  0.15650053675E+02 -0.54368625400E+01  0.43400729832E+02  0.00000000000E+00 0. -1.
         11    1    3    3    0    0 -0.52208844026E+01 -0.12988015617E+00  0.19733626574E+01  0.55828902227E+01  0.51100000000E-03 0. -1.
        -11    1    3    3    0    0 -0.26735263020E+02 -0.78171506474E+01  0.95419080260E+01  0.29443677454E+02  0.51100000000E-03 0.  1.
        -12    1    3    3    0    0 -0.81579360846E+01 -0.77030228711E+01 -0.60784081434E+01  0.12760702491E+02  0.00000000000E+00 0.  1.
</event>
<event>
 7    1  0.2812635E-010  0.4778727E+02  0.7816164E-02  0.1312668E+00
        -11   -1    0    0    0    0  0.00000000000E+00  0.00000000000E+00  0.45593999997E+02  0.45594000000E+02  0.51100000000E-03 0. -1.
         11   -1    0    0    0    0 -0.00000000000E+00 -0.00000000000E+00 -0.45593999997E+02  0.45594000000E+02  0.51100000000E-03 0.  1.
    9900012    2    1    2    0    0  0.19332690105E+02 -0.38333525513E+02 -0.63569755917E+01  0.47787271623E+02  0.20000002638E+02 0.  0.
         12    1    1    2    0    0 -0.19332690105E+02  0.38333525513E+02  0.63569755917E+01  0.43400728377E+02  0.00000000000E+00 0. -1.
         11    1    3    3    0    0 -0.72643267051E+00  0.67579479811E+00 -0.30187865333E+01  0.31776525028E+01  0.51100000000E-03 0. -1.
        -11    1    3    3    0    0  0.18708574775E+02 -0.32532311920E+02 -0.84051504767E+00  0.37537561918E+02  0.51100000000E-03 0.  1.
        -12    1    3    3    0    0  0.13505480011E+01 -0.64770083914E+01 -0.24976740107E+01  0.70720572021E+01  0.00000000000E+00 0.  1.
</event>
<event>
 7    1  0.2812635E-010  0.4778730E+02  0.7816164E-02  0.1312668E+00
        -11   -1    0    0    0    0  0.00000000000E+00  0.00000000000E+00  0.45593999997E+02  0.45594000000E+02  0.51100000000E-03 0.  1.
         11   -1    0    0    0    0 -0.00000000000E+00 -0.00000000000E+00 -0.45593999997E+02  0.45594000000E+02  0.51100000000E-03 0. -1.
    9900012    2    1    2    0    0 -0.10784510123E+02 -0.32486573220E+02  0.26682159593E+02  0.47787300251E+02  0.20000133164E+02 0.  0.
         12    1    1    2    0    0  0.10784510123E+02  0.32486573220E+02 -0.26682159593E+02  0.43400699749E+02  0.00000000000E+00 0. -1.
         11    1    3    3    0    0 -0.40443322678E+01 -0.12055515798E+02  0.19115285066E+02  0.22958358131E+02  0.51100000000E-03 0. -1.
        -11    1    3    3    0    0  0.11239514469E+00 -0.75633000809E+01  0.68945647984E+01  0.10234801649E+02  0.51100000000E-03 0.  1.
         12    1    3    3    0    0 -0.68525729995E+01 -0.12867757341E+02  0.67230972841E+00  0.14594140471E+02  0.00000000000E+00 0. -1.
</event>
<event>
 7    1  0.2812635E-010  0.4778727E+02  0.7816164E-02  0.1312668E+00
        -11   -1    0    0    0    0  0.00000000000E+00  0.00000000000E+00  0.45593999997E+02  0.45594000000E+02  0.51100000000E-03 0. -1.
         11   -1    0    0    0    0 -0.00000000000E+00 -0.00000000000E+00 -0.45593999997E+02  0.45594000000E+02  0.51100000000E-03 0.  1.
    9900012    2    1    2    0    0  0.93468002492E+01  0.37062877324E+02 -0.20557326845E+02  0.47787271465E+02  0.20000001916E+02 0.  0.
         12    1    1    2    0    0 -0.93468002492E+01 -0.37062877324E+02  0.20557326845E+02  0.43400728535E+02  0.00000000000E+00 0. -1.
         11    1    3    3    0    0  0.88295665340E+01  0.91717238732E+01 -0.19308447965E+01  0.12876720307E+02  0.51100000000E-03 0. -1.
        -11    1    3    3    0    0  0.14318234673E+01  0.88937098555E+01 -0.11506509401E+01  0.90814201137E+01  0.51100000000E-03 0.  1.
        -12    1    3    3    0    0 -0.91458975213E+00  0.18997443595E+02 -0.17475831108E+02  0.25829131044E+02  0.00000000000E+00 0.  1.
</event>
<event>
 7    1  0.2812635E-010  0.4778727E+02  0.7816164E-02  0.1312668E+00
        -11   -1    0    0    0    0  0.00000000000E+00  0.00000000000E+00  0.45593999997E+02  0.45594000000E+02  0.51100000000E-03 0. -1.
         11   -1    0    0    0    0 -0.00000000000E+00 -0.00000000000E+00 -0.45593999997E+02  0.45594000000E+02  0.51100000000E-03 0.  1.
    9900012    2    1    2    0    0  0.14300282224E+02 -0.17734232811E+02 -0.36940797583E+02  0.47787267158E+02  0.19999982282E+02 0.  0.
         12    1    1    2    0    0 -0.14300282224E+02  0.17734232811E+02  0.36940797583E+02  0.43400732842E+02  0.00000000000E+00 0. -1.
         11    1    3    3    0    0  0.39432924092E+01  0.41469958405E+01 -0.92702835683E+01  0.10894277728E+02  0.51100000000E-03 0. -1.
        -11    1    3    3    0    0  0.92071500907E+01 -0.20381015657E+02 -0.26474232098E+02  0.34656058308E+02  0.51100000000E-03 0.  1.
         12    1    3    3    0    0  0.11498397240E+01 -0.15002129946E+01 -0.11962819175E+01  0.22369311223E+01  0.00000000000E+00 0. -1.
</event>
<event>
 7    1  0.2812635E-010  0.4778727E+02  0.7816164E-02  0.1312668E+00
        -11   -1    0    0    0    0  0.00000000000E+00  0.00000000000E+00  0.45593999997E+02  0.45594000000E+02  0.51100000000E-03 0.  1.
         11   -1    0    0    0    0 -0.00000000000E+00 -0.00000000000E+00 -0.45593999997E+02  0.45594000000E+02  0.51100000000E-03 0. -1.
    9900012    2    1    2    0    0 -0.15487894502E+02 -0.27539354307E+02  0.29754529441E+02  0.47787274960E+02  0.20000017853E+02 0.  0.
         12    1    1    2    0    0  0.15487894502E+02  0.27539354307E+02 -0.29754529441E+02  0.43400725040E+02  0.00000000000E+00 0. -1.
         11    1    3    3    0    0 -0.31331086923E+00 -0.38047416289E+01  0.40007668332E-01  0.38178296764E+01  0.51100000000E-03 0. -1.
        -11    1    3    3    0    0 -0.29825184906E+01 -0.36896387863E+01 -0.14498272146E+01  0.49609323855E+01  0.51100000000E-03 0.  1.
        -12    1    3    3    0    0 -0.12192065142E+02 -0.20044973892E+02  0.31164348987E+02  0.39008512898E+02  0.00000000000E+00 0.  1.
</event>
<event>
 7    1  0.2812635E-010  0.4778727E+02  0.7816164E-02  0.1312668E+00
        -11   -1    0    0    0    0  0.00000000000E+00  0.00000000000E+00  0.45593999997E+02  0.45594000000E+02  0.51100000000E-03 0.  1.
         11   -1    0    0    0    0 -0.00000000000E+00 -0.00000000000E+00 -0.45593999997E+02  0.45594000000E+02  0.51100000000E-03 0. -1.
    9900012    2    1    2    0    0 -0.39839862238E+02 -0.16876576435E+02  0.34043861283E+01  0.47787270741E+02  0.19999998614E+02 0.  0.
         12    1    1    2    0    0  0.39839862238E+02  0.16876576435E+02 -0.34043861283E+01  0.43400729259E+02  0.00000000000E+00 0. -1.
         11    1    3    3    0    0 -0.48482829021E+01 -0.80141268336E+00 -0.61080938075E+01  0.78394463842E+01  0.51100000000E-03 0. -1.
        -11    1    3    3    0    0 -0.25591603194E+02 -0.11965623356E+02  0.47897710243E+01  0.28653938701E+02  0.51100000000E-03 0.  1.
         12    1    3    3    0    0 -0.93999761426E+01 -0.41095403953E+01  0.47227089116E+01  0.11293885656E+02  0.00000000000E+00 0. -1.
</event>
<event>
 7    1  0.2812635E-010  0.4778727E+02  0.7816164E-02  0.1312668E+00
        -11   -1    0    0    0    0  0.00000000000E+00  0.00000000000E+00  0.45593999997E+02  0.45594000000E+02  0.51100000000E-03 0. -1.
         11   -1    0    0    0    0 -0.00000000000E+00 -0.00000000000E+00 -0.45593999997E+02  0.45594000000E+02  0.51100000000E-03 0.  1.
    9900012    2    1    2    0    0  0.20039433690E+02 -0.10282810492E+02 -0.37098628527E+02  0.47787270365E+02  0.19999996904E+02 0.  0.
         12    1    1    2    0    0 -0.20039433690E+02  0.10282810492E+02  0.37098628527E+02  0.43400729635E+02  0.00000000000E+00 0. -1.
         11    1    3    3    0    0  0.67755415000E+01 -0.61285447418E+00 -0.98657234920E-01  0.68039170142E+01  0.51100000000E-03 0. -1.
        -11    1    3    3    0    0  0.90988514431E+01 -0.27738419052E+01 -0.18391830634E+02  0.20706103710E+02  0.51100000000E-03 0.  1.
         12    1    3    3    0    0  0.41650407474E+01 -0.68961141126E+01 -0.18608140658E+02  0.20277249641E+02  0.00000000000E+00 0. -1.
</event>
<event>
 7    1  0.2812635E-010  0.4778727E+02  0.7816164E-02  0.1312668E+00
        -11   -1    0    0    0    0  0.00000000000E+00  0.00000000000E+00  0.45593999997E+02  0.45594000000E+02  0.51100000000E-03 0. -1.
         11   -1    0    0    0    0 -0.00000000000E+00 -0.00000000000E+00 -0.45593999997E+02  0.45594000000E+02  0.51100000000E-03 0.  1.
    9900012    2    1    2    0    0  0.30827513106E+02  0.29457011927E+02 -0.80976789205E+01  0.47787268210E+02  0.19999987078E+02 0.  0.
         12    1    1    2    0    0 -0.30827513106E+02 -0.29457011927E+02  0.80976789205E+01  0.43400731790E+02  0.00000000000E+00 0. -1.
         11    1    3    3    0    0  0.60629694663E+01  0.37341451364E+01  0.57082369633E+01  0.91261935186E+01  0.51100000000E-03 0. -1.
        -11    1    3    3    0    0  0.74171217419E+01  0.50447936072E+01 -0.19432780065E+01  0.91782333346E+01  0.51100000000E-03 0.  1.
         12    1    3    3    0    0  0.17347421898E+02  0.20678073183E+02 -0.11862637877E+02  0.29482841357E+02  0.00000000000E+00 0. -1.
</event>
<event>
 7    1  0.2812635E-010  0.4778727E+02  0.7816164E-02  0.1312668E+00
        -11   -1    0    0    0    0  0.00000000000E+00  0.00000000000E+00  0.45593999997E+02  0.45594000000E+02  0.51100000000E-03 0. -1.
         11   -1    0    0    0    0 -0.00000000000E+00 -0.00000000000E+00 -0.45593999997E+02  0.45594000000E+02  0.51100000000E-03 0.  1.
    9900012    2    1    2    0    0  0.41450697548E+02  0.12489207131E+02 -0.30793634213E+01  0.47787273035E+02  0.20000009078E+02 0.  0.
         12    1    1    2    0    0 -0.41450697548E+02 -0.12489207131E+02  0.30793634213E+01  0.43400726965E+02  0.00000000000E+00 0. -1.
         11    1    3    3    0    0  0.16390277534E+01 -0.25462116893E+01  0.20274534272E+01  0.36441972509E+01  0.51100000000E-03 0. -1.
        -11    1    3    3    0    0  0.14375573386E+02  0.19176978808E+00 -0.22921754486E+01  0.14558432415E+02  0.51100000000E-03 0.  1.
         12    1    3    3    0    0  0.25436096409E+02  0.14843649032E+02 -0.28146414000E+01  0.29584643370E+02  0.00000000000E+00 0. -1.
</event>
<event>
 7    1  0.2812635E-010  0.4778726E+02  0.7816164E-02  0.1312668E+00
        -11   -1    0    0    0    0  0.00000000000E+00  0.00000000000E+00  0.45593999997E+02  0.45594000000E+02  0.51100000000E-03 0.  1.
         11   -1    0    0    0    0 -0.00000000000E+00 -0.00000000000E+00 -0.45593999997E+02  0.45594000000E+02  0.51100000000E-03 0. -1.
    9900012    2    1    2    0    0 -0.32826130134E+02  0.26998648945E+02  0.87830505253E+01  0.47787264511E+02  0.19999970213E+02 0.  0.
         12    1    1    2    0    0  0.32826130134E+02 -0.26998648945E+02 -0.87830505253E+01  0.43400735489E+02  0.00000000000E+00 0. -1.
         11    1    3    3    0    0 -0.30138256324E+01 -0.10284550811E+01  0.20510967457E+01  0.37878572991E+01  0.51100000000E-03 0. -1.
        -11    1    3    3    0    0 -0.96686971054E+01  0.11062547057E+01  0.29242039690E+01  0.10161617603E+02  0.51100000000E-03 0.  1.
        -12    1    3    3    0    0 -0.20143607396E+02  0.26920849320E+02  0.38077498106E+01  0.33837789610E+02  0.00000000000E+00 0.  1.
</event>
<event>
 7    1  0.2812635E-010  0.4778726E+02  0.7816164E-02  0.1312668E+00
        -11   -1    0    0    0    0  0.00000000000E+00  0.00000000000E+00  0.45593999997E+02  0.45594000000E+02  0.51100000000E-03 0.  1.
         11   -1    0    0    0    0 -0.00000000000E+00 -0.00000000000E+00 -0.45593999997E+02  0.45594000000E+02  0.51100000000E-03 0. -1.
    9900012    2    1    2    0    0 -0.42856363079E+02  0.68515894678E+01 -0.11023374601E+00  0.47787259383E+02  0.19999946832E+02 0.  0.
         12    1    1    2    0    0  0.42856363079E+02 -0.68515894678E+01  0.11023374601E+00  0.43400740617E+02  0.00000000000E+00 0. -1.
         11    1    3    3    0    0 -0.36022918330E+02  0.37883772493E+00 -0.16923515739E+01  0.36064639429E+02  0.51100000000E-03 0. -1.
        -11    1    3    3    0    0 -0.10181038447E+00  0.46083448626E+01  0.28597029039E+00  0.46183316246E+01  0.51100000000E-03 0.  1.
        -12    1    3    3    0    0 -0.67316343644E+01  0.18644068802E+01  0.12961475375E+01  0.71042883296E+01  0.00000000000E+00 0.  1.
</event>
<event>
 7    1  0.2812635E-010  0.4778727E+02  0.7816164E-02  0.1312668E+00
        -11   -1    0    0    0    0  0.00000000000E+00  0.00000000000E+00  0.45593999997E+02  0.45594000000E+02  0.51100000000E-03 0.  1.
         11   -1    0    0    0    0 -0.00000000000E+00 -0.00000000000E+00 -0.45593999997E+02  0.45594000000E+02  0.51100000000E-03 0. -1.
    9900012    2    1    2    0    0 -0.27949697590E+01 -0.37284616775E+02  0.22037889075E+02  0.47787273521E+02  0.20000011292E+02 0.  0.
         12    1    1    2    0    0  0.27949697590E+01  0.37284616775E+02 -0.22037889075E+02  0.43400726479E+02  0.00000000000E+00 0. -1.
         11    1    3    3    0    0  0.33055017169E+01 -0.11415373999E+01  0.44084888836E+01  0.56270972742E+01  0.51100000000E-03 0. -1.
        -11    1    3    3    0    0 -0.16205265658E+01 -0.32065428638E+02  0.13501844982E+02  0.34829838332E+02  0.51100000000E-03 0.  1.
        -12    1    3    3    0    0 -0.44799449101E+01 -0.40776507376E+01  0.41275552090E+01  0.73303379144E+01  0.00000000000E+00 0.  1.
</event>
<event>
 7    1  0.2812635E-010  0.4778727E+02  0.7816164E-02  0.1312668E+00
        -11   -1    0    0    0    0  0.00000000000E+00  0.00000000000E+00  0.45593999997E+02  0.45594000000E+02  0.51100000000E-03 0. -1.
         11   -1    0    0    0    0 -0.00000000000E+00 -0.00000000000E+00 -0.45593999997E+02  0.45594000000E+02  0.51100000000E-03 0.  1.
    9900012    2    1    2    0    0 -0.41896433109E+02  0.78320737134E+01 -0.81835534928E+01  0.47787273811E+02  0.20000012615E+02 0.  0.
         12    1    1    2    0    0  0.41896433109E+02 -0.78320737134E+01  0.81835534928E+01  0.43400726189E+02  0.00000000000E+00 0. -1.
         11    1    3    3    0    0 -0.27243677568E+01  0.44708679532E+00 -0.59205089130E+01  0.65325716472E+01  0.51100000000E-03 0. -1.
        -11    1    3    3    0    0 -0.38997195681E+02  0.85700741905E+01 -0.17934750436E+01  0.39968037175E+02  0.51100000000E-03 0.  1.
        -12    1    3    3    0    0 -0.17486967160E+00 -0.11850872724E+01 -0.46956953632E+00  0.12866649893E+01  0.00000000000E+00 0.  1.
</event>
<event>
 7    1  0.2812635E-010  0.4778726E+02  0.7816164E-02  0.1312668E+00
        -11   -1    0    0    0    0  0.00000000000E+00  0.00000000000E+00  0.45593999997E+02  0.45594000000E+02  0.51100000000E-03 0. -1.
         11   -1    0    0    0    0 -0.00000000000E+00 -0.00000000000E+00 -0.45593999997E+02  0.45594000000E+02  0.51100000000E-03 0.  1.
    9900012    2    1    2    0    0  0.13911161539E+02  0.33070771829E+02 -0.24421870562E+02  0.47787261222E+02  0.19999955216E+02 0.  0.
         12    1    1    2    0    0 -0.13911161539E+02 -0.33070771829E+02  0.24421870562E+02  0.43400738778E+02  0.00000000000E+00 0. -1.
         11    1    3    3    0    0  0.74251650500E+01  0.34035391852E+01 -0.73548874085E+01  0.10991429573E+02  0.51100000000E-03 0. -1.
        -11    1    3    3    0    0  0.52033912942E+01  0.34295909792E+01 -0.21829667007E+01  0.66032355041E+01  0.51100000000E-03 0.  1.
         12    1    3    3    0    0  0.12826051946E+01  0.26237641665E+02 -0.14884016453E+02  0.30192596145E+02  0.00000000000E+00 0. -1.
</event>
<event>
 7    1  0.2889974E-010  0.4778727E+02  0.7816164E-02  0.1312668E+00
        -11   -1    0    0    0    0  0.00000000000E+00  0.00000000000E+00  0.45593999997E+02  0.45594000000E+02  0.51100000000E-03 0. -1.
         11   -1    0    0    0    0 -0.00000000000E+00 -0.00000000000E+00 -0.45593999997E+02  0.45594000000E+02  0.51100000000E-03 0.  1.
    9900012    2    1    2    0    0  0.30800245322E+02  0.35894938902E+01 -0.30365833571E+02  0.47787269284E+02  0.19999991971E+02 0.  0.
         12    1    1    2    0    0 -0.30800245322E+02 -0.35894938902E+01  0.30365833571E+02  0.43400730716E+02  0.00000000000E+00 0. -1.
         11    1    3    3    0    0  0.10249861095E+02 -0.50997056013E+01 -0.12251377796E+02  0.16767913044E+02  0.51100000000E-03 0. -1.
        -11    1    3    3    0    0  0.21935605839E+02  0.75620664638E+01 -0.15695420340E+02  0.28012530636E+02  0.51100000000E-03 0.  1.
         12    1    3    3    0    0 -0.13852216120E+01  0.11271330276E+01 -0.24190354348E+01  0.30068256037E+01  0.00000000000E+00 0. -1.
</event>
<event>
 7    1  0.2812635E-010  0.4778727E+02  0.7816164E-02  0.1312668E+00
        -11   -1    0    0    0    0  0.00000000000E+00  0.00000000000E+00  0.45593999997E+02  0.45594000000E+02  0.51100000000E-03 0.  1.
         11   -1    0    0    0    0 -0.00000000000E+00 -0.00000000000E+00 -0.45593999997E+02  0.45594000000E+02  0.51100000000E-03 0. -1.
    9900012    2    1    2    0    0 -0.34756357650E+02 -0.58621601701E+01  0.25322991664E+02  0.47787271598E+02  0.20000002524E+02 0.  0.
         12    1    1    2    0    0  0.34756357650E+02  0.58621601701E+01 -0.25322991664E+02  0.43400728402E+02  0.00000000000E+00 0. -1.
         11    1    3    3    0    0 -0.16691326299E+01 -0.43315623024E+01  0.80203773941E+01  0.92668705354E+01  0.51100000000E-03 0. -1.
        -11    1    3    3    0    0 -0.15010919927E+02 -0.40060356688E+01  0.43133172413E+01  0.16123918405E+02  0.51100000000E-03 0.  1.
         12    1    3    3    0    0 -0.18076305094E+02  0.24754378011E+01  0.12989297029E+02  0.22396482658E+02  0.00000000000E+00 0. -1.
</event>
<event>
 7    1  0.2812635E-010  0.4778727E+02  0.7816164E-02  0.1312668E+00
        -11   -1    0    0    0    0  0.00000000000E+00  0.00000000000E+00  0.45593999997E+02  0.45594000000E+02  0.51100000000E-03 0. -1.
         11   -1    0    0    0    0 -0.00000000000E+00 -0.00000000000E+00 -0.45593999997E+02  0.45594000000E+02  0.51100000000E-03 0.  1.
    9900012    2    1    2    0    0  0.40344396096E+02  0.15831409665E+02  0.23064467486E+01  0.47787268152E+02  0.19999986813E+02 0.  0.
         12    1    1    2    0    0 -0.40344396096E+02 -0.15831409665E+02 -0.23064467486E+01  0.43400731848E+02  0.00000000000E+00 0. -1.
         11    1    3    3    0    0  0.39419119867E+02  0.12786304529E+02 -0.11613178298E+01  0.41457270218E+02  0.51100000000E-03 0.  1.
        -11    1    3    3    0    0 -0.30458693561E+00  0.34945990814E+01  0.11927945173E+01  0.37050985092E+01  0.51100000000E-03 0. -1.
        -12    1    3    3    0    0  0.12298631644E+01 -0.44949394511E+00  0.22749700610E+01  0.26248994244E+01  0.00000000000E+00 0.  1.
</event>
<event>
 7    1  0.4097216E-010  0.4778727E+02  0.7816164E-02  0.1312668E+00
        -11   -1    0    0    0    0  0.00000000000E+00  0.00000000000E+00  0.45593999997E+02  0.45594000000E+02  0.51100000000E-03 0. -1.
         11   -1    0    0    0    0 -0.00000000000E+00 -0.00000000000E+00 -0.45593999997E+02  0.45594000000E+02  0.51100000000E-03 0.  1.
    9900012    2    1    2    0    0 -0.13588984680E+02 -0.30745400340E+02 -0.27453293538E+02  0.47787268753E+02  0.19999989552E+02 0.  0.
         12    1    1    2    0    0  0.13588984680E+02  0.30745400340E+02  0.27453293538E+02  0.43400731247E+02  0.00000000000E+00 0. -1.
         11    1    3    3    0    0 -0.76979365588E+01 -0.43439194092E+01 -0.11310987237E+02  0.14355009427E+02  0.51100000000E-03 0. -1.
        -11    1    3    3    0    0 -0.13528108536E+01 -0.20359098046E+02 -0.15906723068E+02  0.25871737659E+02  0.51100000000E-03 0.  1.
         12    1    3    3    0    0 -0.45382372674E+01 -0.60423828853E+01 -0.23558323224E+00  0.75605216677E+01  0.00000000000E+00 0. -1.
</event>
<event>
 7    1  0.2812635E-010  0.4778727E+02  0.7816164E-02  0.1312668E+00
        -11   -1    0    0    0    0  0.00000000000E+00  0.00000000000E+00  0.45593999997E+02  0.45594000000E+02  0.51100000000E-03 0.  1.
         11   -1    0    0    0    0 -0.00000000000E+00 -0.00000000000E+00 -0.45593999997E+02  0.45594000000E+02  0.51100000000E-03 0. -1.
    9900012    2    1    2    0    0 -0.90527347683E+01  0.42396326488E+02  0.20549855251E+01  0.47787268762E+02  0.19999989593E+02 0.  0.
         12    1    1    2    0    0  0.90527347683E+01 -0.42396326488E+02 -0.20549855251E+01  0.43400731238E+02  0.00000000000E+00 0. -1.
         11    1    3    3    0    0  0.23040034893E+01  0.36331845676E+01 -0.18629491909E+01  0.46881811110E+01  0.51100000000E-03 0. -1.
        -11    1    3    3    0    0  0.24077111632E+01  0.98337343881E+00  0.99245271982E+00  0.27837131727E+01  0.51100000000E-03 0.  1.
        -12    1    3    3    0    0 -0.13764449421E+02  0.37779768482E+02  0.29254819962E+01  0.40315374478E+02  0.00000000000E+00 0.  1.
</event>
<event>
 7    1  0.2812635E-010  0.4778727E+02  0.7816164E-02  0.1312668E+00
        -11   -1    0    0    0    0  0.00000000000E+00  0.00000000000E+00  0.45593999997E+02  0.45594000000E+02  0.51100000000E-03 0.  1.
         11   -1    0    0    0    0 -0.00000000000E+00 -0.00000000000E+00 -0.45593999997E+02  0.45594000000E+02  0.51100000000E-03 0. -1.
    9900012    2    1    2    0    0 -0.32465190641E+01 -0.88797501131E+01  0.42358391925E+02  0.47787271727E+02  0.20000003114E+02 0.  0.
         12    1    1    2    0    0  0.32465190641E+01  0.88797501131E+01 -0.42358391925E+02  0.43400728273E+02  0.00000000000E+00 0. -1.
         11    1    3    3    0    0  0.26546442644E+01 -0.44796536977E+01  0.41872809839E+01  0.66818976138E+01  0.51100000000E-03 0. -1.
        -11    1    3    3    0    0 -0.77487873747E+01  0.24301951556E+01  0.18647148537E+02  0.20338773392E+02  0.51100000000E-03 0.  1.
        -12    1    3    3    0    0  0.18476240462E+01 -0.68302915710E+01  0.19523962405E+02  0.20766600722E+02  0.00000000000E+00 0.  1.
</event>
<event>
 7    1  0.2812635E-010  0.4778727E+02  0.7816164E-02  0.1312668E+00
        -11   -1    0    0    0    0  0.00000000000E+00  0.00000000000E+00  0.45593999997E+02  0.45594000000E+02  0.51100000000E-03 0.  1.
         11   -1    0    0    0    0 -0.00000000000E+00 -0.00000000000E+00 -0.45593999997E+02  0.45594000000E+02  0.51100000000E-03 0. -1.
    9900012    2    1    2    0    0 -0.20724618219E+02 -0.18616626440E+02  0.33279641550E+02  0.47787272794E+02  0.20000007976E+02 0.  0.
         12    1    1    2    0    0  0.20724618219E+02  0.18616626440E+02 -0.33279641550E+02  0.43400727206E+02  0.00000000000E+00 0. -1.
         11    1    3    3    0    0  0.21894424134E+00 -0.37125131829E+01  0.31487465295E+00  0.37322696877E+01  0.51100000000E-03 0. -1.
        -11    1    3    3    0    0 -0.14674545976E+02 -0.35647932512E+01  0.23791652886E+02  0.28179652195E+02  0.51100000000E-03 0.  1.
        -12    1    3    3    0    0 -0.62690164839E+01 -0.11339320006E+02  0.91731140107E+01  0.15875350911E+02  0.00000000000E+00 0.  1.
</event>
<event>
 7    1  0.2812635E-010  0.4778727E+02  0.7816164E-02  0.1312668E+00
        -11   -1    0    0    0    0  0.00000000000E+00  0.00000000000E+00  0.45593999997E+02  0.45594000000E+02  0.51100000000E-03 0. -1.
         11   -1    0    0    0    0 -0.00000000000E+00 -0.00000000000E+00 -0.45593999997E+02  0.45594000000E+02  0.51100000000E-03 0.  1.
    9900012    2    1    2    0    0  0.39326647216E+02  0.14267007510E+02  0.11553805874E+02  0.47787272878E+02  0.20000008362E+02 0.  0.
         12    1    1    2    0    0 -0.39326647216E+02 -0.14267007510E+02 -0.11553805874E+02  0.43400727122E+02  0.00000000000E+00 0. -1.
         11    1    3    3    0    0  0.23790898275E+02  0.29481304549E+01  0.59590140484E+00  0.23980271322E+02  0.51100000000E-03 0. -1.
        -11    1    3    3    0    0  0.16206249770E+02  0.11546443478E+02  0.11437619865E+02  0.22951732768E+02  0.51100000000E-03 0.  1.
        -12    1    3    3    0    0 -0.67050082967E+00 -0.22756642320E+00 -0.47971539624E+00  0.85526878872E+00  0.00000000000E+00 0.  1.
</event>
<event>
 7    1  0.2812635E-010  0.4778726E+02  0.7816164E-02  0.1312668E+00
        -11   -1    0    0    0    0  0.00000000000E+00  0.00000000000E+00  0.45593999997E+02  0.45594000000E+02  0.51100000000E-03 0. -1.
         11   -1    0    0    0    0 -0.00000000000E+00 -0.00000000000E+00 -0.45593999997E+02  0.45594000000E+02  0.51100000000E-03 0.  1.
    9900012    2    1    2    0    0  0.37681937837E+02  0.13825675928E+02 -0.16508971847E+02  0.47787263768E+02  0.19999966824E+02 0.  0.
         12    1    1    2    0    0 -0.37681937837E+02 -0.13825675928E+02  0.16508971847E+02  0.43400736232E+02  0.00000000000E+00 0. -1.
         11    1    3    3    0    0  0.51177003892E+01 -0.30291503390E+01  0.16803375951E+01  0.61798174524E+01  0.51100000000E-03 0. -1.
        -11    1    3    3    0    0  0.29538265450E+02  0.12721521105E+02 -0.14411797116E+02  0.35242674720E+02  0.51100000000E-03 0.  1.
        -12    1    3    3    0    0  0.30259719979E+01  0.41333051620E+01 -0.37775123262E+01  0.63647715960E+01  0.00000000000E+00 0.  1.
</event>
<event>
 7    1 -0.3681768E-010  0.4778727E+02  0.7816164E-02  0.1312668E+00
        -11   -1    0    0    0    0  0.00000000000E+00  0.00000000000E+00  0.45593999997E+02  0.45594000000E+02  0.51100000000E-03 0. -1.
         11   -1    0    0    0    0 -0.00000000000E+00 -0.00000000000E+00 -0.45593999997E+02  0.45594000000E+02  0.51100000000E-03 0.  1.
    9900012    2    1    2    0    0 -0.81444410041E+00 -0.37652586111E+02 -0.21569487510E+02  0.47787270151E+02  0.19999995924E+02 0.  0.
         12    1    1    2    0    0  0.81444410041E+00  0.37652586111E+02  0.21569487510E+02  0.43400729849E+02  0.00000000000E+00 0. -1.
         11    1    3    3    0    0 -0.26994733457E+01 -0.22867883871E+02 -0.21628072397E+02  0.31591150422E+02  0.51100000000E-03 0. -1.
        -11    1    3    3    0    0 -0.17406138559E+01 -0.82621227088E+01 -0.14917605515E+01  0.85742497079E+01  0.51100000000E-03 0.  1.
         12    1    3    3    0    0  0.36256431012E+01 -0.65225795311E+01  0.15503454388E+01  0.76218700210E+01  0.00000000000E+00 0. -1.
</event>
<event>
 7    1  0.2812635E-010  0.4778727E+02  0.7816164E-02  0.1312668E+00
        -11   -1    0    0    0    0  0.00000000000E+00  0.00000000000E+00  0.45593999997E+02  0.45594000000E+02  0.51100000000E-03 0. -1.
         11   -1    0    0    0    0 -0.00000000000E+00 -0.00000000000E+00 -0.45593999997E+02  0.45594000000E+02  0.51100000000E-03 0.  1.
    9900012    2    1    2    0    0  0.29179085096E+02  0.25704159203E+02 -0.19274342081E+02  0.47787273393E+02  0.20000010707E+02 0.  0.
         12    1    1    2    0    0 -0.29179085096E+02 -0.25704159203E+02  0.19274342081E+02  0.43400726607E+02  0.00000000000E+00 0. -1.
         11    1    3    3    0    0  0.77123393099E+01 -0.15502253005E+01 -0.79645930133E+01  0.11194557528E+02  0.51100000000E-03 0. -1.
        -11    1    3    3    0    0  0.21232003254E+02  0.27034237814E+02 -0.10879998132E+02  0.36055822498E+02  0.51100000000E-03 0.  1.
        -12    1    3    3    0    0  0.23474253145E+00  0.22014669016E+00 -0.42975093574E+00  0.53689336747E+00  0.00000000000E+00 0.  1.
</event>
<event>
 7    1  0.2812635E-010  0.4778726E+02  0.7816164E-02  0.1312668E+00
        -11   -1    0    0    0    0  0.00000000000E+00  0.00000000000E+00  0.45593999997E+02  0.45594000000E+02  0.51100000000E-03 0. -1.
         11   -1    0    0    0    0 -0.00000000000E+00 -0.00000000000E+00 -0.45593999997E+02  0.45594000000E+02  0.51100000000E-03 0.  1.
    9900012    2    1    2    0    0 -0.35241348106E+02 -0.25279760444E+02  0.16140322780E+01  0.47787262626E+02  0.19999961616E+02 0.  0.
         12    1    1    2    0    0  0.35241348106E+02  0.25279760444E+02 -0.16140322780E+01  0.43400737374E+02  0.00000000000E+00 0. -1.
         11    1    3    3    0    0 -0.18000300809E+02 -0.36994614190E+01 -0.57869232529E+00  0.18385639208E+02  0.51100000000E-03 0. -1.
        -11    1    3    3    0    0 -0.71850943645E+01 -0.33201609102E+01 -0.19412474585E+01  0.81496927214E+01  0.51100000000E-03 0.  1.
         12    1    3    3    0    0 -0.10055952933E+02 -0.18260138114E+02  0.41339720617E+01  0.21251930697E+02  0.00000000000E+00 0. -1.
</event>
<event>
 7    1  0.2812635E-010  0.4778728E+02  0.7816164E-02  0.1312668E+00
        -11   -1    0    0    0    0  0.00000000000E+00  0.00000000000E+00  0.45593999997E+02  0.45594000000E+02  0.51100000000E-03 0. -1.
         11   -1    0    0    0    0 -0.00000000000E+00 -0.00000000000E+00 -0.45593999997E+02  0.45594000000E+02  0.51100000000E-03 0.  1.
    9900012    2    1    2    0    0  0.27402344394E+02 -0.28892006064E+02 -0.17262275847E+02  0.47787278115E+02  0.20000032237E+02 0.  0.
         12    1    1    2    0    0 -0.27402344394E+02  0.28892006064E+02  0.17262275847E+02  0.43400721885E+02  0.00000000000E+00 0. -1.
         11    1    3    3    0    0 -0.14390775442E+01 -0.61828544305E+01 -0.35111189254E+01  0.72544186160E+01  0.51100000000E-03 0. -1.
        -11    1    3    3    0    0  0.21448254230E+02 -0.16984212877E+02 -0.14831309444E+02  0.31120071283E+02  0.51100000000E-03 0.  1.
        -12    1    3    3    0    0  0.73931677088E+01 -0.57249387562E+01  0.10801525218E+01  0.94127882162E+01  0.00000000000E+00 0.  1.
</event>
<event>
 7    1  0.2812635E-010  0.4778728E+02  0.7816164E-02  0.1312668E+00
        -11   -1    0    0    0    0  0.00000000000E+00  0.00000000000E+00  0.45593999997E+02  0.45594000000E+02  0.51100000000E-03 0.  1.
         11   -1    0    0    0    0 -0.00000000000E+00 -0.00000000000E+00 -0.45593999997E+02  0.45594000000E+02  0.51100000000E-03 0. -1.
    9900012    2    1    2    0    0  0.30448046630E+02  0.15187682575E+02  0.26942034164E+02  0.47787280531E+02  0.20000043252E+02 0.  0.
         12    1    1    2    0    0 -0.30448046630E+02 -0.15187682575E+02 -0.26942034164E+02  0.43400719469E+02  0.00000000000E+00 0. -1.
         11    1    3    3    0    0  0.96185796864E-01  0.33406661329E+01  0.34999995239E+01  0.48393490107E+01  0.51100000000E-03 0. -1.
        -11    1    3    3    0    0  0.27523106943E+02  0.14767212733E+02  0.23137782836E+02  0.38870927215E+02  0.51100000000E-03 0.  1.
        -12    1    3    3    0    0  0.28287538894E+01 -0.29201962911E+01  0.30425180454E+00  0.40770043054E+01  0.00000000000E+00 0.  1.
</event>
<event>
 7    1  0.2812635E-010  0.4778727E+02  0.7816164E-02  0.1312668E+00
        -11   -1    0    0    0    0  0.00000000000E+00  0.00000000000E+00  0.45593999997E+02  0.45594000000E+02  0.51100000000E-03 0.  1.
         11   -1    0    0    0    0 -0.00000000000E+00 -0.00000000000E+00 -0.45593999997E+02  0.45594000000E+02  0.51100000000E-03 0. -1.
    9900012    2    1    2    0    0  0.16366989239E+02  0.76510658119E+00  0.40189046043E+02  0.47787272510E+02  0.20000006682E+02 0.  0.
         12    1    1    2    0    0 -0.16366989239E+02 -0.76510658119E+00 -0.40189046043E+02  0.43400727490E+02  0.00000000000E+00 0. -1.
         11    1    3    3    0    0 -0.17042502577E+01 -0.22875326334E+01  0.96430327503E+01  0.10056110350E+02  0.51100000000E-03 0. -1.
        -11    1    3    3    0    0  0.12955924577E+02  0.16221738666E+01  0.98263135890E+01  0.16341476944E+02  0.51100000000E-03 0.  1.
        -12    1    3    3    0    0  0.51153149204E+01  0.14304653480E+01  0.20719699704E+02  0.21389685216E+02  0.00000000000E+00 0.  1.
</event>
<event>
 7    1  0.2812635E-010  0.4778727E+02  0.7816164E-02  0.1312668E+00
        -11   -1    0    0    0    0  0.00000000000E+00  0.00000000000E+00  0.45593999997E+02  0.45594000000E+02  0.51100000000E-03 0. -1.
         11   -1    0    0    0    0 -0.00000000000E+00 -0.00000000000E+00 -0.45593999997E+02  0.45594000000E+02  0.51100000000E-03 0.  1.
    9900012    2    1    2    0    0  0.34898043627E+02 -0.25790147889E+02  0.78611208641E+00  0.47787272479E+02  0.20000006540E+02 0.  0.
         12    1    1    2    0    0 -0.34898043627E+02  0.25790147889E+02 -0.78611208641E+00  0.43400727521E+02  0.00000000000E+00 0. -1.
         11    1    3    3    0    0 -0.63126822560E+00 -0.66684450747E+01  0.18288768106E+01  0.69434465460E+01  0.51100000000E-03 0. -1.
        -11    1    3    3    0    0  0.23840019456E+02 -0.10927220598E+02 -0.31506090432E+01  0.26413576344E+02  0.51100000000E-03 0.  1.
        -12    1    3    3    0    0  0.11689292396E+02 -0.81944822169E+01  0.21078443191E+01  0.14430249589E+02  0.00000000000E+00 0.  1.
</event>
<event>
 7    1  0.2812635E-010  0.4778727E+02  0.7816164E-02  0.1312668E+00
        -11   -1    0    0    0    0  0.00000000000E+00  0.00000000000E+00  0.45593999997E+02  0.45594000000E+02  0.51100000000E-03 0. -1.
         11   -1    0    0    0    0 -0.00000000000E+00 -0.00000000000E+00 -0.45593999997E+02  0.45594000000E+02  0.51100000000E-03 0.  1.
    9900012    2    1    2    0    0 -0.10588796816E+02  0.71519917764E+01 -0.41477097398E+02  0.47787271747E+02  0.20000003202E+02 0.  0.
         12    1    1    2    0    0  0.10588796816E+02 -0.71519917764E+01  0.41477097398E+02  0.43400728253E+02  0.00000000000E+00 0. -1.
         11    1    3    3    0    0 -0.64426176377E+01  0.10387207839E+02 -0.30917738022E+02  0.33246171710E+02  0.51100000000E-03 0. -1.
        -11    1    3    3    0    0 -0.45270304149E+01 -0.21463906308E+00 -0.10565593652E+02  0.11496601402E+02  0.51100000000E-03 0.  1.
         12    1    3    3    0    0  0.38085123679E+00 -0.30205769993E+01  0.62342762885E-02  0.30444986352E+01  0.00000000000E+00 0. -1.
</event>
<event>
 7    1  0.2812635E-010  0.4778727E+02  0.7816164E-02  0.1312668E+00
        -11   -1    0    0    0    0  0.00000000000E+00  0.00000000000E+00  0.45593999997E+02  0.45594000000E+02  0.51100000000E-03 0.  1.
         11   -1    0    0    0    0 -0.00000000000E+00 -0.00000000000E+00 -0.45593999997E+02  0.45594000000E+02  0.51100000000E-03 0. -1.
    9900012    2    1    2    0    0  0.49543794199E+01 -0.28898184264E+02  0.31999565628E+02  0.47787272707E+02  0.20000007581E+02 0.  0.
         12    1    1    2    0    0 -0.49543794199E+01  0.28898184264E+02 -0.31999565628E+02  0.43400727293E+02  0.00000000000E+00 0. -1.
         11    1    3    3    0    0 -0.42501145725E+01 -0.14035808161E+02  0.68957807654E+01  0.16205529218E+02  0.51100000000E-03 0. -1.
        -11    1    3    3    0    0  0.50071412749E+01 -0.13757816278E+02  0.17405459709E+02  0.22744208063E+02  0.51100000000E-03 0.  1.
         12    1    3    3    0    0  0.41973527175E+01 -0.11045598256E+01  0.76983251529E+01  0.88375354259E+01  0.00000000000E+00 0. -1.
</event>
<event>
 7    1  0.2812635E-010  0.4778724E+02  0.7816164E-02  0.1312668E+00
        -11   -1    0    0    0    0  0.00000000000E+00  0.00000000000E+00  0.45593999997E+02  0.45594000000E+02  0.51100000000E-03 0.  1.
         11   -1    0    0    0    0 -0.00000000000E+00 -0.00000000000E+00 -0.45593999997E+02  0.45594000000E+02  0.51100000000E-03 0. -1.
    9900012    2    1    2    0    0  0.37250647696E+02 -0.14364979528E+02  0.17019470467E+02  0.47787242338E+02  0.19999869115E+02 0.  0.
         12    1    1    2    0    0 -0.37250647696E+02  0.14364979528E+02 -0.17019470467E+02  0.43400757662E+02  0.00000000000E+00 0. -1.
         11    1    3    3    0    0  0.19619674105E+02 -0.48657887467E+01  0.12007836959E+02  0.23511606938E+02  0.51100000000E-03 0.  1.
        -11    1    3    3    0    0  0.10419826640E+02 -0.12149924287E+02  0.25492774928E+01  0.16207784036E+02  0.51100000000E-03 0. -1.
        -12    1    3    3    0    0  0.72111469523E+01  0.26507335050E+01  0.24623560159E+01  0.80678513640E+01  0.00000000000E+00 0.  1.
</event>
<event>
 7    1  0.2812635E-010  0.4778726E+02  0.7816164E-02  0.1312668E+00
        -11   -1    0    0    0    0  0.00000000000E+00  0.00000000000E+00  0.45593999997E+02  0.45594000000E+02  0.51100000000E-03 0.  1.
         11   -1    0    0    0    0 -0.00000000000E+00 -0.00000000000E+00 -0.45593999997E+02  0.45594000000E+02  0.51100000000E-03 0. -1.
    9900012    2    1    2    0    0  0.19319954087E+02  0.23915581788E+01  0.38789737108E+02  0.47787264045E+02  0.19999968089E+02 0.  0.
         12    1    1    2    0    0 -0.19319954087E+02 -0.23915581788E+01 -0.38789737108E+02  0.43400735955E+02  0.00000000000E+00 0. -1.
         11    1    3    3    0    0  0.78470016690E+01 -0.73582126656E+00  0.21940839545E+01  0.81811290658E+01  0.51100000000E-03 0. -1.
        -11    1    3    3    0    0  0.61820738550E+00 -0.22707642766E+01  0.25670068690E+01  0.34825386283E+01  0.51100000000E-03 0.  1.
         12    1    3    3    0    0  0.10854745033E+02  0.53981437220E+01  0.34028646285E+02  0.36123596351E+02  0.00000000000E+00 0. -1.
</event>
<event>
 7    1  0.2812635E-010  0.4778727E+02  0.7816164E-02  0.1312668E+00
        -11   -1    0    0    0    0  0.00000000000E+00  0.00000000000E+00  0.45593999997E+02  0.45594000000E+02  0.51100000000E-03 0.  1.
         11   -1    0    0    0    0 -0.00000000000E+00 -0.00000000000E+00 -0.45593999997E+02  0.45594000000E+02  0.51100000000E-03 0. -1.
    9900012    2    1    2    0    0  0.35737590302E+02 -0.24624382331E+02  0.29638403659E+00  0.47787269485E+02  0.19999992888E+02 0.  0.
         12    1    1    2    0    0 -0.35737590302E+02  0.24624382331E+02 -0.29638403659E+00  0.43400730515E+02  0.00000000000E+00 0. -1.
         11    1    3    3    0    0  0.21241350932E+02 -0.81720288184E+01 -0.50484561820E+00  0.22764707637E+02  0.51100000000E-03 0. -1.
        -11    1    3    3    0    0  0.90552117711E+01 -0.17189243772E+02 -0.25998685505E+00  0.19430248457E+02  0.51100000000E-03 0.  1.
        -12    1    3    3    0    0  0.54410275982E+01  0.73689025912E+00  0.10612165098E+01  0.55923133907E+01  0.00000000000E+00 0.  1.
</event>
<event>
 7    1  0.2812635E-010  0.4778727E+02  0.7816164E-02  0.1312668E+00
        -11   -1    0    0    0    0  0.00000000000E+00  0.00000000000E+00  0.45593999997E+02  0.45594000000E+02  0.51100000000E-03 0.  1.
         11   -1    0    0    0    0 -0.00000000000E+00 -0.00000000000E+00 -0.45593999997E+02  0.45594000000E+02  0.51100000000E-03 0. -1.
    9900012    2    1    2    0    0  0.32965413289E+02 -0.24242872510E+02  0.14463334492E+02  0.47787269759E+02  0.19999994138E+02 0.  0.
         12    1    1    2    0    0 -0.32965413289E+02  0.24242872510E+02 -0.14463334492E+02  0.43400730241E+02  0.00000000000E+00 0. -1.
         11    1    3    3    0    0  0.47116239770E+01 -0.75908745145E+01  0.78147313109E+00  0.89683597671E+01  0.51100000000E-03 0. -1.
        -11    1    3    3    0    0  0.19350219721E+02 -0.32283357450E+01  0.10993786654E+02  0.22488141323E+02  0.51100000000E-03 0.  1.
        -12    1    3    3    0    0  0.89035695911E+01 -0.13423662250E+02  0.26880747078E+01  0.16330768669E+02  0.00000000000E+00 0.  1.
</event>
<event>
 7    1  0.2812635E-010  0.4778727E+02  0.7816164E-02  0.1312668E+00
        -11   -1    0    0    0    0  0.00000000000E+00  0.00000000000E+00  0.45593999997E+02  0.45594000000E+02  0.51100000000E-03 0.  1.
         11   -1    0    0    0    0 -0.00000000000E+00 -0.00000000000E+00 -0.45593999997E+02  0.45594000000E+02  0.51100000000E-03 0. -1.
    9900012    2    1    2    0    0 -0.76398048017E+01  0.42679001260E+02  0.19389587138E+01  0.47787270434E+02  0.19999997218E+02 0.  0.
         12    1    1    2    0    0  0.76398048017E+01 -0.42679001260E+02 -0.19389587138E+01  0.43400729566E+02  0.00000000000E+00 0. -1.
         11    1    3    3    0    0 -0.11293890107E+02  0.12956507731E+02 -0.17581076400E+01  0.17277557382E+02  0.51100000000E-03 0. -1.
        -11    1    3    3    0    0  0.26784208914E+01  0.16042597473E+02  0.41565636952E+01  0.16787373057E+02  0.51100000000E-03 0.  1.
         12    1    3    3    0    0  0.97566441414E+00  0.13679896056E+02 -0.45949734138E+00  0.13722339996E+02  0.00000000000E+00 0. -1.
</event>
<event>
 7    1  0.2812635E-010  0.4778727E+02  0.7816164E-02  0.1312668E+00
        -11   -1    0    0    0    0  0.00000000000E+00  0.00000000000E+00  0.45593999997E+02  0.45594000000E+02  0.51100000000E-03 0.  1.
         11   -1    0    0    0    0 -0.00000000000E+00 -0.00000000000E+00 -0.45593999997E+02  0.45594000000E+02  0.51100000000E-03 0. -1.
    9900012    2    1    2    0    0 -0.20409522304E+02  0.49925696993E+01  0.37975638181E+02  0.47787269037E+02  0.19999990847E+02 0.  0.
         12    1    1    2    0    0  0.20409522304E+02 -0.49925696993E+01 -0.37975638181E+02  0.43400730963E+02  0.00000000000E+00 0. -1.
         11    1    3    3    0    0 -0.18265973601E+02  0.57400825613E+01  0.16156522930E+02  0.25052496340E+02  0.51100000000E-03 0. -1.
        -11    1    3    3    0    0  0.93908946435E+00  0.19510744683E+01  0.98071562326E+01  0.10043350747E+02  0.51100000000E-03 0.  1.
         12    1    3    3    0    0 -0.30826381670E+01 -0.26985873303E+01  0.12011959019E+02  0.12691421950E+02  0.00000000000E+00 0. -1.
</event>
<event>
 7    1  0.2812635E-010  0.4778725E+02  0.7816164E-02  0.1312668E+00
        -11   -1    0    0    0    0  0.00000000000E+00  0.00000000000E+00  0.45593999997E+02  0.45594000000E+02  0.51100000000E-03 0.  1.
         11   -1    0    0    0    0 -0.00000000000E+00 -0.00000000000E+00 -0.45593999997E+02  0.45594000000E+02  0.51100000000E-03 0. -1.
    9900012    2    1    2    0    0 -0.32335054943E+02  0.93166263245E+01  0.27409303272E+02  0.47787248738E+02  0.19999898297E+02 0.  0.
         12    1    1    2    0    0  0.32335054943E+02 -0.93166263245E+01 -0.27409303272E+02  0.43400751262E+02  0.00000000000E+00 0. -1.
         11    1    3    3    0    0 -0.71867228790E+01  0.25973889962E+01 -0.65695649108E+00  0.76698766241E+01  0.51100000000E-03 0. -1.
        -11    1    3    3    0    0 -0.20841258426E+02  0.99404280526E+01  0.20802448808E+02  0.31079125459E+02  0.51100000000E-03 0.  1.
        -12    1    3    3    0    0 -0.43070736380E+01 -0.32211907243E+01  0.72638109550E+01  0.90382466549E+01  0.00000000000E+00 0.  1.
</event>
<event>
 7    1  0.2812635E-010  0.4778727E+02  0.7816164E-02  0.1312668E+00
        -11   -1    0    0    0    0  0.00000000000E+00  0.00000000000E+00  0.45593999997E+02  0.45594000000E+02  0.51100000000E-03 0. -1.
         11   -1    0    0    0    0 -0.00000000000E+00 -0.00000000000E+00 -0.45593999997E+02  0.45594000000E+02  0.51100000000E-03 0.  1.
    9900012    2    1    2    0    0  0.37003973828E+02 -0.20593522040E+02 -0.94992635174E+01  0.47787271476E+02  0.20000001967E+02 0.  0.
         12    1    1    2    0    0 -0.37003973828E+02  0.20593522040E+02  0.94992635174E+01  0.43400728524E+02  0.00000000000E+00 0. -1.
         11    1    3    3    0    0  0.30751311369E+01 -0.94492385987E+00 -0.55854408421E+01  0.64456545262E+01  0.51100000000E-03 0. -1.
        -11    1    3    3    0    0  0.26049195500E+02 -0.20448408241E+02 -0.43954319638E+01  0.33406852713E+02  0.51100000000E-03 0.  1.
        -12    1    3    3    0    0  0.78796471912E+01  0.79981006067E+00  0.48160928845E+00  0.79347642371E+01  0.00000000000E+00 0.  1.
</event>
<event>
 7    1  0.2812635E-010  0.4778727E+02  0.7816164E-02  0.1312668E+00
        -11   -1    0    0    0    0  0.00000000000E+00  0.00000000000E+00  0.45593999997E+02  0.45594000000E+02  0.51100000000E-03 0.  1.
         11   -1    0    0    0    0 -0.00000000000E+00 -0.00000000000E+00 -0.45593999997E+02  0.45594000000E+02  0.51100000000E-03 0. -1.
    9900012    2    1    2    0    0  0.68599314779E+01 -0.12897036340E+02  0.40868456407E+02  0.47787274945E+02  0.20000017784E+02 0.  0.
         12    1    1    2    0    0 -0.68599314779E+01  0.12897036340E+02 -0.40868456407E+02  0.43400725055E+02  0.00000000000E+00 0. -1.
         11    1    3    3    0    0 -0.51060522567E+00 -0.82958980189E+00  0.69434260780E+00  0.11962645418E+01  0.51100000000E-03 0. -1.
        -11    1    3    3    0    0  0.99132141808E+01 -0.13609395810E+02  0.40235897149E+02  0.43616681320E+02  0.51100000000E-03 0.  1.
        -12    1    3    3    0    0 -0.25426774772E+01  0.15419492720E+01 -0.61783350419E-01  0.29743290828E+01  0.00000000000E+00 0.  1.
</event>
<event>
 7    1  0.2812635E-010  0.4778727E+02  0.7816164E-02  0.1312668E+00
        -11   -1    0    0    0    0  0.00000000000E+00  0.00000000000E+00  0.45593999997E+02  0.45594000000E+02  0.51100000000E-03 0.  1.
         11   -1    0    0    0    0 -0.00000000000E+00 -0.00000000000E+00 -0.45593999997E+02  0.45594000000E+02  0.51100000000E-03 0. -1.
    9900012    2    1    2    0    0 -0.38319356919E+02 -0.13805213758E+02  0.14988860950E+02  0.47787274267E+02  0.20000014694E+02 0.  0.
         12    1    1    2    0    0  0.38319356919E+02  0.13805213758E+02 -0.14988860950E+02  0.43400725733E+02  0.00000000000E+00 0. -1.
         11    1    3    3    0    0 -0.10049349477E+02  0.30260901655E+00  0.57289508122E+00  0.10070213809E+02  0.51100000000E-03 0. -1.
        -11    1    3    3    0    0 -0.14588162952E+02 -0.94079437433E+01  0.92146209863E-01  0.17358928393E+02  0.51100000000E-03 0.  1.
        -12    1    3    3    0    0 -0.13681844490E+02 -0.46998790311E+01  0.14323819659E+02  0.20358132065E+02  0.00000000000E+00 0.  1.
</event>
<event>
 7    1  0.2812635E-010  0.4778728E+02  0.7816164E-02  0.1312668E+00
        -11   -1    0    0    0    0  0.00000000000E+00  0.00000000000E+00  0.45593999997E+02  0.45594000000E+02  0.51100000000E-03 0. -1.
         11   -1    0    0    0    0 -0.00000000000E+00 -0.00000000000E+00 -0.45593999997E+02  0.45594000000E+02  0.51100000000E-03 0.  1.
    9900012    2    1    2    0    0 -0.13763498866E+02 -0.13822818237E+00 -0.41160285778E+02  0.47787284183E+02  0.20000059906E+02 0.  0.
         12    1    1    2    0    0  0.13763498866E+02  0.13822818237E+00  0.41160285778E+02  0.43400715817E+02  0.00000000000E+00 0. -1.
         11    1    3    3    0    0  0.57064492303E-01 -0.28633741142E+01 -0.15678059250E+01  0.32649936223E+01  0.51100000000E-03 0. -1.
        -11    1    3    3    0    0 -0.11273874549E+02 -0.11018041694E+01 -0.38007886621E+02  0.39659975610E+02  0.51100000000E-03 0.  1.
        -12    1    3    3    0    0 -0.25466888093E+01  0.38269501012E+01 -0.15845932324E+01  0.48623149508E+01  0.00000000000E+00 0.  1.
</event>
<event>
 7    1  0.2812635E-010  0.4778727E+02  0.7816164E-02  0.1312668E+00
        -11   -1    0    0    0    0  0.00000000000E+00  0.00000000000E+00  0.45593999997E+02  0.45594000000E+02  0.51100000000E-03 0.  1.
         11   -1    0    0    0    0 -0.00000000000E+00 -0.00000000000E+00 -0.45593999997E+02  0.45594000000E+02  0.51100000000E-03 0. -1.
    9900012    2    1    2    0    0  0.34539304568E+02 -0.16496175508E+02  0.20458150713E+02  0.47787270778E+02  0.19999998783E+02 0.  0.
         12    1    1    2    0    0 -0.34539304568E+02  0.16496175508E+02 -0.20458150713E+02  0.43400729222E+02  0.00000000000E+00 0. -1.
         11    1    3    3    0    0  0.50842910102E+01 -0.76293832996E+01  0.50427507921E+00  0.91821456221E+01  0.51100000000E-03 0. -1.
        -11    1    3    3    0    0  0.28203670759E+02 -0.11033288467E+02  0.16985515245E+02  0.34723021572E+02  0.51100000000E-03 0.  1.
        -12    1    3    3    0    0  0.12513427994E+01  0.21664962585E+01  0.29683603886E+01  0.38821035839E+01  0.00000000000E+00 0.  1.
</event>
<event>
 7    1  0.2812635E-010  0.4778727E+02  0.7816164E-02  0.1312668E+00
        -11   -1    0    0    0    0  0.00000000000E+00  0.00000000000E+00  0.45593999997E+02  0.45594000000E+02  0.51100000000E-03 0.  1.
         11   -1    0    0    0    0 -0.00000000000E+00 -0.00000000000E+00 -0.45593999997E+02  0.45594000000E+02  0.51100000000E-03 0. -1.
    9900012    2    1    2    0    0  0.26767822320E+02 -0.22702451319E+02 -0.25528524010E+02  0.47787272521E+02  0.20000006730E+02 0.  0.
         12    1    1    2    0    0 -0.26767822320E+02  0.22702451319E+02  0.25528524010E+02  0.43400727479E+02  0.00000000000E+00 0. -1.
         11    1    3    3    0    0  0.88641350454E+01 -0.46705638913E+01  0.53971766053E+00  0.10033860303E+02  0.51100000000E-03 0. -1.
        -11    1    3    3    0    0  0.12292014962E+02 -0.17868621244E+02 -0.21035014282E+02  0.30213458642E+02  0.51100000000E-03 0.  1.
        -12    1    3    3    0    0  0.56116723118E+01 -0.16326618391E+00 -0.50332273887E+01  0.75399535760E+01  0.00000000000E+00 0.  1.
</event>
<event>
 7    1  0.2812635E-010  0.4778727E+02  0.7816164E-02  0.1312668E+00
        -11   -1    0    0    0    0  0.00000000000E+00  0.00000000000E+00  0.45593999997E+02  0.45594000000E+02  0.51100000000E-03 0. -1.
         11   -1    0    0    0    0 -0.00000000000E+00 -0.00000000000E+00 -0.45593999997E+02  0.45594000000E+02  0.51100000000E-03 0.  1.
    9900012    2    1    2    0    0  0.20450737448E+02 -0.86760846153E+01 -0.37284262219E+02  0.47787270563E+02  0.19999997804E+02 0.  0.
         12    1    1    2    0    0 -0.20450737448E+02  0.86760846153E+01  0.37284262219E+02  0.43400729437E+02  0.00000000000E+00 0. -1.
         11    1    3    3    0    0  0.19313123024E+01  0.29855731824E+01 -0.11197427579E+02  0.11748446666E+02  0.51100000000E-03 0. -1.
        -11    1    3    3    0    0  0.30289664581E+01 -0.15333965009E+01 -0.12833868878E+02  0.13275320459E+02  0.51100000000E-03 0.  1.
         12    1    3    3    0    0  0.15490458688E+02 -0.10128261297E+02 -0.13252965763E+02  0.22763503438E+02  0.00000000000E+00 0. -1.
</event>
<event>
 7    1  0.2812635E-010  0.4778727E+02  0.7816164E-02  0.1312668E+00
        -11   -1    0    0    0    0  0.00000000000E+00  0.00000000000E+00  0.45593999997E+02  0.45594000000E+02  0.51100000000E-03 0.  1.
         11   -1    0    0    0    0 -0.00000000000E+00 -0.00000000000E+00 -0.45593999997E+02  0.45594000000E+02  0.51100000000E-03 0. -1.
    9900012    2    1    2    0    0 -0.36791788617E+02 -0.21210179875E+02  0.89507499770E+01  0.47787269993E+02  0.19999995208E+02 0.  0.
         12    1    1    2    0    0  0.36791788617E+02  0.21210179875E+02 -0.89507499770E+01  0.43400730007E+02  0.00000000000E+00 0. -1.
         11    1    3    3    0    0 -0.19949786955E+02 -0.37800370699E+01  0.85647251219E+01  0.22037177598E+02  0.51100000000E-03 0. -1.
        -11    1    3    3    0    0 -0.15148097453E+02 -0.16345954654E+02  0.29622857634E+01  0.22481775446E+02  0.51100000000E-03 0.  1.
         12    1    3    3    0    0 -0.16939042085E+01 -0.10841881507E+01 -0.25762609083E+01  0.32683169493E+01  0.00000000000E+00 0. -1.
</event>
<event>
 7    1  0.2812635E-010  0.4778727E+02  0.7816164E-02  0.1312668E+00
        -11   -1    0    0    0    0  0.00000000000E+00  0.00000000000E+00  0.45593999997E+02  0.45594000000E+02  0.51100000000E-03 0.  1.
         11   -1    0    0    0    0 -0.00000000000E+00 -0.00000000000E+00 -0.45593999997E+02  0.45594000000E+02  0.51100000000E-03 0. -1.
    9900012    2    1    2    0    0  0.42176367943E+01  0.10841200032E+02  0.41812716980E+02  0.47787269827E+02  0.19999994450E+02 0.  0.
         12    1    1    2    0    0 -0.42176367943E+01 -0.10841200032E+02 -0.41812716980E+02  0.43400730173E+02  0.00000000000E+00 0. -1.
         11    1    3    3    0    0  0.48861154601E+01  0.17534619118E+00  0.10674192740E+02  0.11740666995E+02  0.51100000000E-03 0. -1.
        -11    1    3    3    0    0 -0.40383201752E+01 -0.27882279848E-01  0.14157278615E+01  0.42793799666E+01  0.51100000000E-03 0.  1.
        -12    1    3    3    0    0  0.33698415095E+01  0.10693736121E+02  0.29722796378E+02  0.31767222865E+02  0.00000000000E+00 0.  1.
</event>
<event>
 7    1  0.2812635E-010  0.4778727E+02  0.7816164E-02  0.1312668E+00
        -11   -1    0    0    0    0  0.00000000000E+00  0.00000000000E+00  0.45593999997E+02  0.45594000000E+02  0.51100000000E-03 0.  1.
         11   -1    0    0    0    0 -0.00000000000E+00 -0.00000000000E+00 -0.45593999997E+02  0.45594000000E+02  0.51100000000E-03 0. -1.
    9900012    2    1    2    0    0 -0.12480385989E+02  0.16821596561E+02  0.38011802099E+02  0.47787271387E+02  0.20000001561E+02 0.  0.
         12    1    1    2    0    0  0.12480385989E+02 -0.16821596561E+02 -0.38011802099E+02  0.43400728613E+02  0.00000000000E+00 0. -1.
         11    1    3    3    0    0 -0.63536846037E+01  0.12497196394E+02  0.93883170778E+01  0.16872750919E+02  0.51100000000E-03 0. -1.
        -11    1    3    3    0    0  0.21901654866E+00  0.34255297592E+01  0.31900955683E+01  0.46860358914E+01  0.51100000000E-03 0.  1.
         12    1    3    3    0    0 -0.63457179338E+01  0.89887040837E+00  0.25433389453E+02  0.26228484577E+02  0.00000000000E+00 0. -1.
</event>
<event>
 7    1  0.2812635E-010  0.4778726E+02  0.7816164E-02  0.1312668E+00
        -11   -1    0    0    0    0  0.00000000000E+00  0.00000000000E+00  0.45593999997E+02  0.45594000000E+02  0.51100000000E-03 0.  1.
         11   -1    0    0    0    0 -0.00000000000E+00 -0.00000000000E+00 -0.45593999997E+02  0.45594000000E+02  0.51100000000E-03 0. -1.
    9900012    2    1    2    0    0  0.77798649731E+01 -0.30720910089E+02  0.29653384222E+02  0.47787264850E+02  0.19999971759E+02 0.  0.
         12    1    1    2    0    0 -0.77798649731E+01  0.30720910089E+02 -0.29653384222E+02  0.43400735150E+02  0.00000000000E+00 0. -1.
         11    1    3    3    0    0  0.69342796632E+01 -0.77750330093E+01  0.17401365180E+02  0.20281589758E+02  0.51100000000E-03 0. -1.
        -11    1    3    3    0    0  0.15606965821E+00 -0.19492214631E+02  0.13563700025E+02  0.23747520872E+02  0.51100000000E-03 0.  1.
         12    1    3    3    0    0  0.68951565174E+00 -0.34536624482E+01 -0.13116809819E+01  0.37581542196E+01  0.00000000000E+00 0. -1.
</event>
<event>
 7    1  0.2812635E-010  0.4778725E+02  0.7816164E-02  0.1312668E+00
        -11   -1    0    0    0    0  0.00000000000E+00  0.00000000000E+00  0.45593999997E+02  0.45594000000E+02  0.51100000000E-03 0.  1.
         11   -1    0    0    0    0 -0.00000000000E+00 -0.00000000000E+00 -0.45593999997E+02  0.45594000000E+02  0.51100000000E-03 0. -1.
    9900012    2    1    2    0    0  0.38518738340E+02 -0.13307817315E+02  0.14927619906E+02  0.47787250685E+02  0.19999907174E+02 0.  0.
         12    1    1    2    0    0 -0.38518738340E+02  0.13307817315E+02 -0.14927619906E+02  0.43400749315E+02  0.00000000000E+00 0. -1.
         11    1    3    3    0    0  0.10310748597E+02 -0.19417089182E+01  0.33781339568E+01  0.11022411689E+02  0.51100000000E-03 0.  1.
        -11    1    3    3    0    0  0.16480080505E+02  0.57759889352E+00  0.11051757716E+00  0.16490569679E+02  0.51100000000E-03 0. -1.
        -12    1    3    3    0    0  0.11727909238E+02 -0.11943707291E+02  0.11438968372E+02  0.20274269317E+02  0.00000000000E+00 0.  1.
</event>
<event>
 7    1  0.2812635E-010  0.4778727E+02  0.7816164E-02  0.1312668E+00
        -11   -1    0    0    0    0  0.00000000000E+00  0.00000000000E+00  0.45593999997E+02  0.45594000000E+02  0.51100000000E-03 0.  1.
         11   -1    0    0    0    0 -0.00000000000E+00 -0.00000000000E+00 -0.45593999997E+02  0.45594000000E+02  0.51100000000E-03 0. -1.
    9900012    2    1    2    0    0  0.21649747994E+02  0.15521560569E+02  0.34263581077E+02  0.47787269373E+02  0.19999992381E+02 0.  0.
         12    1    1    2    0    0 -0.21649747994E+02 -0.15521560569E+02 -0.34263581077E+02  0.43400730627E+02  0.00000000000E+00 0. -1.
         11    1    3    3    0    0 -0.91134100842E-01 -0.22574584480E+01  0.38838713534E+00  0.22924373267E+01  0.51100000000E-03 0. -1.
        -11    1    3    3    0    0  0.15474626529E+02  0.18187917139E+02  0.28856592740E+02  0.37456205640E+02  0.51100000000E-03 0.  1.
        -12    1    3    3    0    0  0.62662555661E+01 -0.40889812217E+00  0.50186012013E+01  0.80386264070E+01  0.00000000000E+00 0.  1.
</event>
<event>
 7    1  0.2812635E-010  0.4778727E+02  0.7816164E-02  0.1312668E+00
        -11   -1    0    0    0    0  0.00000000000E+00  0.00000000000E+00  0.45593999997E+02  0.45594000000E+02  0.51100000000E-03 0. -1.
         11   -1    0    0    0    0 -0.00000000000E+00 -0.00000000000E+00 -0.45593999997E+02  0.45594000000E+02  0.51100000000E-03 0.  1.
    9900012    2    1    2    0    0  0.33308654257E+02 -0.14396258425E+02 -0.23809766463E+02  0.47787266319E+02  0.19999978455E+02 0.  0.
         12    1    1    2    0    0 -0.33308654257E+02  0.14396258425E+02  0.23809766463E+02  0.43400733681E+02  0.00000000000E+00 0. -1.
         11    1    3    3    0    0  0.14439858239E+02  0.24539478799E+00 -0.35759825889E+01  0.14878083758E+02  0.51100000000E-03 0. -1.
        -11    1    3    3    0    0  0.13102991480E+02 -0.85867976311E+01 -0.18723464888E+02  0.24412898578E+02  0.51100000000E-03 0.  1.
         12    1    3    3    0    0  0.57658045376E+01 -0.60548555820E+01 -0.15103189857E+01  0.84962839832E+01  0.00000000000E+00 0. -1.
</event>
<event>
 7    1 -0.2812635E-010  0.4778726E+02  0.7816164E-02  0.1312668E+00
        -11   -1    0    0    0    0  0.00000000000E+00  0.00000000000E+00  0.45593999997E+02  0.45594000000E+02  0.51100000000E-03 0.  1.
         11   -1    0    0    0    0 -0.00000000000E+00 -0.00000000000E+00 -0.45593999997E+02  0.45594000000E+02  0.51100000000E-03 0. -1.
    9900012    2    1    2    0    0  0.19939883983E+02  0.10706951184E+02  0.37032240343E+02  0.47787255747E+02  0.19999930252E+02 0.  0.
         12    1    1    2    0    0 -0.19939883983E+02 -0.10706951184E+02 -0.37032240343E+02  0.43400744253E+02  0.00000000000E+00 0. -1.
         11    1    3    3    0    0  0.16509036117E+01 -0.21180805805E+01  0.15050298751E+01  0.30784514397E+01  0.51100000000E-03 0. -1.
        -11    1    3    3    0    0  0.19530799861E+02  0.63794699563E+01  0.27830030846E+02  0.34592779554E+02  0.51100000000E-03 0.  1.
        -12    1    3    3    0    0 -0.12418194897E+01  0.64455618085E+01  0.76971796221E+01  0.10116024753E+02  0.00000000000E+00 0.  1.
</event>
<event>
 7    1  0.2812635E-010  0.4778732E+02  0.7816164E-02  0.1312668E+00
        -11   -1    0    0    0    0  0.00000000000E+00  0.00000000000E+00  0.45593999997E+02  0.45594000000E+02  0.51100000000E-03 0.  1.
         11   -1    0    0    0    0 -0.00000000000E+00 -0.00000000000E+00 -0.45593999997E+02  0.45594000000E+02  0.51100000000E-03 0. -1.
    9900012    2    1    2    0    0  0.40920392400E+02 -0.35094657503E+01  0.14029393667E+02  0.47787323154E+02  0.20000237589E+02 0.  0.
         12    1    1    2    0    0 -0.40920392400E+02  0.35094657503E+01 -0.14029393667E+02  0.43400676846E+02  0.00000000000E+00 0. -1.
         11    1    3    3    0    0  0.37290170645E+01  0.35899168370E+01 -0.48941153345E+00  0.51992879391E+01  0.51100000000E-03 0. -1.
        -11    1    3    3    0    0  0.36447769684E+02 -0.93768768968E+01  0.13467869624E+02  0.39971855696E+02  0.51100000000E-03 0.  1.
        -12    1    3    3    0    0  0.74360565112E+00  0.22774943096E+01  0.10509355762E+01  0.26161795198E+01  0.00000000000E+00 0.  1.
</event>
<event>
 7    1  0.2812635E-010  0.4778727E+02  0.7816164E-02  0.1312668E+00
        -11   -1    0    0    0    0  0.00000000000E+00  0.00000000000E+00  0.45593999997E+02  0.45594000000E+02  0.51100000000E-03 0.  1.
         11   -1    0    0    0    0 -0.00000000000E+00 -0.00000000000E+00 -0.45593999997E+02  0.45594000000E+02  0.51100000000E-03 0. -1.
    9900012    2    1    2    0    0 -0.20313310241E+02  0.16004812200E+02  0.34854536563E+02  0.47787270680E+02  0.19999998337E+02 0.  0.
         12    1    1    2    0    0  0.20313310241E+02 -0.16004812200E+02 -0.34854536563E+02  0.43400729320E+02  0.00000000000E+00 0. -1.
         11    1    3    3    0    0 -0.17395244290E+02  0.10113370721E+02  0.11959537326E+02  0.23407377567E+02  0.51100000000E-03 0. -1.
        -11    1    3    3    0    0 -0.17261375910E+01  0.39844335040E+01  0.64106263874E+01  0.77428284413E+01  0.51100000000E-03 0.  1.
         12    1    3    3    0    0 -0.11919283592E+01  0.19070079754E+01  0.16484372850E+02  0.16637064671E+02  0.00000000000E+00 0. -1.
</event>
<event>
 7    1  0.2812635E-010  0.4778727E+02  0.7816164E-02  0.1312668E+00
        -11   -1    0    0    0    0  0.00000000000E+00  0.00000000000E+00  0.45593999997E+02  0.45594000000E+02  0.51100000000E-03 0. -1.
         11   -1    0    0    0    0 -0.00000000000E+00 -0.00000000000E+00 -0.45593999997E+02  0.45594000000E+02  0.51100000000E-03 0.  1.
    9900012    2    1    2    0    0 -0.17085139557E+02  0.38358961681E+02 -0.10968648100E+02  0.47787272171E+02  0.20000005136E+02 0.  0.
         12    1    1    2    0    0  0.17085139557E+02 -0.38358961681E+02  0.10968648100E+02  0.43400727829E+02  0.00000000000E+00 0. -1.
         11    1    3    3    0    0 -0.47797403790E+01  0.24250383907E+01  0.22343341135E+01  0.58068044981E+01  0.51100000000E-03 0. -1.
        -11    1    3    3    0    0 -0.47774327083E+01  0.29609344630E+02 -0.92872501325E+01  0.31397295552E+02  0.51100000000E-03 0.  1.
        -12    1    3    3    0    0 -0.75279664699E+01  0.63245786605E+01 -0.39157320806E+01  0.10583172120E+02  0.00000000000E+00 0.  1.
</event>
<event>
 7    1  0.2812635E-010  0.4778727E+02  0.7816164E-02  0.1312668E+00
        -11   -1    0    0    0    0  0.00000000000E+00  0.00000000000E+00  0.45593999997E+02  0.45594000000E+02  0.51100000000E-03 0.  1.
         11   -1    0    0    0    0 -0.00000000000E+00 -0.00000000000E+00 -0.45593999997E+02  0.45594000000E+02  0.51100000000E-03 0. -1.
    9900012    2    1    2    0    0 -0.21094237446E+02 -0.17934064465E+02  0.33421934749E+02  0.47787271388E+02  0.20000001567E+02 0.  0.
         12    1    1    2    0    0  0.21094237446E+02  0.17934064465E+02 -0.33421934749E+02  0.43400728612E+02  0.00000000000E+00 0. -1.
         11    1    3    3    0    0  0.18423528872E+01  0.76934682823E+00  0.29868468013E+01  0.35926887951E+01  0.51100000000E-03 0. -1.
        -11    1    3    3    0    0 -0.15978885193E+02 -0.19016813046E+02  0.25887940877E+02  0.35876864879E+02  0.51100000000E-03 0.  1.
        -12    1    3    3    0    0 -0.69577051408E+01  0.31340175306E+00  0.45471470713E+01  0.83177177142E+01  0.00000000000E+00 0.  1.
</event>
<event>
 7    1  0.2812635E-010  0.4778728E+02  0.7816164E-02  0.1312668E+00
        -11   -1    0    0    0    0  0.00000000000E+00  0.00000000000E+00  0.45593999997E+02  0.45594000000E+02  0.51100000000E-03 0.  1.
         11   -1    0    0    0    0 -0.00000000000E+00 -0.00000000000E+00 -0.45593999997E+02  0.45594000000E+02  0.51100000000E-03 0. -1.
    9900012    2    1    2    0    0 -0.40941176428E+01  0.41129937377E+02  0.13235912496E+02  0.47787275035E+02  0.20000018194E+02 0.  0.
         12    1    1    2    0    0  0.40941176428E+01 -0.41129937377E+02 -0.13235912496E+02  0.43400724965E+02  0.00000000000E+00 0. -1.
         11    1    3    3    0    0 -0.52179599142E+01  0.36033339755E+02  0.87080349908E+01  0.37436059531E+02  0.51100000000E-03 0. -1.
        -11    1    3    3    0    0  0.22440776176E+01  0.47743380178E+01  0.63081211171E+01  0.82232949692E+01  0.51100000000E-03 0.  1.
         12    1    3    3    0    0 -0.11202353463E+01  0.32225960426E+00 -0.17802436119E+01  0.21279205345E+01  0.00000000000E+00 0. -1.
</event>
<event>
 7    1  0.2812635E-010  0.4778727E+02  0.7816164E-02  0.1312668E+00
        -11   -1    0    0    0    0  0.00000000000E+00  0.00000000000E+00  0.45593999997E+02  0.45594000000E+02  0.51100000000E-03 0.  1.
         11   -1    0    0    0    0 -0.00000000000E+00 -0.00000000000E+00 -0.45593999997E+02  0.45594000000E+02  0.51100000000E-03 0. -1.
    9900012    2    1    2    0    0 -0.41046704958E+02  0.14008290429E+02 -0.15996708158E+01  0.47787272640E+02  0.20000007276E+02 0.  0.
         12    1    1    2    0    0  0.41046704958E+02 -0.14008290429E+02  0.15996708158E+01  0.43400727360E+02  0.00000000000E+00 0. -1.
         11    1    3    3    0    0 -0.30194437588E+01  0.43549983928E+01  0.23155870154E+00  0.53044011261E+01  0.51100000000E-03 0. -1.
        -11    1    3    3    0    0 -0.24444962783E+02  0.13357324944E+02 -0.43107400531E+01  0.28187884192E+02  0.51100000000E-03 0.  1.
        -12    1    3    3    0    0 -0.13582298416E+02 -0.37040329086E+01  0.24795105358E+01  0.14294987322E+02  0.00000000000E+00 0.  1.
</event>
<event>
 7    1  0.2812635E-010  0.4778727E+02  0.7816164E-02  0.1312668E+00
        -11   -1    0    0    0    0  0.00000000000E+00  0.00000000000E+00  0.45593999997E+02  0.45594000000E+02  0.51100000000E-03 0.  1.
         11   -1    0    0    0    0 -0.00000000000E+00 -0.00000000000E+00 -0.45593999997E+02  0.45594000000E+02  0.51100000000E-03 0. -1.
    9900012    2    1    2    0    0 -0.34144981648E+02 -0.52593867683E+01  0.26269420384E+02  0.47787269958E+02  0.19999995046E+02 0.  0.
         12    1    1    2    0    0  0.34144981648E+02  0.52593867683E+01 -0.26269420384E+02  0.43400730042E+02  0.00000000000E+00 0. -1.
         11    1    3    3    0    0 -0.18907970986E+02 -0.61286139734E+01  0.59287508875E+01  0.20741778212E+02  0.51100000000E-03 0. -1.
        -11    1    3    3    0    0 -0.93108354435E+01  0.44318024380E+01  0.86333174933E+01  0.13448669105E+02  0.51100000000E-03 0.  1.
         12    1    3    3    0    0 -0.59261752184E+01 -0.35625752329E+01  0.11707352003E+02  0.13596822641E+02  0.00000000000E+00 0. -1.
</event>
<event>
 7    1  0.2812635E-010  0.4778727E+02  0.7816164E-02  0.1312668E+00
        -11   -1    0    0    0    0  0.00000000000E+00  0.00000000000E+00  0.45593999997E+02  0.45594000000E+02  0.51100000000E-03 0.  1.
         11   -1    0    0    0    0 -0.00000000000E+00 -0.00000000000E+00 -0.45593999997E+02  0.45594000000E+02  0.51100000000E-03 0. -1.
    9900012    2    1    2    0    0  0.60738681368E+00 -0.43389235653E+02  0.79282753480E+00  0.47787271149E+02  0.20000000479E+02 0.  0.
         12    1    1    2    0    0 -0.60738681368E+00  0.43389235653E+02 -0.79282753480E+00  0.43400728851E+02  0.00000000000E+00 0. -1.
         11    1    3    3    0    0  0.30537991230E+01 -0.19571916260E+01  0.36442988379E+01  0.51417120131E+01  0.51100000000E-03 0. -1.
        -11    1    3    3    0    0  0.23867011089E+01 -0.99478287522E+01 -0.34224085149E+01  0.10787424130E+02  0.51100000000E-03 0.  1.
         12    1    3    3    0    0 -0.48331134182E+01 -0.31484215274E+02  0.57093721175E+00  0.31858135006E+02  0.00000000000E+00 0. -1.
</event>
<event>
 7    1  0.2812635E-010  0.4778727E+02  0.7816164E-02  0.1312668E+00
        -11   -1    0    0    0    0  0.00000000000E+00  0.00000000000E+00  0.45593999997E+02  0.45594000000E+02  0.51100000000E-03 0.  1.
         11   -1    0    0    0    0 -0.00000000000E+00 -0.00000000000E+00 -0.45593999997E+02  0.45594000000E+02  0.51100000000E-03 0. -1.
    9900012    2    1    2    0    0 -0.43428199193E+01 -0.24514485370E+02  0.35550006613E+02  0.47787273647E+02  0.20000011867E+02 0.  0.
         12    1    1    2    0    0  0.43428199193E+01  0.24514485370E+02 -0.35550006613E+02  0.43400726353E+02  0.00000000000E+00 0. -1.
         11    1    3    3    0    0  0.56980022725E+01 -0.11184427251E+02  0.97355433208E+01  0.15885195839E+02  0.51100000000E-03 0. -1.
        -11    1    3    3    0    0  0.80918190272E+00 -0.15754677487E+01  0.31290747936E+00  0.17985508974E+01  0.51100000000E-03 0.  1.
         12    1    3    3    0    0 -0.10850004095E+02 -0.11754590370E+02  0.25501555812E+02  0.30103526911E+02  0.00000000000E+00 0. -1.
</event>
<event>
 7    1  0.2812635E-010  0.4778728E+02  0.7816164E-02  0.1312668E+00
        -11   -1    0    0    0    0  0.00000000000E+00  0.00000000000E+00  0.45593999997E+02  0.45594000000E+02  0.51100000000E-03 0.  1.
         11   -1    0    0    0    0 -0.00000000000E+00 -0.00000000000E+00 -0.45593999997E+02  0.45594000000E+02  0.51100000000E-03 0. -1.
    9900012    2    1    2    0    0 -0.18544401055E+02 -0.23242496658E+02  0.31615088326E+02  0.47787282595E+02  0.20000052662E+02 0.  0.
         12    1    1    2    0    0  0.18544401055E+02  0.23242496658E+02 -0.31615088326E+02  0.43400717405E+02  0.00000000000E+00 0. -1.
         11    1    3    3    0    0 -0.12046687573E+02 -0.11746000230E+02  0.79819522483E+01  0.18622641188E+02  0.51100000000E-03 0. -1.
        -11    1    3    3    0    0 -0.50162872402E-01 -0.10459594146E+02  0.12989319766E+02  0.16677171651E+02  0.51100000000E-03 0.  1.
         12    1    3    3    0    0 -0.64475506103E+01 -0.10369022822E+01  0.10643816312E+02  0.12487469755E+02  0.00000000000E+00 0. -1.
</event>
<event>
 7    1  0.2812635E-010  0.4778727E+02  0.7816164E-02  0.1312668E+00
        -11   -1    0    0    0    0  0.00000000000E+00  0.00000000000E+00  0.45593999997E+02  0.45594000000E+02  0.51100000000E-03 0.  1.
         11   -1    0    0    0    0 -0.00000000000E+00 -0.00000000000E+00 -0.45593999997E+02  0.45594000000E+02  0.51100000000E-03 0. -1.
    9900012    2    1    2    0    0 -0.23683053742E+02  0.22420764305E+02  0.28636437771E+02  0.47787271034E+02  0.19999999953E+02 0.  0.
         12    1    1    2    0    0  0.23683053742E+02 -0.22420764305E+02 -0.28636437771E+02  0.43400728966E+02  0.00000000000E+00 0. -1.
         11    1    3    3    0    0  0.18684508589E+00 -0.82305574454E+00 -0.44337776476E+00  0.95337083454E+00  0.51100000000E-03 0. -1.
        -11    1    3    3    0    0 -0.11891704483E+02  0.16639223038E+01  0.87423816099E+01  0.14852962984E+02  0.51100000000E-03 0.  1.
        -12    1    3    3    0    0 -0.11978194346E+02  0.21579897746E+02  0.20337433925E+02  0.31980937215E+02  0.00000000000E+00 0.  1.
</event>
<event>
 7    1  0.2812635E-010  0.4778727E+02  0.7816164E-02  0.1312668E+00
        -11   -1    0    0    0    0  0.00000000000E+00  0.00000000000E+00  0.45593999997E+02  0.45594000000E+02  0.51100000000E-03 0. -1.
         11   -1    0    0    0    0 -0.00000000000E+00 -0.00000000000E+00 -0.45593999997E+02  0.45594000000E+02  0.51100000000E-03 0.  1.
    9900012    2    1    2    0    0 -0.39242178522E+02 -0.11033222893E+02 -0.14897752952E+02  0.47787266992E+02  0.19999981525E+02 0.  0.
         12    1    1    2    0    0  0.39242178522E+02  0.11033222893E+02  0.14897752952E+02  0.43400733008E+02  0.00000000000E+00 0. -1.
         11    1    3    3    0    0 -0.46313324531E+01 -0.36652922479E+01 -0.28597457743E+01  0.65621455111E+01  0.51100000000E-03 0. -1.
        -11    1    3    3    0    0  0.19714833432E+01 -0.97379397520E+00 -0.43729502685E-01  0.21993030280E+01  0.51100000000E-03 0.  1.
        -12    1    3    3    0    0 -0.36582329412E+02 -0.63941366696E+01 -0.11994277675E+02  0.39025818453E+02  0.00000000000E+00 0.  1.
</event>
<event>
 7    1  0.2812635E-010  0.4778724E+02  0.7816164E-02  0.1312668E+00
        -11   -1    0    0    0    0  0.00000000000E+00  0.00000000000E+00  0.45593999997E+02  0.45594000000E+02  0.51100000000E-03 0.  1.
         11   -1    0    0    0    0 -0.00000000000E+00 -0.00000000000E+00 -0.45593999997E+02  0.45594000000E+02  0.51100000000E-03 0. -1.
    9900012    2    1    2    0    0  0.29181129031E+02  0.17529238219E+01  0.32078259389E+02  0.47787242416E+02  0.19999869473E+02 0.  0.
         12    1    1    2    0    0 -0.29181129031E+02 -0.17529238219E+01 -0.32078259389E+02  0.43400757584E+02  0.00000000000E+00 0. -1.
         11    1    3    3    0    0  0.73180282113E+01  0.45350166131E+01  0.59206781051E+01  0.10448652644E+02  0.51100000000E-03 0. -1.
        -11    1    3    3    0    0  0.19866704896E+02  0.16770919270E+01  0.14363238903E+02  0.24572367261E+02  0.51100000000E-03 0.  1.
        -12    1    3    3    0    0  0.19963959232E+01 -0.44591847182E+01  0.11794342380E+02  0.12766222512E+02  0.00000000000E+00 0.  1.
</event>
<event>
 7    1  0.2812635E-010  0.4778727E+02  0.7816164E-02  0.1312668E+00
        -11   -1    0    0    0    0  0.00000000000E+00  0.00000000000E+00  0.45593999997E+02  0.45594000000E+02  0.51100000000E-03 0.  1.
         11   -1    0    0    0    0 -0.00000000000E+00 -0.00000000000E+00 -0.45593999997E+02  0.45594000000E+02  0.51100000000E-03 0. -1.
    9900012    2    1    2    0    0 -0.37789072454E+02  0.20527446593E+02  0.58509146804E+01  0.47787271168E+02  0.20000000561E+02 0.  0.
         12    1    1    2    0    0  0.37789072454E+02 -0.20527446593E+02 -0.58509146804E+01  0.43400728832E+02  0.00000000000E+00 0. -1.
         11    1    3    3    0    0 -0.93367762757E+01  0.64369073411E+01 -0.59557815681E+01  0.12809391152E+02  0.51100000000E-03 0. -1.
        -11    1    3    3    0    0 -0.93178130452E+01  0.88395525549E+01  0.26005619773E+01  0.13104283734E+02  0.51100000000E-03 0.  1.
         12    1    3    3    0    0 -0.19134483133E+02  0.52509866975E+01  0.92061342711E+01  0.21873596282E+02  0.00000000000E+00 0. -1.
</event>
<event>
 7    1  0.2812635E-010  0.4778727E+02  0.7816164E-02  0.1312668E+00
        -11   -1    0    0    0    0  0.00000000000E+00  0.00000000000E+00  0.45593999997E+02  0.45594000000E+02  0.51100000000E-03 0.  1.
         11   -1    0    0    0    0 -0.00000000000E+00 -0.00000000000E+00 -0.45593999997E+02  0.45594000000E+02  0.51100000000E-03 0. -1.
    9900012    2    1    2    0    0 -0.14041532357E+02 -0.73709893133E-01  0.41066453873E+02  0.47787266161E+02  0.19999977735E+02 0.  0.
         12    1    1    2    0    0  0.14041532357E+02  0.73709893133E-01 -0.41066453873E+02  0.43400733839E+02  0.00000000000E+00 0. -1.
         11    1    3    3    0    0  0.40895415472E+01  0.16130881422E+01  0.81716413569E+01  0.92791231347E+01  0.51100000000E-03 0. -1.
        -11    1    3    3    0    0 -0.12181050720E+02 -0.41665105240E+01  0.26323848685E+02  0.29303290198E+02  0.51100000000E-03 0.  1.
        -12    1    3    3    0    0 -0.59500231850E+01  0.24797124886E+01  0.65709638308E+01  0.92048528285E+01  0.00000000000E+00 0.  1.
</event>
<event>
 7    1  0.2812635E-010  0.4778727E+02  0.7816164E-02  0.1312668E+00
        -11   -1    0    0    0    0  0.00000000000E+00  0.00000000000E+00  0.45593999997E+02  0.45594000000E+02  0.51100000000E-03 0.  1.
         11   -1    0    0    0    0 -0.00000000000E+00 -0.00000000000E+00 -0.45593999997E+02  0.45594000000E+02  0.51100000000E-03 0. -1.
    9900012    2    1    2    0    0 -0.31555944133E+02 -0.16930499886E+02  0.24519454654E+02  0.47787273127E+02  0.20000009495E+02 0.  0.
         12    1    1    2    0    0  0.31555944133E+02  0.16930499886E+02 -0.24519454654E+02  0.43400726873E+02  0.00000000000E+00 0. -1.
         11    1    3    3    0    0 -0.17181567630E+00 -0.25596762427E+01  0.87764605083E+01  0.91437258494E+01  0.51100000000E-03 0. -1.
        -11    1    3    3    0    0 -0.10155179098E+02 -0.76082244682E+01  0.32447546610E+01  0.13097372834E+02  0.51100000000E-03 0.  1.
         12    1    3    3    0    0 -0.21228949359E+02 -0.67625991754E+01  0.12498239485E+02  0.25546174444E+02  0.00000000000E+00 0. -1.
</event>
<event>
 7    1  0.2812635E-010  0.4778727E+02  0.7816164E-02  0.1312668E+00
        -11   -1    0    0    0    0  0.00000000000E+00  0.00000000000E+00  0.45593999997E+02  0.45594000000E+02  0.51100000000E-03 0.  1.
         11   -1    0    0    0    0 -0.00000000000E+00 -0.00000000000E+00 -0.45593999997E+02  0.45594000000E+02  0.51100000000E-03 0. -1.
    9900012    2    1    2    0    0  0.13986223375E+02 -0.40989258356E+02 -0.28088136384E+01  0.47787272138E+02  0.20000004987E+02 0.  0.
         12    1    1    2    0    0 -0.13986223375E+02  0.40989258356E+02  0.28088136384E+01  0.43400727862E+02  0.00000000000E+00 0. -1.
         11    1    3    3    0    0  0.20756295346E+01 -0.12772207797E+02  0.49234346804E+01  0.13844772995E+02  0.51100000000E-03 0. -1.
        -11    1    3    3    0    0  0.70979960321E+01 -0.15716240260E+02 -0.10602298042E+02  0.20243282333E+02  0.51100000000E-03 0.  1.
        -12    1    3    3    0    0  0.48125978085E+01 -0.12500810299E+02  0.28700497233E+01  0.13699216811E+02  0.00000000000E+00 0.  1.
</event>
<event>
 7    1  0.2812635E-010  0.4778728E+02  0.7816164E-02  0.1312668E+00
        -11   -1    0    0    0    0  0.00000000000E+00  0.00000000000E+00  0.45593999997E+02  0.45594000000E+02  0.51100000000E-03 0.  1.
         11   -1    0    0    0    0 -0.00000000000E+00 -0.00000000000E+00 -0.45593999997E+02  0.45594000000E+02  0.51100000000E-03 0. -1.
    9900012    2    1    2    0    0 -0.58410579865E+01  0.51706875496E+01  0.42693896417E+02  0.47787276971E+02  0.20000027024E+02 0.  0.
         12    1    1    2    0    0  0.58410579865E+01 -0.51706875496E+01 -0.42693896417E+02  0.43400723029E+02  0.00000000000E+00 0. -1.
         11    1    3    3    0    0  0.39996138793E+01  0.62432408978E+01  0.88487124500E+01  0.11544465357E+02  0.51100000000E-03 0. -1.
        -11    1    3    3    0    0 -0.68101270937E+01 -0.46380360322E+01  0.22993683502E+02  0.24425369813E+02  0.51100000000E-03 0.  1.
        -12    1    3    3    0    0 -0.30305447722E+01  0.35654826840E+01  0.10851500465E+02  0.11817441801E+02  0.00000000000E+00 0.  1.
</event>
<event>
 7    1  0.2812635E-010  0.4778727E+02  0.7816164E-02  0.1312668E+00
        -11   -1    0    0    0    0  0.00000000000E+00  0.00000000000E+00  0.45593999997E+02  0.45594000000E+02  0.51100000000E-03 0.  1.
         11   -1    0    0    0    0 -0.00000000000E+00 -0.00000000000E+00 -0.45593999997E+02  0.45594000000E+02  0.51100000000E-03 0. -1.
    9900012    2    1    2    0    0 -0.26159461688E+02 -0.30514584010E+02  0.16375772439E+02  0.47787271941E+02  0.20000004086E+02 0.  0.
         12    1    1    2    0    0  0.26159461688E+02  0.30514584010E+02 -0.16375772439E+02  0.43400728059E+02  0.00000000000E+00 0. -1.
         11    1    3    3    0    0 -0.29898701863E+01 -0.14552864608E+02  0.17592062006E+01  0.14960614918E+02  0.51100000000E-03 0. -1.
        -11    1    3    3    0    0 -0.21629052385E+02 -0.12905150699E+02  0.10044997811E+02  0.27115692927E+02  0.51100000000E-03 0.  1.
        -12    1    3    3    0    0 -0.15405391163E+01 -0.30565687037E+01  0.45715684274E+01  0.57109640951E+01  0.00000000000E+00 0.  1.
</event>
<event>
 7    1  0.2812635E-010  0.4778727E+02  0.7816164E-02  0.1312668E+00
        -11   -1    0    0    0    0  0.00000000000E+00  0.00000000000E+00  0.45593999997E+02  0.45594000000E+02  0.51100000000E-03 0. -1.
         11   -1    0    0    0    0 -0.00000000000E+00 -0.00000000000E+00 -0.45593999997E+02  0.45594000000E+02  0.51100000000E-03 0.  1.
    9900012    2    1    2    0    0 -0.12313173657E+01 -0.16367426194E+02 -0.40177293573E+02  0.47787266118E+02  0.19999977537E+02 0.  0.
         12    1    1    2    0    0  0.12313173657E+01  0.16367426194E+02  0.40177293573E+02  0.43400733882E+02  0.00000000000E+00 0. -1.
         11    1    3    3    0    0  0.20126370006E+01  0.28838076712E+01 -0.65957812865E+01  0.74747164108E+01  0.51100000000E-03 0. -1.
        -11    1    3    3    0    0 -0.50553372903E+01 -0.28912472420E+01 -0.95094500951E+01  0.11151026280E+02  0.51100000000E-03 0.  1.
         12    1    3    3    0    0  0.18113829240E+01 -0.16359986624E+02 -0.24072062191E+02  0.29161523427E+02  0.00000000000E+00 0. -1.
</event>
<event>
 7    1  0.2812635E-010  0.4778727E+02  0.7816164E-02  0.1312668E+00
        -11   -1    0    0    0    0  0.00000000000E+00  0.00000000000E+00  0.45593999997E+02  0.45594000000E+02  0.51100000000E-03 0.  1.
         11   -1    0    0    0    0 -0.00000000000E+00 -0.00000000000E+00 -0.45593999997E+02  0.45594000000E+02  0.51100000000E-03 0. -1.
    9900012    2    1    2    0    0  0.42825358976E+02 -0.68514786798E+01 -0.16337148002E+01  0.47787272408E+02  0.20000006215E+02 0.  0.
         12    1    1    2    0    0 -0.42825358976E+02  0.68514786798E+01  0.16337148002E+01  0.43400727592E+02  0.00000000000E+00 0. -1.
         11    1    3    3    0    0  0.27133697828E+02 -0.36822190614E+01 -0.48621272026E+01  0.27810727718E+02  0.51100000000E-03 0. -1.
        -11    1    3    3    0    0  0.23150256854E+01 -0.56437574240E+01  0.70229153394E+00  0.61404035246E+01  0.51100000000E-03 0.  1.
         12    1    3    3    0    0  0.13376635463E+02  0.24744978055E+01  0.25261208685E+01  0.13836141165E+02  0.00000000000E+00 0. -1.
</event>
<event>
 7    1  0.2812635E-010  0.4778727E+02  0.7816164E-02  0.1312668E+00
        -11   -1    0    0    0    0  0.00000000000E+00  0.00000000000E+00  0.45593999997E+02  0.45594000000E+02  0.51100000000E-03 0.  1.
         11   -1    0    0    0    0 -0.00000000000E+00 -0.00000000000E+00 -0.45593999997E+02  0.45594000000E+02  0.51100000000E-03 0. -1.
    9900012    2    1    2    0    0  0.33934671041E+02 -0.21448026242E+02  0.16493740614E+02  0.47787271806E+02  0.20000003472E+02 0.  0.
         12    1    1    2    0    0 -0.33934671041E+02  0.21448026242E+02 -0.16493740614E+02  0.43400728194E+02  0.00000000000E+00 0. -1.
         11    1    3    3    0    0 -0.61827680629E-01 -0.50877740539E+01  0.24639391599E+01  0.56533409530E+01  0.51100000000E-03 0. -1.
        -11    1    3    3    0    0  0.30453777933E+02 -0.94165055428E+01  0.12164419939E+02  0.34118562099E+02  0.51100000000E-03 0.  1.
        -12    1    3    3    0    0  0.35427207888E+01 -0.69437466454E+01  0.18653815147E+01  0.80153687537E+01  0.00000000000E+00 0.  1.
</event>
<event>
 7    1  0.2812635E-010  0.4778727E+02  0.7816164E-02  0.1312668E+00
        -11   -1    0    0    0    0  0.00000000000E+00  0.00000000000E+00  0.45593999997E+02  0.45594000000E+02  0.51100000000E-03 0.  1.
         11   -1    0    0    0    0 -0.00000000000E+00 -0.00000000000E+00 -0.45593999997E+02  0.45594000000E+02  0.51100000000E-03 0. -1.
    9900012    2    1    2    0    0  0.89912440709E+01 -0.29031771287E+02  0.30982854120E+02  0.47787268860E+02  0.19999990042E+02 0.  0.
         12    1    1    2    0    0 -0.89912440709E+01  0.29031771287E+02 -0.30982854120E+02  0.43400731140E+02  0.00000000000E+00 0. -1.
         11    1    3    3    0    0 -0.22330886015E+01 -0.14351587331E+01  0.66611939475E+01  0.71706255208E+01  0.51100000000E-03 0. -1.
        -11    1    3    3    0    0  0.71861107059E+01 -0.27557842054E+02  0.21654250203E+02  0.35776827667E+02  0.51100000000E-03 0.  1.
        -12    1    3    3    0    0  0.40382219666E+01 -0.38770499873E-01  0.26674099693E+01  0.48398156729E+01  0.00000000000E+00 0.  1.
</event>
<event>
 7    1  0.2812635E-010  0.4778727E+02  0.7816164E-02  0.1312668E+00
        -11   -1    0    0    0    0  0.00000000000E+00  0.00000000000E+00  0.45593999997E+02  0.45594000000E+02  0.51100000000E-03 0.  1.
         11   -1    0    0    0    0 -0.00000000000E+00 -0.00000000000E+00 -0.45593999997E+02  0.45594000000E+02  0.51100000000E-03 0. -1.
    9900012    2    1    2    0    0 -0.93639181131E+01  0.40103611797E+02  0.13698207791E+02  0.47787267998E+02  0.19999986112E+02 0.  0.
         12    1    1    2    0    0  0.93639181131E+01 -0.40103611797E+02 -0.13698207791E+02  0.43400732002E+02  0.00000000000E+00 0. -1.
         11    1    3    3    0    0  0.64961371227E-02 -0.63262994061E+00  0.36600492721E+01  0.37143268268E+01  0.51100000000E-03 0. -1.
        -11    1    3    3    0    0 -0.19984486285E+01  0.23082235904E+02  0.17848694218E+01  0.23237236719E+02  0.51100000000E-03 0.  1.
        -12    1    3    3    0    0 -0.73719656217E+01  0.17654005834E+02  0.82532890968E+01  0.20835704452E+02  0.00000000000E+00 0.  1.
</event>
<event>
 7    1  0.2812635E-010  0.4778727E+02  0.7816164E-02  0.1312668E+00
        -11   -1    0    0    0    0  0.00000000000E+00  0.00000000000E+00  0.45593999997E+02  0.45594000000E+02  0.51100000000E-03 0.  1.
         11   -1    0    0    0    0 -0.00000000000E+00 -0.00000000000E+00 -0.45593999997E+02  0.45594000000E+02  0.51100000000E-03 0. -1.
    9900012    2    1    2    0    0  0.30602793048E+02 -0.14835488057E+02  0.26962948219E+02  0.47787271609E+02  0.20000002575E+02 0.  0.
         12    1    1    2    0    0 -0.30602793048E+02  0.14835488057E+02 -0.26962948219E+02  0.43400728391E+02  0.00000000000E+00 0. -1.
         11    1    3    3    0    0  0.21326591905E+01  0.15283337219E+01  0.57564208656E+01  0.63261695070E+01  0.51100000000E-03 0. -1.
        -11    1    3    3    0    0  0.40473976335E+01 -0.24712545300E+01  0.10266563187E+02  0.11308883521E+02  0.51100000000E-03 0.  1.
        -12    1    3    3    0    0  0.24422736224E+02 -0.13892567249E+02  0.10939964166E+02  0.30152218581E+02  0.00000000000E+00 0.  1.
</event>
<event>
 7    1  0.2812635E-010  0.4778727E+02  0.7816164E-02  0.1312668E+00
        -11   -1    0    0    0    0  0.00000000000E+00  0.00000000000E+00  0.45593999997E+02  0.45594000000E+02  0.51100000000E-03 0.  1.
         11   -1    0    0    0    0 -0.00000000000E+00 -0.00000000000E+00 -0.45593999997E+02  0.45594000000E+02  0.51100000000E-03 0. -1.
    9900012    2    1    2    0    0  0.23085294513E+02 -0.10655735948E+02  0.35173106332E+02  0.47787274887E+02  0.20000017518E+02 0.  0.
         12    1    1    2    0    0 -0.23085294513E+02  0.10655735948E+02 -0.35173106332E+02  0.43400725113E+02  0.00000000000E+00 0. -1.
         11    1    3    3    0    0  0.19808621389E+02 -0.35609424053E+01  0.22963682460E+02  0.30535102825E+02  0.51100000000E-03 0. -1.
        -11    1    3    3    0    0 -0.63538147213E+00  0.17878992517E+01  0.44096429252E+01  0.48005462541E+01  0.51100000000E-03 0.  1.
         12    1    3    3    0    0  0.39120545964E+01 -0.88826927942E+01  0.77997809464E+01  0.12451625808E+02  0.00000000000E+00 0. -1.
</event>
<event>
 7    1  0.2812635E-010  0.4778727E+02  0.7816164E-02  0.1312668E+00
        -11   -1    0    0    0    0  0.00000000000E+00  0.00000000000E+00  0.45593999997E+02  0.45594000000E+02  0.51100000000E-03 0.  1.
         11   -1    0    0    0    0 -0.00000000000E+00 -0.00000000000E+00 -0.45593999997E+02  0.45594000000E+02  0.51100000000E-03 0. -1.
    9900012    2    1    2    0    0  0.18447701698E+02  0.19778566607E+02  0.33942808472E+02  0.47787266804E+02  0.19999980668E+02 0.  0.
         12    1    1    2    0    0 -0.18447701698E+02 -0.19778566607E+02 -0.33942808472E+02  0.43400733196E+02  0.00000000000E+00 0. -1.
         11    1    3    3    0    0  0.41352414876E+01  0.60398746177E+00  0.26370379582E+01  0.49415576966E+01  0.51100000000E-03 0. -1.
        -11    1    3    3    0    0  0.14250534571E+02  0.14085202123E+02  0.31952373227E+02  0.37715047521E+02  0.51100000000E-03 0.  1.
        -12    1    3    3    0    0  0.61925639970E-01  0.50893770216E+01 -0.64660271297E+00  0.51306615871E+01  0.00000000000E+00 0.  1.
</event>
<event>
 7    1  0.2812635E-010  0.4778727E+02  0.7816164E-02  0.1312668E+00
        -11   -1    0    0    0    0  0.00000000000E+00  0.00000000000E+00  0.45593999997E+02  0.45594000000E+02  0.51100000000E-03 0. -1.
         11   -1    0    0    0    0 -0.00000000000E+00 -0.00000000000E+00 -0.45593999997E+02  0.45594000000E+02  0.51100000000E-03 0.  1.
    9900012    2    1    2    0    0  0.19883478031E+02  0.12142577513E+02 -0.36617323119E+02  0.47787271439E+02  0.20000001799E+02 0.  0.
         12    1    1    2    0    0 -0.19883478031E+02 -0.12142577513E+02  0.36617323119E+02  0.43400728561E+02  0.00000000000E+00 0. -1.
         11    1    3    3    0    0  0.18638925721E+01  0.65108699437E+01 -0.15218229103E+02  0.16657131213E+02  0.51100000000E-03 0. -1.
        -11    1    3    3    0    0  0.11290336109E+02  0.95513112286E+01 -0.14806033296E+02  0.20926486993E+02  0.51100000000E-03 0.  1.
        -12    1    3    3    0    0  0.67292493494E+01 -0.39196036596E+01 -0.65930607189E+01  0.10203653233E+02  0.00000000000E+00 0.  1.
</event>
<event>
 7    1  0.2812635E-010  0.4778727E+02  0.7816164E-02  0.1312668E+00
        -11   -1    0    0    0    0  0.00000000000E+00  0.00000000000E+00  0.45593999997E+02  0.45594000000E+02  0.51100000000E-03 0.  1.
         11   -1    0    0    0    0 -0.00000000000E+00 -0.00000000000E+00 -0.45593999997E+02  0.45594000000E+02  0.51100000000E-03 0. -1.
    9900012    2    1    2    0    0  0.16544349293E+02 -0.38364042292E+02 -0.11751939331E+02  0.47787270599E+02  0.19999997967E+02 0.  0.
         12    1    1    2    0    0 -0.16544349293E+02  0.38364042292E+02  0.11751939331E+02  0.43400729401E+02  0.00000000000E+00 0. -1.
         11    1    3    3    0    0 -0.31932611660E+01 -0.10457540567E+01  0.16310068460E+00  0.33640928221E+01  0.51100000000E-03 0. -1.
        -11    1    3    3    0    0  0.97028343687E+01 -0.22336009455E+02 -0.37929279697E+01  0.24646066948E+02  0.51100000000E-03 0.  1.
         12    1    3    3    0    0  0.10034776090E+02 -0.14982278780E+02 -0.81221120458E+01  0.19777110828E+02  0.00000000000E+00 0. -1.
</event>
<event>
 7    1  0.2812635E-010  0.4778727E+02  0.7816164E-02  0.1312668E+00
        -11   -1    0    0    0    0  0.00000000000E+00  0.00000000000E+00  0.45593999997E+02  0.45594000000E+02  0.51100000000E-03 0.  1.
         11   -1    0    0    0    0 -0.00000000000E+00 -0.00000000000E+00 -0.45593999997E+02  0.45594000000E+02  0.51100000000E-03 0. -1.
    9900012    2    1    2    0    0 -0.17595528845E+02  0.39292748207E+02  0.54863977397E+01  0.47787271237E+02  0.20000000878E+02 0.  0.
         12    1    1    2    0    0  0.17595528845E+02 -0.39292748207E+02 -0.54863977397E+01  0.43400728763E+02  0.00000000000E+00 0. -1.
         11    1    3    3    0    0 -0.13332257627E+02  0.11046304567E+02  0.11573093741E+01  0.17352501354E+02  0.51100000000E-03 0. -1.
        -11    1    3    3    0    0  0.24104481313E+01  0.15150200296E+02  0.10624028902E+01  0.15377500752E+02  0.51100000000E-03 0.  1.
        -12    1    3    3    0    0 -0.66737193494E+01  0.13096243344E+02  0.32666854755E+01  0.15057269131E+02  0.00000000000E+00 0.  1.
</event>
<event>
 7    1  0.2812635E-010  0.4778727E+02  0.7816164E-02  0.1312668E+00
        -11   -1    0    0    0    0  0.00000000000E+00  0.00000000000E+00  0.45593999997E+02  0.45594000000E+02  0.51100000000E-03 0.  1.
         11   -1    0    0    0    0 -0.00000000000E+00 -0.00000000000E+00 -0.45593999997E+02  0.45594000000E+02  0.51100000000E-03 0. -1.
    9900012    2    1    2    0    0 -0.23957559975E+02  0.24065318837E+02  0.27028120795E+02  0.47787267697E+02  0.19999984739E+02 0.  0.
         12    1    1    2    0    0  0.23957559975E+02 -0.24065318837E+02 -0.27028120795E+02  0.43400732303E+02  0.00000000000E+00 0. -1.
         11    1    3    3    0    0 -0.16177952898E+01 -0.24339809428E+01  0.22458047850E-01  0.29226750511E+01  0.51100000000E-03 0. -1.
        -11    1    3    3    0    0 -0.13835927772E+02  0.21970087104E+02  0.17370127221E+02  0.31238420969E+02  0.51100000000E-03 0.  1.
        -12    1    3    3    0    0 -0.85038369127E+01  0.45292126756E+01  0.96355355264E+01  0.13626171677E+02  0.00000000000E+00 0.  1.
</event>
<event>
 7    1  0.2812635E-010  0.4778728E+02  0.7816164E-02  0.1312668E+00
        -11   -1    0    0    0    0  0.00000000000E+00  0.00000000000E+00  0.45593999997E+02  0.45594000000E+02  0.51100000000E-03 0.  1.
         11   -1    0    0    0    0 -0.00000000000E+00 -0.00000000000E+00 -0.45593999997E+02  0.45594000000E+02  0.51100000000E-03 0. -1.
    9900012    2    1    2    0    0  0.35866689199E+02 -0.24385898301E+02  0.15909063213E+01  0.47787280963E+02  0.20000045221E+02 0.  0.
         12    1    1    2    0    0 -0.35866689199E+02  0.24385898301E+02 -0.15909063213E+01  0.43400719037E+02  0.00000000000E+00 0. -1.
         11    1    3    3    0    0  0.35115505048E+01  0.12696081909E+01  0.10451434193E+01  0.38775271675E+01  0.51100000000E-03 0. -1.
        -11    1    3    3    0    0  0.29193053119E+01  0.17719523223E+01  0.13398507158E+01  0.36684272840E+01  0.51100000000E-03 0.  1.
        -12    1    3    3    0    0  0.29435833383E+02 -0.27427458814E+02 -0.79408781377E+00  0.40241326511E+02  0.00000000000E+00 0.  1.
</event>
<event>
 7    1  0.2812635E-010  0.4778730E+02  0.7816164E-02  0.1312668E+00
        -11   -1    0    0    0    0  0.00000000000E+00  0.00000000000E+00  0.45593999997E+02  0.45594000000E+02  0.51100000000E-03 0. -1.
         11   -1    0    0    0    0 -0.00000000000E+00 -0.00000000000E+00 -0.45593999997E+02  0.45594000000E+02  0.51100000000E-03 0.  1.
    9900012    2    1    2    0    0  0.19178799175E+02  0.25067974960E+02 -0.29789116639E+02  0.47787295207E+02  0.20000110167E+02 0.  0.
         12    1    1    2    0    0 -0.19178799175E+02 -0.25067974960E+02  0.29789116639E+02  0.43400704793E+02  0.00000000000E+00 0. -1.
         11    1    3    3    0    0 -0.26163104690E+01 -0.34397626307E+00 -0.44250897415E+01  0.51521664978E+01  0.51100000000E-03 0. -1.
        -11    1    3    3    0    0  0.14637101471E+02  0.14363859266E+02 -0.19224676163E+02  0.28109666777E+02  0.51100000000E-03 0.  1.
         12    1    3    3    0    0  0.71580081734E+01  0.11048091957E+02 -0.61393507341E+01  0.14525461932E+02  0.00000000000E+00 0. -1.
</event>
<event>
 7    1  0.2812635E-010  0.4778727E+02  0.7816164E-02  0.1312668E+00
        -11   -1    0    0    0    0  0.00000000000E+00  0.00000000000E+00  0.45593999997E+02  0.45594000000E+02  0.51100000000E-03 0.  1.
         11   -1    0    0    0    0 -0.00000000000E+00 -0.00000000000E+00 -0.45593999997E+02  0.45594000000E+02  0.51100000000E-03 0. -1.
    9900012    2    1    2    0    0 -0.25327295722E+02 -0.34881573504E+02  0.50425093702E+01  0.47787274436E+02  0.20000015463E+02 0.  0.
         12    1    1    2    0    0  0.25327295722E+02  0.34881573504E+02 -0.50425093702E+01  0.43400725564E+02  0.00000000000E+00 0. -1.
         11    1    3    3    0    0 -0.16900780944E+01 -0.21986105659E+01 -0.14619590730E+01  0.31348966455E+01  0.51100000000E-03 0.  1.
        -11    1    3    3    0    0  0.13368075093E+01  0.82664161258E+00  0.21080210867E+01  0.26294759622E+01  0.51100000000E-03 0. -1.
        -12    1    3    3    0    0 -0.24974025137E+02 -0.33509604551E+02  0.43964473566E+01  0.42022901828E+02  0.00000000000E+00 0.  1.
</event>
<event>
 7    1  0.2812635E-010  0.4778727E+02  0.7816164E-02  0.1312668E+00
        -11   -1    0    0    0    0  0.00000000000E+00  0.00000000000E+00  0.45593999997E+02  0.45594000000E+02  0.51100000000E-03 0. -1.
         11   -1    0    0    0    0 -0.00000000000E+00 -0.00000000000E+00 -0.45593999997E+02  0.45594000000E+02  0.51100000000E-03 0.  1.
    9900012    2    1    2    0    0 -0.13948541948E+02 -0.30765678149E+02 -0.27249485947E+02  0.47787271218E+02  0.20000000791E+02 0.  0.
         12    1    1    2    0    0  0.13948541948E+02  0.30765678149E+02  0.27249485947E+02  0.43400728782E+02  0.00000000000E+00 0. -1.
         11    1    3    3    0    0 -0.86366756291E+01 -0.11904893160E+02 -0.21160361850E+02  0.25769741189E+02  0.51100000000E-03 0. -1.
        -11    1    3    3    0    0 -0.49805763014E+01 -0.77953481194E+01  0.26269899168E+00  0.92543289124E+01  0.51100000000E-03 0.  1.
        -12    1    3    3    0    0 -0.33129001752E+00 -0.11065436869E+02 -0.63518230887E+01  0.12763201116E+02  0.00000000000E+00 0.  1.
</event>
<event>
 7    1  0.2812635E-010  0.4778727E+02  0.7816164E-02  0.1312668E+00
        -11   -1    0    0    0    0  0.00000000000E+00  0.00000000000E+00  0.45593999997E+02  0.45594000000E+02  0.51100000000E-03 0.  1.
         11   -1    0    0    0    0 -0.00000000000E+00 -0.00000000000E+00 -0.45593999997E+02  0.45594000000E+02  0.51100000000E-03 0. -1.
    9900012    2    1    2    0    0  0.93330256010E+01 -0.17177675408E+02  0.38748488109E+02  0.47787271550E+02  0.20000002306E+02 0.  0.
         12    1    1    2    0    0 -0.93330256010E+01  0.17177675408E+02 -0.38748488109E+02  0.43400728450E+02  0.00000000000E+00 0. -1.
         11    1    3    3    0    0 -0.25682968904E+01 -0.67696946760E+01  0.12192087695E+02  0.14179982989E+02  0.51100000000E-03 0. -1.
        -11    1    3    3    0    0  0.13399347186E+02 -0.66341739098E+01  0.25245008258E+02  0.29340504609E+02  0.51100000000E-03 0.  1.
        -12    1    3    3    0    0 -0.14980246947E+01 -0.37738068217E+01  0.13113921548E+01  0.42667839525E+01  0.00000000000E+00 0.  1.
</event>
<event>
 7    1  0.2812635E-010  0.4778727E+02  0.7816164E-02  0.1312668E+00
        -11   -1    0    0    0    0  0.00000000000E+00  0.00000000000E+00  0.45593999997E+02  0.45594000000E+02  0.51100000000E-03 0.  1.
         11   -1    0    0    0    0 -0.00000000000E+00 -0.00000000000E+00 -0.45593999997E+02  0.45594000000E+02  0.51100000000E-03 0. -1.
    9900012    2    1    2    0    0  0.15152185416E+02 -0.27868287710E+02  0.29620822207E+02  0.47787270848E+02  0.19999999102E+02 0.  0.
         12    1    1    2    0    0 -0.15152185416E+02  0.27868287710E+02 -0.29620822207E+02  0.43400729152E+02  0.00000000000E+00 0. -1.
         11    1    3    3    0    0  0.82959240750E+01 -0.21750539383E+02  0.17618686836E+02  0.29194630428E+02  0.51100000000E-03 0. -1.
        -11    1    3    3    0    0  0.25725534680E+01 -0.87387983144E+01  0.85922598634E+01  0.12522442140E+02  0.51100000000E-03 0.  1.
         12    1    3    3    0    0  0.42837078735E+01  0.26210499878E+01  0.34098755073E+01  0.60701982801E+01  0.00000000000E+00 0. -1.
</event>
<event>
 7    1  0.2812635E-010  0.4778727E+02  0.7816164E-02  0.1312668E+00
        -11   -1    0    0    0    0  0.00000000000E+00  0.00000000000E+00  0.45593999997E+02  0.45594000000E+02  0.51100000000E-03 0.  1.
         11   -1    0    0    0    0 -0.00000000000E+00 -0.00000000000E+00 -0.45593999997E+02  0.45594000000E+02  0.51100000000E-03 0. -1.
    9900012    2    1    2    0    0 -0.37474238774E+02  0.12710778654E+02  0.17825296077E+02  0.47787266758E+02  0.19999980459E+02 0.  0.
         12    1    1    2    0    0  0.37474238774E+02 -0.12710778654E+02 -0.17825296077E+02  0.43400733242E+02  0.00000000000E+00 0. -1.
         11    1    3    3    0    0 -0.23162865994E+02  0.11410214638E+02  0.45583924514E+01  0.26220036254E+02  0.51100000000E-03 0. -1.
        -11    1    3    3    0    0 -0.11622699783E+02  0.13822263418E+01  0.47432024149E+01  0.12629159486E+02  0.51100000000E-03 0.  1.
         12    1    3    3    0    0 -0.26886729970E+01 -0.81662325753E-01  0.85237012104E+01  0.89380710192E+01  0.00000000000E+00 0. -1.
</event>
<event>
 7    1  0.2812635E-010  0.4778727E+02  0.7816164E-02  0.1312668E+00
        -11   -1    0    0    0    0  0.00000000000E+00  0.00000000000E+00  0.45593999997E+02  0.45594000000E+02  0.51100000000E-03 0.  1.
         11   -1    0    0    0    0 -0.00000000000E+00 -0.00000000000E+00 -0.45593999997E+02  0.45594000000E+02  0.51100000000E-03 0. -1.
    9900012    2    1    2    0    0  0.22007700911E+02  0.24119478293E+01  0.37329166061E+02  0.47787273848E+02  0.20000012781E+02 0.  0.
         12    1    1    2    0    0 -0.22007700911E+02 -0.24119478293E+01 -0.37329166061E+02  0.43400726152E+02  0.00000000000E+00 0. -1.
         11    1    3    3    0    0  0.12576448420E+02  0.97930975597E+00  0.31862015757E+02  0.34268267404E+02  0.51100000000E-03 0.  1.
        -11    1    3    3    0    0  0.96269503855E+01 -0.30517466639E+00  0.63732186004E+01  0.11549425132E+02  0.51100000000E-03 0. -1.
         12    1    3    3    0    0 -0.19569789471E+00  0.17378127397E+01 -0.90606829653E+00  0.19695813114E+01  0.00000000000E+00 0. -1.
</event>
<event>
 7    1  0.2812635E-010  0.4778725E+02  0.7816164E-02  0.1312668E+00
        -11   -1    0    0    0    0  0.00000000000E+00  0.00000000000E+00  0.45593999997E+02  0.45594000000E+02  0.51100000000E-03 0. -1.
         11   -1    0    0    0    0 -0.00000000000E+00 -0.00000000000E+00 -0.45593999997E+02  0.45594000000E+02  0.51100000000E-03 0.  1.
    9900012    2    1    2    0    0 -0.99475299835E+01  0.22269683061E+02 -0.35898925830E+02  0.47787251018E+02  0.19999908693E+02 0.  0.
         12    1    1    2    0    0  0.99475299835E+01 -0.22269683061E+02  0.35898925830E+02  0.43400748982E+02  0.00000000000E+00 0. -1.
         11    1    3    3    0    0 -0.70899861165E+01  0.20714348915E+02 -0.22568537082E+02  0.31443457513E+02  0.51100000000E-03 0. -1.
        -11    1    3    3    0    0 -0.40223757197E+01  0.44294950901E+01 -0.10777455253E+02  0.12326941030E+02  0.51100000000E-03 0.  1.
         12    1    3    3    0    0  0.11648318526E+01 -0.28741609434E+01 -0.25529334948E+01  0.40168524746E+01  0.00000000000E+00 0. -1.
</event>
<event>
 7    1  0.2812635E-010  0.4778728E+02  0.7816164E-02  0.1312668E+00
        -11   -1    0    0    0    0  0.00000000000E+00  0.00000000000E+00  0.45593999997E+02  0.45594000000E+02  0.51100000000E-03 0.  1.
         11   -1    0    0    0    0 -0.00000000000E+00 -0.00000000000E+00 -0.45593999997E+02  0.45594000000E+02  0.51100000000E-03 0. -1.
    9900012    2    1    2    0    0 -0.28201200536E+02  0.59453213371E+01  0.32449473505E+02  0.47787275487E+02  0.20000020257E+02 0.  0.
         12    1    1    2    0    0  0.28201200536E+02 -0.59453213371E+01 -0.32449473505E+02  0.43400724513E+02  0.00000000000E+00 0. -1.
         11    1    3    3    0    0 -0.37950672593E+01 -0.29731044127E+00 -0.15435216647E+01  0.41077230178E+01  0.51100000000E-03 0. -1.
        -11    1    3    3    0    0 -0.25353068387E+02  0.63342216039E+01  0.31032195657E+02  0.40569663636E+02  0.51100000000E-03 0.  1.
        -12    1    3    3    0    0  0.94693511110E+00 -0.91589825529E-01  0.29607995126E+01  0.31098888332E+01  0.00000000000E+00 0.  1.
</event>
<event>
 7    1  0.2812635E-010  0.4778727E+02  0.7816164E-02  0.1312668E+00
        -11   -1    0    0    0    0  0.00000000000E+00  0.00000000000E+00  0.45593999997E+02  0.45594000000E+02  0.51100000000E-03 0.  1.
         11   -1    0    0    0    0 -0.00000000000E+00 -0.00000000000E+00 -0.45593999997E+02  0.45594000000E+02  0.51100000000E-03 0. -1.
    9900012    2    1    2    0    0 -0.81052316111E+01  0.41402778569E+02  0.10185190529E+02  0.47787274674E+02  0.20000016550E+02 0.  0.
         12    1    1    2    0    0  0.81052316111E+01 -0.41402778569E+02 -0.10185190529E+02  0.43400725326E+02  0.00000000000E+00 0. -1.
         11    1    3    3    0    0  0.10321364500E+01  0.41923634905E+00 -0.11411502267E+01  0.15947692211E+01  0.51100000000E-03 0. -1.
        -11    1    3    3    0    0 -0.91735095773E+01  0.24325600441E+02 -0.89857210586E-01  0.25998003565E+02  0.51100000000E-03 0.  1.
        -12    1    3    3    0    0  0.36141516315E-01  0.16657941778E+02  0.11416197966E+02  0.20194501888E+02  0.00000000000E+00 0.  1.
</event>
<event>
 7    1  0.2812635E-010  0.4778727E+02  0.7816164E-02  0.1312668E+00
        -11   -1    0    0    0    0  0.00000000000E+00  0.00000000000E+00  0.45593999997E+02  0.45594000000E+02  0.51100000000E-03 0.  1.
         11   -1    0    0    0    0 -0.00000000000E+00 -0.00000000000E+00 -0.45593999997E+02  0.45594000000E+02  0.51100000000E-03 0. -1.
    9900012    2    1    2    0    0  0.31710529375E+02 -0.13700082563E+01  0.29600485396E+02  0.47787270380E+02  0.19999996970E+02 0.  0.
         12    1    1    2    0    0 -0.31710529375E+02  0.13700082563E+01 -0.29600485396E+02  0.43400729620E+02  0.00000000000E+00 0. -1.
         11    1    3    3    0    0  0.17601040350E+02 -0.59963985447E+01  0.20271493586E+02  0.27507941933E+02  0.51100000000E-03 0. -1.
        -11    1    3    3    0    0  0.12597886851E+02  0.68647045771E+01  0.10010159477E+02  0.17493833630E+02  0.51100000000E-03 0.  1.
         12    1    3    3    0    0  0.15116021734E+01 -0.22383142887E+01 -0.68116766689E+00  0.27854948171E+01  0.00000000000E+00 0. -1.
</event>
<event>
 7    1  0.2812635E-010  0.4778727E+02  0.7816164E-02  0.1312668E+00
        -11   -1    0    0    0    0  0.00000000000E+00  0.00000000000E+00  0.45593999997E+02  0.45594000000E+02  0.51100000000E-03 0.  1.
         11   -1    0    0    0    0 -0.00000000000E+00 -0.00000000000E+00 -0.45593999997E+02  0.45594000000E+02  0.51100000000E-03 0. -1.
    9900012    2    1    2    0    0  0.66480382378E+01  0.23893807822E+02  0.35616187984E+02  0.47787270615E+02  0.19999998042E+02 0.  0.
         12    1    1    2    0    0 -0.66480382378E+01 -0.23893807822E+02 -0.35616187984E+02  0.43400729385E+02  0.00000000000E+00 0. -1.
         11    1    3    3    0    0 -0.25598733882E+01  0.10993102366E+00 -0.75770246008E+00  0.26719187623E+01  0.51100000000E-03 0. -1.
        -11    1    3    3    0    0  0.10465683883E+02  0.18872715391E+02  0.30386451209E+02  0.37269912029E+02  0.51100000000E-03 0.  1.
        -12    1    3    3    0    0 -0.12577722571E+01  0.49111614072E+01  0.59874392357E+01  0.78454398232E+01  0.00000000000E+00 0.  1.
</event>
<event>
 7    1  0.2812635E-010  0.4778727E+02  0.7816164E-02  0.1312668E+00
        -11   -1    0    0    0    0  0.00000000000E+00  0.00000000000E+00  0.45593999997E+02  0.45594000000E+02  0.51100000000E-03 0.  1.
         11   -1    0    0    0    0 -0.00000000000E+00 -0.00000000000E+00 -0.45593999997E+02  0.45594000000E+02  0.51100000000E-03 0. -1.
    9900012    2    1    2    0    0  0.17835142613E+02  0.33534847047E+02  0.20998692016E+02  0.47787270227E+02  0.19999996272E+02 0.  0.
         12    1    1    2    0    0 -0.17835142613E+02 -0.33534847047E+02 -0.20998692016E+02  0.43400729773E+02  0.00000000000E+00 0. -1.
         11    1    3    3    0    0 -0.84500221638E+00  0.78333548355E+01  0.18171838209E+01  0.80856436989E+01  0.51100000000E-03 0. -1.
        -11    1    3    3    0    0  0.81176416746E+01  0.81644209586E+01 -0.19322778556E+00  0.11514825799E+02  0.51100000000E-03 0.  1.
        -12    1    3    3    0    0  0.10562503154E+02  0.17537071252E+02  0.19374735981E+02  0.28186800729E+02  0.00000000000E+00 0.  1.
</event>
<event>
 7    1  0.2812635E-010  0.4778727E+02  0.7816164E-02  0.1312668E+00
        -11   -1    0    0    0    0  0.00000000000E+00  0.00000000000E+00  0.45593999997E+02  0.45594000000E+02  0.51100000000E-03 0.  1.
         11   -1    0    0    0    0 -0.00000000000E+00 -0.00000000000E+00 -0.45593999997E+02  0.45594000000E+02  0.51100000000E-03 0. -1.
    9900012    2    1    2    0    0  0.90125503161E+01 -0.22141688137E+02  0.36223513221E+02  0.47787270434E+02  0.19999997217E+02 0.  0.
         12    1    1    2    0    0 -0.90125503161E+01  0.22141688137E+02 -0.36223513221E+02  0.43400729566E+02  0.00000000000E+00 0. -1.
         11    1    3    3    0    0  0.93044056353E+01 -0.16069486423E+02  0.15873906688E+02  0.24429107064E+02  0.51100000000E-03 0. -1.
        -11    1    3    3    0    0 -0.26077231589E+00 -0.13280580385E+00  0.15984478579E+02  0.15987157199E+02  0.51100000000E-03 0.  1.
         12    1    3    3    0    0 -0.31083003312E-01 -0.59393959097E+01  0.43651279536E+01  0.73710061713E+01  0.00000000000E+00 0. -1.
</event>
<event>
 7    1  0.2812635E-010  0.4778727E+02  0.7816164E-02  0.1312668E+00
        -11   -1    0    0    0    0  0.00000000000E+00  0.00000000000E+00  0.45593999997E+02  0.45594000000E+02  0.51100000000E-03 0.  1.
         11   -1    0    0    0    0 -0.00000000000E+00 -0.00000000000E+00 -0.45593999997E+02  0.45594000000E+02  0.51100000000E-03 0. -1.
    9900012    2    1    2    0    0 -0.29563273724E+02  0.23830115707E+02  0.21018131080E+02  0.47787269568E+02  0.19999993269E+02 0.  0.
         12    1    1    2    0    0  0.29563273724E+02 -0.23830115707E+02 -0.21018131080E+02  0.43400730432E+02  0.00000000000E+00 0. -1.
         11    1    3    3    0    0 -0.15873113472E+01  0.78574563242E+01  0.93423410862E+01  0.12310098067E+02  0.51100000000E-03 0. -1.
        -11    1    3    3    0    0 -0.14311516056E+02  0.11934861573E+02  0.32276209959E+01  0.18912375581E+02  0.51100000000E-03 0.  1.
        -12    1    3    3    0    0 -0.13664446321E+02  0.40377978103E+01  0.84481689984E+01  0.16564795919E+02  0.00000000000E+00 0.  1.
</event>
<event>
 7    1  0.2812635E-010  0.4778727E+02  0.7816164E-02  0.1312668E+00
        -11   -1    0    0    0    0  0.00000000000E+00  0.00000000000E+00  0.45593999997E+02  0.45594000000E+02  0.51100000000E-03 0.  1.
         11   -1    0    0    0    0 -0.00000000000E+00 -0.00000000000E+00 -0.45593999997E+02  0.45594000000E+02  0.51100000000E-03 0. -1.
    9900012    2    1    2    0    0  0.38553120377E+02 -0.16107762336E+02  0.11739687208E+02  0.47787270121E+02  0.19999995790E+02 0.  0.
         12    1    1    2    0    0 -0.38553120377E+02  0.16107762336E+02 -0.11739687208E+02  0.43400729879E+02  0.00000000000E+00 0. -1.
         11    1    3    3    0    0  0.16982515188E+02 -0.12536178548E+02 -0.87426633712E+00  0.21126427445E+02  0.51100000000E-03 0. -1.
        -11    1    3    3    0    0  0.10598556503E+02 -0.18632758843E+01  0.13529081156E+01  0.10845808296E+02  0.51100000000E-03 0.  1.
         12    1    3    3    0    0  0.10972048686E+02 -0.17083079029E+01  0.11261045429E+02  0.15815034379E+02  0.00000000000E+00 0. -1.
</event>
<event>
 7    1  0.2812635E-010  0.4778727E+02  0.7816164E-02  0.1312668E+00
        -11   -1    0    0    0    0  0.00000000000E+00  0.00000000000E+00  0.45593999997E+02  0.45594000000E+02  0.51100000000E-03 0.  1.
         11   -1    0    0    0    0 -0.00000000000E+00 -0.00000000000E+00 -0.45593999997E+02  0.45594000000E+02  0.51100000000E-03 0. -1.
    9900012    2    1    2    0    0  0.27573177752E+02 -0.16168953209E+02  0.29358268041E+02  0.47787273259E+02  0.20000010099E+02 0.  0.
         12    1    1    2    0    0 -0.27573177752E+02  0.16168953209E+02 -0.29358268041E+02  0.43400726741E+02  0.00000000000E+00 0. -1.
         11    1    3    3    0    0  0.11508206641E+02 -0.81039912662E+00  0.11989473905E+02  0.16638601252E+02  0.51100000000E-03 0. -1.
        -11    1    3    3    0    0  0.95494487767E+01 -0.20891609085E+01  0.11868404804E+02  0.15375812112E+02  0.51100000000E-03 0.  1.
         12    1    3    3    0    0  0.65155223341E+01 -0.13269393174E+02  0.55003893327E+01  0.15772859896E+02  0.00000000000E+00 0. -1.
</event>
<event>
 7    1  0.2812635E-010  0.4778727E+02  0.7816164E-02  0.1312668E+00
        -11   -1    0    0    0    0  0.00000000000E+00  0.00000000000E+00  0.45593999997E+02  0.45594000000E+02  0.51100000000E-03 0.  1.
         11   -1    0    0    0    0 -0.00000000000E+00 -0.00000000000E+00 -0.45593999997E+02  0.45594000000E+02  0.51100000000E-03 0. -1.
    9900012    2    1    2    0    0 -0.79155045849E+01 -0.14711553362E+02  0.40056688303E+02  0.47787270825E+02  0.19999998998E+02 0.  0.
         12    1    1    2    0    0  0.79155045849E+01  0.14711553362E+02 -0.40056688303E+02  0.43400729175E+02  0.00000000000E+00 0. -1.
         11    1    3    3    0    0  0.32906988396E+01 -0.17027184007E+01  0.69041786818E+01  0.78355365060E+01  0.51100000000E-03 0. -1.
        -11    1    3    3    0    0 -0.12923622799E+02 -0.11011828956E+02  0.18687285450E+02  0.25248664142E+02  0.51100000000E-03 0.  1.
        -12    1    3    3    0    0  0.17174193749E+01 -0.19970060054E+01  0.14465224171E+02  0.14703070176E+02  0.00000000000E+00 0.  1.
</event>
<event>
 7    1  0.2812635E-010  0.4778727E+02  0.7816164E-02  0.1312668E+00
        -11   -1    0    0    0    0  0.00000000000E+00  0.00000000000E+00  0.45593999997E+02  0.45594000000E+02  0.51100000000E-03 0. -1.
         11   -1    0    0    0    0 -0.00000000000E+00 -0.00000000000E+00 -0.45593999997E+02  0.45594000000E+02  0.51100000000E-03 0.  1.
    9900012    2    1    2    0    0 -0.62701914287E+01 -0.25080898314E+02 -0.34860532810E+02  0.47787268341E+02  0.19999987672E+02 0.  0.
         12    1    1    2    0    0  0.62701914287E+01  0.25080898314E+02  0.34860532810E+02  0.43400731659E+02  0.00000000000E+00 0. -1.
         11    1    3    3    0    0 -0.77197081796E+01 -0.10765385401E+02 -0.44647506426E+01  0.13979321006E+02  0.51100000000E-03 0. -1.
        -11    1    3    3    0    0  0.20802776822E+01 -0.10264973923E+02 -0.18973901502E+02  0.21672705953E+02  0.51100000000E-03 0.  1.
         12    1    3    3    0    0 -0.63076093133E+00 -0.40505389895E+01 -0.11421880665E+02  0.12135241381E+02  0.00000000000E+00 0. -1.
</event>
<event>
 7    1  0.2812635E-010  0.4778727E+02  0.7816164E-02  0.1312668E+00
        -11   -1    0    0    0    0  0.00000000000E+00  0.00000000000E+00  0.45593999997E+02  0.45594000000E+02  0.51100000000E-03 0.  1.
         11   -1    0    0    0    0 -0.00000000000E+00 -0.00000000000E+00 -0.45593999997E+02  0.45594000000E+02  0.51100000000E-03 0. -1.
    9900012    2    1    2    0    0 -0.26433244008E+02  0.75324719728E+01  0.33588225431E+02  0.47787269472E+02  0.19999992830E+02 0.  0.
         12    1    1    2    0    0  0.26433244008E+02 -0.75324719728E+01 -0.33588225431E+02  0.43400730528E+02  0.00000000000E+00 0. -1.
         11    1    3    3    0    0 -0.14865331254E+02 -0.14472937915E+01  0.12918080990E+02  0.19747140282E+02  0.51100000000E-03 0. -1.
        -11    1    3    3    0    0 -0.81625874168E+01 -0.62112209028E+00  0.58710512606E+01  0.10073870614E+02  0.51100000000E-03 0.  1.
         12    1    3    3    0    0 -0.34053253374E+01  0.96008878545E+01  0.14799093180E+02  0.17966258576E+02  0.00000000000E+00 0. -1.
</event>
<event>
 7    1  0.2812635E-010  0.4778730E+02  0.7816164E-02  0.1312668E+00
        -11   -1    0    0    0    0  0.00000000000E+00  0.00000000000E+00  0.45593999997E+02  0.45594000000E+02  0.51100000000E-03 0. -1.
         11   -1    0    0    0    0 -0.00000000000E+00 -0.00000000000E+00 -0.45593999997E+02  0.45594000000E+02  0.51100000000E-03 0.  1.
    9900012    2    1    2    0    0 -0.16249723539E+00 -0.99344502631E+00 -0.43389028176E+02  0.47787296037E+02  0.20000113953E+02 0.  0.
         12    1    1    2    0    0  0.16249723539E+00  0.99344502631E+00  0.43389028176E+02  0.43400703963E+02  0.00000000000E+00 0. -1.
         11    1    3    3    0    0  0.11093427996E+01 -0.67789141020E+01 -0.34428069492E+02  0.35106641637E+02  0.51100000000E-03 0. -1.
        -11    1    3    3    0    0 -0.15214912207E+01  0.32229567745E+01 -0.22270028469E+00  0.35709916806E+01  0.51100000000E-03 0.  1.
         12    1    3    3    0    0  0.24965118565E+00  0.25625123012E+01 -0.87382583996E+01  0.91096627197E+01  0.00000000000E+00 0. -1.
</event>
<event>
 7    1  0.2812635E-010  0.4778727E+02  0.7816164E-02  0.1312668E+00
        -11   -1    0    0    0    0  0.00000000000E+00  0.00000000000E+00  0.45593999997E+02  0.45594000000E+02  0.51100000000E-03 0.  1.
         11   -1    0    0    0    0 -0.00000000000E+00 -0.00000000000E+00 -0.45593999997E+02  0.45594000000E+02  0.51100000000E-03 0. -1.
    9900012    2    1    2    0    0  0.33853060463E+02 -0.25457928125E+02  0.94597844915E+01  0.47787270401E+02  0.19999997065E+02 0.  0.
         12    1    1    2    0    0 -0.33853060463E+02  0.25457928125E+02 -0.94597844915E+01  0.43400729599E+02  0.00000000000E+00 0. -1.
         11    1    3    3    0    0  0.23529303014E+02 -0.21340113799E+02  0.76459881007E+01  0.32672460752E+02  0.51100000000E-03 0. -1.
        -11    1    3    3    0    0  0.45604434408E+01 -0.71325399034E+01  0.15405963079E+01  0.86048943686E+01  0.51100000000E-03 0.  1.
         12    1    3    3    0    0  0.57633140078E+01  0.30147255779E+01  0.27320008295E+00  0.65099152796E+01  0.00000000000E+00 0. -1.
</event>
<event>
 7    1  0.2812635E-010  0.4778727E+02  0.7816164E-02  0.1312668E+00
        -11   -1    0    0    0    0  0.00000000000E+00  0.00000000000E+00  0.45593999997E+02  0.45594000000E+02  0.51100000000E-03 0.  1.
         11   -1    0    0    0    0 -0.00000000000E+00 -0.00000000000E+00 -0.45593999997E+02  0.45594000000E+02  0.51100000000E-03 0. -1.
    9900012    2    1    2    0    0 -0.14842932516E+02  0.29335598250E+02  0.28332551713E+02  0.47787268936E+02  0.19999990387E+02 0.  0.
         12    1    1    2    0    0  0.14842932516E+02 -0.29335598250E+02 -0.28332551713E+02  0.43400731064E+02  0.00000000000E+00 0. -1.
         11    1    3    3    0    0 -0.45166129609E+01 -0.13916725170E+01  0.55406108423E+01  0.72825073841E+01  0.51100000000E-03 0. -1.
        -11    1    3    3    0    0 -0.76027543538E+01  0.29543038674E+02  0.20509208578E+02  0.36758953258E+02  0.51100000000E-03 0.  1.
        -12    1    3    3    0    0 -0.27235652017E+01  0.11842320926E+01  0.22827322921E+01  0.37458082938E+01  0.00000000000E+00 0.  1.
</event>
<event>
 7    1  0.2812635E-010  0.4778727E+02  0.7816164E-02  0.1312668E+00
        -11   -1    0    0    0    0  0.00000000000E+00  0.00000000000E+00  0.45593999997E+02  0.45594000000E+02  0.51100000000E-03 0.  1.
         11   -1    0    0    0    0 -0.00000000000E+00 -0.00000000000E+00 -0.45593999997E+02  0.45594000000E+02  0.51100000000E-03 0. -1.
    9900012    2    1    2    0    0  0.38852940990E+02  0.39297058411E+00 -0.19336966131E+02  0.47787266036E+02  0.19999977165E+02 0.  0.
         12    1    1    2    0    0 -0.38852940990E+02 -0.39297058411E+00  0.19336966131E+02  0.43400733964E+02  0.00000000000E+00 0. -1.
         11    1    3    3    0    0  0.14757099601E+02 -0.85795269513E+01 -0.12284200464E+02  0.21030498155E+02  0.51100000000E-03 0. -1.
        -11    1    3    3    0    0  0.92853171719E+01  0.39941355874E+01 -0.17612411765E+01  0.10260224404E+02  0.51100000000E-03 0.  1.
         12    1    3    3    0    0  0.14810524217E+02  0.49783619480E+01 -0.52915244902E+01  0.16496543478E+02  0.00000000000E+00 0. -1.
</event>
<event>
 7    1  0.2812635E-010  0.4778727E+02  0.7816164E-02  0.1312668E+00
        -11   -1    0    0    0    0  0.00000000000E+00  0.00000000000E+00  0.45593999997E+02  0.45594000000E+02  0.51100000000E-03 0. -1.
         11   -1    0    0    0    0 -0.00000000000E+00 -0.00000000000E+00 -0.45593999997E+02  0.45594000000E+02  0.51100000000E-03 0.  1.
    9900012    2    1    2    0    0  0.34786192190E+02 -0.29946092552E+01 -0.25779382453E+02  0.47787269461E+02  0.19999992781E+02 0.  0.
         12    1    1    2    0    0 -0.34786192190E+02  0.29946092552E+01  0.25779382453E+02  0.43400730539E+02  0.00000000000E+00 0. -1.
         11    1    3    3    0    0  0.76314859600E+00 -0.48587503259E+01 -0.65342199366E+01  0.81783788705E+01  0.51100000000E-03 0. -1.
        -11    1    3    3    0    0  0.18981905951E+02  0.22899644949E+01 -0.13909080092E+02  0.23643586873E+02  0.51100000000E-03 0.  1.
         12    1    3    3    0    0  0.15041137642E+02 -0.42582342427E+00 -0.53360824245E+01  0.15965303718E+02  0.00000000000E+00 0. -1.
</event>
<event>
 7    1  0.2812635E-010  0.4778728E+02  0.7816164E-02  0.1312668E+00
        -11   -1    0    0    0    0  0.00000000000E+00  0.00000000000E+00  0.45593999997E+02  0.45594000000E+02  0.51100000000E-03 0.  1.
         11   -1    0    0    0    0 -0.00000000000E+00 -0.00000000000E+00 -0.45593999997E+02  0.45594000000E+02  0.51100000000E-03 0. -1.
    9900012    2    1    2    0    0 -0.40012013500E+02 -0.12205021287E+02 -0.11562833961E+02  0.47787275373E+02  0.20000019736E+02 0.  0.
         12    1    1    2    0    0  0.40012013500E+02  0.12205021287E+02  0.11562833961E+02  0.43400724627E+02  0.00000000000E+00 0. -1.
         11    1    3    3    0    0 -0.16639322882E+02  0.22533207243E+01 -0.78536973047E+01  0.18537127121E+02  0.51100000000E-03 0. -1.
        -11    1    3    3    0    0 -0.85361070996E+01 -0.10542978994E+02 -0.29768429423E+01  0.13888164913E+02  0.51100000000E-03 0.  1.
        -12    1    3    3    0    0 -0.14836583518E+02 -0.39153630169E+01 -0.73229371395E+00  0.15361983339E+02  0.00000000000E+00 0.  1.
</event>
<event>
 7    1  0.2812635E-010  0.4778727E+02  0.7816164E-02  0.1312668E+00
        -11   -1    0    0    0    0  0.00000000000E+00  0.00000000000E+00  0.45593999997E+02  0.45594000000E+02  0.51100000000E-03 0.  1.
         11   -1    0    0    0    0 -0.00000000000E+00 -0.00000000000E+00 -0.45593999997E+02  0.45594000000E+02  0.51100000000E-03 0. -1.
    9900012    2    1    2    0    0  0.25852654671E+02  0.30984886021E+02  0.15974985039E+02  0.47787273482E+02  0.20000011116E+02 0.  0.
         12    1    1    2    0    0 -0.25852654671E+02 -0.30984886021E+02 -0.15974985039E+02  0.43400726518E+02  0.00000000000E+00 0. -1.
         11    1    3    3    0    0  0.62780985921E+00  0.50593128582E-01 -0.27417359207E+01  0.28131514364E+01  0.51100000000E-03 0. -1.
        -11    1    3    3    0    0  0.17584043320E+02  0.15990186172E+02  0.80793830170E+01  0.25103009052E+02  0.51100000000E-03 0.  1.
         12    1    3    3    0    0  0.76408014920E+01  0.14944106720E+02  0.10637337942E+02  0.19871112994E+02  0.00000000000E+00 0. -1.
</event>
<event>
 7    1  0.2812635E-010  0.4778727E+02  0.7816164E-02  0.1312668E+00
        -11   -1    0    0    0    0  0.00000000000E+00  0.00000000000E+00  0.45593999997E+02  0.45594000000E+02  0.51100000000E-03 0. -1.
         11   -1    0    0    0    0 -0.00000000000E+00 -0.00000000000E+00 -0.45593999997E+02  0.45594000000E+02  0.51100000000E-03 0.  1.
    9900012    2    1    2    0    0 -0.14262020094E+02 -0.53340611220E+01 -0.40641924190E+02  0.47787269279E+02  0.19999991951E+02 0.  0.
         12    1    1    2    0    0  0.14262020094E+02  0.53340611220E+01  0.40641924190E+02  0.43400730721E+02  0.00000000000E+00 0. -1.
         11    1    3    3    0    0 -0.94535543270E+01 -0.73810348702E+01 -0.11049909138E+02  0.16307969138E+02  0.51100000000E-03 0. -1.
        -11    1    3    3    0    0  0.21765795374E+00  0.49090195073E+01 -0.12279757456E+02  0.13226423967E+02  0.51100000000E-03 0.  1.
        -12    1    3    3    0    0 -0.50261237211E+01 -0.28620457591E+01 -0.17312257596E+02  0.18252876175E+02  0.00000000000E+00 0.  1.
</event>
<event>
 7    1  0.2812635E-010  0.4778727E+02  0.7816164E-02  0.1312668E+00
        -11   -1    0    0    0    0  0.00000000000E+00  0.00000000000E+00  0.45593999997E+02  0.45594000000E+02  0.51100000000E-03 0. -1.
         11   -1    0    0    0    0 -0.00000000000E+00 -0.00000000000E+00 -0.45593999997E+02  0.45594000000E+02  0.51100000000E-03 0.  1.
    9900012    2    1    2    0    0 -0.13401730321E+02  0.78674118649E+01 -0.40523088783E+02  0.47787271094E+02  0.20000000228E+02 0.  0.
         12    1    1    2    0    0  0.13401730321E+02 -0.78674118649E+01  0.40523088783E+02  0.43400728906E+02  0.00000000000E+00 0. -1.
         11    1    3    3    0    0 -0.11152321826E+01  0.11453265264E+01 -0.70985959182E+00  0.17491187994E+01  0.51100000000E-03 0. -1.
        -11    1    3    3    0    0 -0.89800610594E+01 -0.54385848795E+01 -0.17223471553E+02  0.20170961175E+02  0.51100000000E-03 0.  1.
        -12    1    3    3    0    0 -0.33064370786E+01  0.12160670218E+02 -0.22589757638E+02  0.25867191120E+02  0.00000000000E+00 0.  1.
</event>
<event>
 7    1  0.2812635E-010  0.4778727E+02  0.7816164E-02  0.1312668E+00
        -11   -1    0    0    0    0  0.00000000000E+00  0.00000000000E+00  0.45593999997E+02  0.45594000000E+02  0.51100000000E-03 0.  1.
         11   -1    0    0    0    0 -0.00000000000E+00 -0.00000000000E+00 -0.45593999997E+02  0.45594000000E+02  0.51100000000E-03 0. -1.
    9900012    2    1    2    0    0 -0.34588427768E+02  0.20049237663E+02 -0.16890598251E+02  0.47787267568E+02  0.19999984151E+02 0.  0.
         12    1    1    2    0    0  0.34588427768E+02 -0.20049237663E+02  0.16890598251E+02  0.43400732432E+02  0.00000000000E+00 0. -1.
         11    1    3    3    0    0 -0.32128254937E+01 -0.23675872891E+01  0.23883174702E+01  0.46509975085E+01  0.51100000000E-03 0. -1.
        -11    1    3    3    0    0 -0.15480108748E+02  0.11935961599E+02 -0.99306331646E+01  0.21925291821E+02  0.51100000000E-03 0.  1.
         12    1    3    3    0    0 -0.15895493526E+02  0.10480863354E+02 -0.93482825565E+01  0.21210978238E+02  0.00000000000E+00 0. -1.
</event>
<event>
 7    1  0.2812635E-010  0.4778727E+02  0.7816164E-02  0.1312668E+00
        -11   -1    0    0    0    0  0.00000000000E+00  0.00000000000E+00  0.45593999997E+02  0.45594000000E+02  0.51100000000E-03 0.  1.
         11   -1    0    0    0    0 -0.00000000000E+00 -0.00000000000E+00 -0.45593999997E+02  0.45594000000E+02  0.51100000000E-03 0. -1.
    9900012    2    1    2    0    0  0.24691717388E+02  0.17579302643E+02  0.31063007741E+02  0.47787271448E+02  0.20000001839E+02 0.  0.
         12    1    1    2    0    0 -0.24691717388E+02 -0.17579302643E+02 -0.31063007741E+02  0.43400728552E+02  0.00000000000E+00 0. -1.
         11    1    3    3    0    0  0.57503821424E+01  0.59900783630E+01  0.62480298015E+01  0.10391622118E+02  0.51100000000E-03 0.  1.
        -11    1    3    3    0    0  0.21252472242E+02  0.10902107343E+02  0.25449203105E+02  0.34902513661E+02  0.51100000000E-03 0. -1.
        -12    1    3    3    0    0 -0.23111369966E+01  0.68711693646E+00 -0.63422516589E+00  0.24931356687E+01  0.00000000000E+00 0.  1.
</event>
<event>
 7    1  0.2812635E-010  0.4778726E+02  0.7816164E-02  0.1312668E+00
        -11   -1    0    0    0    0  0.00000000000E+00  0.00000000000E+00  0.45593999997E+02  0.45594000000E+02  0.51100000000E-03 0.  1.
         11   -1    0    0    0    0 -0.00000000000E+00 -0.00000000000E+00 -0.45593999997E+02  0.45594000000E+02  0.51100000000E-03 0. -1.
    9900012    2    1    2    0    0  0.15309440681E+02 -0.20140012231E+02  0.35265071435E+02  0.47787258878E+02  0.19999944527E+02 0.  0.
         12    1    1    2    0    0 -0.15309440681E+02  0.20140012231E+02 -0.35265071435E+02  0.43400741122E+02  0.00000000000E+00 0. -1.
         11    1    3    3    0    0  0.13109636293E+02 -0.61796229665E+01  0.12030271301E+02  0.18835544366E+02  0.51100000000E-03 0.  1.
        -11    1    3    3    0    0  0.45415289834E+01 -0.90306546429E+01  0.20478794328E+02  0.22837671208E+02  0.51100000000E-03 0. -1.
         12    1    3    3    0    0 -0.23417245951E+01 -0.49297346214E+01  0.27560058059E+01  0.61140433036E+01  0.00000000000E+00 0. -1.
</event>
<event>
 7    1  0.2812635E-010  0.4778728E+02  0.7816164E-02  0.1312668E+00
        -11   -1    0    0    0    0  0.00000000000E+00  0.00000000000E+00  0.45593999997E+02  0.45594000000E+02  0.51100000000E-03 0.  1.
         11   -1    0    0    0    0 -0.00000000000E+00 -0.00000000000E+00 -0.45593999997E+02  0.45594000000E+02  0.51100000000E-03 0. -1.
    9900012    2    1    2    0    0 -0.55037275261E+01  0.40424747285E+02  0.14804441761E+02  0.47787277592E+02  0.20000029851E+02 0.  0.
         12    1    1    2    0    0  0.55037275261E+01 -0.40424747285E+02 -0.14804441761E+02  0.43400722408E+02  0.00000000000E+00 0. -1.
         11    1    3    3    0    0 -0.54629802749E+01  0.12584534981E+02 -0.31978258894E+01  0.14086900470E+02  0.51100000000E-03 0. -1.
        -11    1    3    3    0    0  0.25600852419E+01  0.15902686129E+02  0.84335268522E+01  0.18181689635E+02  0.51100000000E-03 0.  1.
         12    1    3    3    0    0 -0.26008324931E+01  0.11937526175E+02  0.95687407985E+01  0.15518687486E+02  0.00000000000E+00 0. -1.
</event>
<event>
 7    1  0.2812635E-010  0.4778727E+02  0.7816164E-02  0.1312668E+00
        -11   -1    0    0    0    0  0.00000000000E+00  0.00000000000E+00  0.45593999997E+02  0.45594000000E+02  0.51100000000E-03 0.  1.
         11   -1    0    0    0    0 -0.00000000000E+00 -0.00000000000E+00 -0.45593999997E+02  0.45594000000E+02  0.51100000000E-03 0. -1.
    9900012    2    1    2    0    0 -0.26589228248E+02  0.30328249818E+02  0.16026025316E+02  0.47787270937E+02  0.19999999508E+02 0.  0.
         12    1    1    2    0    0  0.26589228248E+02 -0.30328249818E+02 -0.16026025316E+02  0.43400729063E+02  0.00000000000E+00 0. -1.
         11    1    3    3    0    0  0.66553932942E+00  0.69611687950E+01  0.55649135940E+01  0.89369501040E+01  0.51100000000E-03 0. -1.
        -11    1    3    3    0    0 -0.19214317800E+02  0.13174772057E+02  0.11195240868E+02  0.25847592647E+02  0.51100000000E-03 0.  1.
        -12    1    3    3    0    0 -0.80404497771E+01  0.10192308966E+02 -0.73412914659E+00  0.13002728186E+02  0.00000000000E+00 0.  1.
</event>
<event>
 7    1  0.2812635E-010  0.4778727E+02  0.7816164E-02  0.1312668E+00
        -11   -1    0    0    0    0  0.00000000000E+00  0.00000000000E+00  0.45593999997E+02  0.45594000000E+02  0.51100000000E-03 0.  1.
         11   -1    0    0    0    0 -0.00000000000E+00 -0.00000000000E+00 -0.45593999997E+02  0.45594000000E+02  0.51100000000E-03 0. -1.
    9900012    2    1    2    0    0 -0.41729378259E+02 -0.11198257572E+02 -0.41086809641E+01  0.47787271414E+02  0.20000001686E+02 0.  0.
         12    1    1    2    0    0  0.41729378259E+02  0.11198257572E+02  0.41086809641E+01  0.43400728586E+02  0.00000000000E+00 0. -1.
         11    1    3    3    0    0 -0.36887653268E+02 -0.73022750090E+01  0.12010960878E+01  0.37622663595E+02  0.51100000000E-03 0. -1.
        -11    1    3    3    0    0 -0.35898848137E+01 -0.25516200423E+00  0.86023327429E-02  0.35989519148E+01  0.51100000000E-03 0.  1.
         12    1    3    3    0    0 -0.12518401770E+01 -0.36408205588E+01 -0.53183793846E+01  0.65656559039E+01  0.00000000000E+00 0. -1.
</event>
<event>
 7    1  0.2812635E-010  0.4778730E+02  0.7816164E-02  0.1312668E+00
        -11   -1    0    0    0    0  0.00000000000E+00  0.00000000000E+00  0.45593999997E+02  0.45594000000E+02  0.51100000000E-03 0.  1.
         11   -1    0    0    0    0 -0.00000000000E+00 -0.00000000000E+00 -0.45593999997E+02  0.45594000000E+02  0.51100000000E-03 0. -1.
    9900012    2    1    2    0    0  0.16763937574E+01 -0.42457817515E+02  0.88399088366E+01  0.47787302398E+02  0.20000142951E+02 0.  0.
         12    1    1    2    0    0 -0.16763937574E+01  0.42457817515E+02 -0.88399088366E+01  0.43400697602E+02  0.00000000000E+00 0. -1.
         11    1    3    3    0    0  0.35068740794E+01 -0.59136286330E+01  0.21458873703E+01  0.72023608827E+01  0.51100000000E-03 0.  1.
        -11    1    3    3    0    0  0.57153823199E+01 -0.22474220899E+02 -0.20973684297E+00  0.23190519396E+02  0.51100000000E-03 0. -1.
        -12    1    3    3    0    0 -0.75458626418E+01 -0.14069967983E+02  0.69037583092E+01  0.17394422119E+02  0.00000000000E+00 0.  1.
</event>
<event>
 7    1  0.2812635E-010  0.4778727E+02  0.7816164E-02  0.1312668E+00
        -11   -1    0    0    0    0  0.00000000000E+00  0.00000000000E+00  0.45593999997E+02  0.45594000000E+02  0.51100000000E-03 0.  1.
         11   -1    0    0    0    0 -0.00000000000E+00 -0.00000000000E+00 -0.45593999997E+02  0.45594000000E+02  0.51100000000E-03 0. -1.
    9900012    2    1    2    0    0  0.41068959414E+02 -0.69228784359E+01 -0.12208110654E+02  0.47787266839E+02  0.19999980824E+02 0.  0.
         12    1    1    2    0    0 -0.41068959414E+02  0.69228784359E+01  0.12208110654E+02  0.43400733161E+02  0.00000000000E+00 0. -1.
         11    1    3    3    0    0  0.20645560499E+01 -0.26713584185E+00 -0.63391381835E+01  0.66722130071E+01  0.51100000000E-03 0. -1.
        -11    1    3    3    0    0  0.34924028222E+02 -0.69338127049E+01 -0.22881392851E+01  0.35679140791E+02  0.51100000000E-03 0.  1.
        -12    1    3    3    0    0  0.40803751419E+01  0.27807011093E+00 -0.35808331854E+01  0.54359130408E+01  0.00000000000E+00 0.  1.
</event>
<event>
 7    1  0.2812635E-010  0.4778727E+02  0.7816164E-02  0.1312668E+00
        -11   -1    0    0    0    0  0.00000000000E+00  0.00000000000E+00  0.45593999997E+02  0.45594000000E+02  0.51100000000E-03 0.  1.
         11   -1    0    0    0    0 -0.00000000000E+00 -0.00000000000E+00 -0.45593999997E+02  0.45594000000E+02  0.51100000000E-03 0. -1.
    9900012    2    1    2    0    0  0.16475587946E+02  0.19333561306E+02  0.35190787552E+02  0.47787272824E+02  0.20000008113E+02 0.  0.
         12    1    1    2    0    0 -0.16475587946E+02 -0.19333561306E+02 -0.35190787552E+02  0.43400727176E+02  0.00000000000E+00 0. -1.
         11    1    3    3    0    0 -0.15149799116E+01 -0.10514087882E+01  0.95034579137E+01  0.96807198674E+01  0.51100000000E-03 0. -1.
        -11    1    3    3    0    0  0.10377627969E+02  0.12007610851E+02  0.99887208107E+01  0.18752397828E+02  0.51100000000E-03 0.  1.
         12    1    3    3    0    0  0.76129398883E+01  0.83773592428E+01  0.15698608827E+02  0.19354155128E+02  0.00000000000E+00 0. -1.
</event>
<event>
 7    1  0.2812635E-010  0.4778727E+02  0.7816164E-02  0.1312668E+00
        -11   -1    0    0    0    0  0.00000000000E+00  0.00000000000E+00  0.45593999997E+02  0.45594000000E+02  0.51100000000E-03 0.  1.
         11   -1    0    0    0    0 -0.00000000000E+00 -0.00000000000E+00 -0.45593999997E+02  0.45594000000E+02  0.51100000000E-03 0. -1.
    9900012    2    1    2    0    0  0.11949804701E+02  0.35702608789E+02  0.21590490624E+02  0.47787269682E+02  0.19999993789E+02 0.  0.
         12    1    1    2    0    0 -0.11949804701E+02 -0.35702608789E+02 -0.21590490624E+02  0.43400730318E+02  0.00000000000E+00 0. -1.
         11    1    3    3    0    0  0.86526120422E+01  0.14331024131E+02  0.30552917285E+01  0.17017072475E+02  0.51100000000E-03 0. -1.
        -11    1    3    3    0    0 -0.42870486880E+01  0.82451148819E+01  0.84640680704E+01  0.12569851011E+02  0.51100000000E-03 0.  1.
        -12    1    3    3    0    0  0.75842413467E+01  0.13126469776E+02  0.10071130825E+02  0.18200346197E+02  0.00000000000E+00 0.  1.
</event>
<event>
 7    1  0.2812635E-010  0.4778727E+02  0.7816164E-02  0.1312668E+00
        -11   -1    0    0    0    0  0.00000000000E+00  0.00000000000E+00  0.45593999997E+02  0.45594000000E+02  0.51100000000E-03 0.  1.
         11   -1    0    0    0    0 -0.00000000000E+00 -0.00000000000E+00 -0.45593999997E+02  0.45594000000E+02  0.51100000000E-03 0. -1.
    9900012    2    1    2    0    0 -0.42679795888E+02  0.25267576491E+01 -0.74614826666E+01  0.47787271840E+02  0.20000003627E+02 0.  0.
         12    1    1    2    0    0  0.42679795888E+02 -0.25267576491E+01  0.74614826666E+01  0.43400728160E+02  0.00000000000E+00 0. -1.
         11    1    3    3    0    0 -0.25494687945E+01  0.51448149243E+01 -0.43488152140E+01  0.72028540014E+01  0.51100000000E-03 0. -1.
        -11    1    3    3    0    0 -0.15674576671E+02 -0.39174665192E+00  0.88429468495E+00  0.15704387814E+02  0.51100000000E-03 0.  1.
         12    1    3    3    0    0 -0.24455750422E+02 -0.22263106233E+01 -0.39969621375E+01  0.24880030024E+02  0.00000000000E+00 0. -1.
</event>
<event>
 7    1  0.2812635E-010  0.4778727E+02  0.7816164E-02  0.1312668E+00
        -11   -1    0    0    0    0  0.00000000000E+00  0.00000000000E+00  0.45593999997E+02  0.45594000000E+02  0.51100000000E-03 0. -1.
         11   -1    0    0    0    0 -0.00000000000E+00 -0.00000000000E+00 -0.45593999997E+02  0.45594000000E+02  0.51100000000E-03 0.  1.
    9900012    2    1    2    0    0  0.33725171671E+02  0.44005823016E+01 -0.26960538076E+02  0.47787274865E+02  0.20000017422E+02 0.  0.
         12    1    1    2    0    0 -0.33725171671E+02 -0.44005823016E+01  0.26960538076E+02  0.43400725135E+02  0.00000000000E+00 0. -1.
         11    1    3    3    0    0  0.69490941689E+01 -0.58490601074E+01 -0.37594681038E+01  0.98303110120E+01  0.51100000000E-03 0. -1.
        -11    1    3    3    0    0  0.26922015881E+02  0.11032007585E+02 -0.23109720041E+02  0.37155878284E+02  0.51100000000E-03 0.  1.
        -12    1    3    3    0    0 -0.14593837854E+00 -0.78236517618E+00 -0.91349931573E-01  0.80108556923E+00  0.00000000000E+00 0.  1.
</event>
<event>
 7    1  0.2812635E-010  0.4778727E+02  0.7816164E-02  0.1312668E+00
        -11   -1    0    0    0    0  0.00000000000E+00  0.00000000000E+00  0.45593999997E+02  0.45594000000E+02  0.51100000000E-03 0.  1.
         11   -1    0    0    0    0 -0.00000000000E+00 -0.00000000000E+00 -0.45593999997E+02  0.45594000000E+02  0.51100000000E-03 0. -1.
    9900012    2    1    2    0    0  0.93649080731E+01  0.28671972163E+02  0.31206402946E+02  0.47787273327E+02  0.20000010405E+02 0.  0.
         12    1    1    2    0    0 -0.93649080731E+01 -0.28671972163E+02 -0.31206402946E+02  0.43400726673E+02  0.00000000000E+00 0. -1.
         11    1    3    3    0    0  0.37567422255E+01  0.24395178704E+02  0.20595501813E+02  0.32146734692E+02  0.51100000000E-03 0. -1.
        -11    1    3    3    0    0  0.62533897952E+01  0.46766755280E+00  0.26816540896E+01  0.68201807738E+01  0.51100000000E-03 0.  1.
        -12    1    3    3    0    0 -0.64522394765E+00  0.38091259059E+01  0.79292470437E+01  0.88203578607E+01  0.00000000000E+00 0.  1.
</event>
<event>
 7    1  0.2812635E-010  0.4778727E+02  0.7816164E-02  0.1312668E+00
        -11   -1    0    0    0    0  0.00000000000E+00  0.00000000000E+00  0.45593999997E+02  0.45594000000E+02  0.51100000000E-03 0. -1.
         11   -1    0    0    0    0 -0.00000000000E+00 -0.00000000000E+00 -0.45593999997E+02  0.45594000000E+02  0.51100000000E-03 0.  1.
    9900012    2    1    2    0    0  0.19293118796E+02 -0.34855123115E+02 -0.17219731711E+02  0.47787271890E+02  0.20000003857E+02 0.  0.
         12    1    1    2    0    0 -0.19293118796E+02  0.34855123115E+02  0.17219731711E+02  0.43400728110E+02  0.00000000000E+00 0. -1.
         11    1    3    3    0    0  0.34112981439E+01 -0.23262496930E+01 -0.81604577540E+01  0.91455707135E+01  0.51100000000E-03 0. -1.
        -11    1    3    3    0    0  0.16970099084E+02 -0.28722351677E+02 -0.94222217504E+01  0.34666064267E+02  0.51100000000E-03 0.  1.
         12    1    3    3    0    0 -0.10882784320E+01 -0.38065217445E+01  0.36294779314E+00  0.39756369097E+01  0.00000000000E+00 0. -1.
</event>
<event>
 7    1  0.2812635E-010  0.4778727E+02  0.7816164E-02  0.1312668E+00
        -11   -1    0    0    0    0  0.00000000000E+00  0.00000000000E+00  0.45593999997E+02  0.45594000000E+02  0.51100000000E-03 0.  1.
         11   -1    0    0    0    0 -0.00000000000E+00 -0.00000000000E+00 -0.45593999997E+02  0.45594000000E+02  0.51100000000E-03 0. -1.
    9900012    2    1    2    0    0 -0.25429887757E+02 -0.35149662939E+02  0.12021279393E+01  0.47787272959E+02  0.20000008731E+02 0.  0.
         12    1    1    2    0    0  0.25429887757E+02  0.35149662939E+02 -0.12021279393E+01  0.43400727041E+02  0.00000000000E+00 0. -1.
         11    1    3    3    0    0 -0.22349796433E+02 -0.20085965233E+02  0.36058385728E+01  0.30264855394E+02  0.51100000000E-03 0. -1.
        -11    1    3    3    0    0 -0.56841185277E+01 -0.86122114537E+01 -0.22613392455E+01  0.10563760931E+02  0.51100000000E-03 0.  1.
         12    1    3    3    0    0  0.26040272039E+01 -0.64514862527E+01 -0.14237138794E+00  0.69586566347E+01  0.00000000000E+00 0. -1.
</event>
<event>
 7    1  0.2812635E-010  0.4778727E+02  0.7816164E-02  0.1312668E+00
        -11   -1    0    0    0    0  0.00000000000E+00  0.00000000000E+00  0.45593999997E+02  0.45594000000E+02  0.51100000000E-03 0.  1.
         11   -1    0    0    0    0 -0.00000000000E+00 -0.00000000000E+00 -0.45593999997E+02  0.45594000000E+02  0.51100000000E-03 0. -1.
    9900012    2    1    2    0    0  0.49999887424E+01 -0.30403852186E+02  0.30565160573E+02  0.47787272402E+02  0.20000006190E+02 0.  0.
         12    1    1    2    0    0 -0.49999887424E+01  0.30403852186E+02 -0.30565160573E+02  0.43400727598E+02  0.00000000000E+00 0. -1.
         11    1    3    3    0    0  0.75276030153E+01 -0.65060281734E+01  0.64807910931E+01  0.11874083678E+02  0.51100000000E-03 0. -1.
        -11    1    3    3    0    0 -0.50052074589E+01 -0.10597874543E+02  0.55539733747E+01  0.12969721163E+02  0.51100000000E-03 0.  1.
        -12    1    3    3    0    0  0.24775931860E+01 -0.13299949470E+02  0.18530396105E+02  0.22943467561E+02  0.00000000000E+00 0.  1.
</event>
<event>
 7    1  0.2812635E-010  0.4778726E+02  0.7816164E-02  0.1312668E+00
        -11   -1    0    0    0    0  0.00000000000E+00  0.00000000000E+00  0.45593999997E+02  0.45594000000E+02  0.51100000000E-03 0. -1.
         11   -1    0    0    0    0 -0.00000000000E+00 -0.00000000000E+00 -0.45593999997E+02  0.45594000000E+02  0.51100000000E-03 0.  1.
    9900012    2    1    2    0    0  0.15644761045E+02  0.44910992244E+01 -0.40233015652E+02  0.47787261886E+02  0.19999958243E+02 0.  0.
         12    1    1    2    0    0 -0.15644761045E+02 -0.44910992244E+01  0.40233015652E+02  0.43400738114E+02  0.00000000000E+00 0. -1.
         11    1    3    3    0    0 -0.39808849074E+01  0.16659075334E+01 -0.14833732802E+02  0.15448699675E+02  0.51100000000E-03 0. -1.
        -11    1    3    3    0    0  0.17589939645E+02  0.16623144351E+01 -0.22219670244E+02  0.28388078696E+02  0.51100000000E-03 0.  1.
         12    1    3    3    0    0  0.20357063074E+01  0.11628772560E+01 -0.31796126056E+01  0.39504835152E+01  0.00000000000E+00 0. -1.
</event>
<event>
 7    1  0.2812635E-010  0.4778727E+02  0.7816164E-02  0.1312668E+00
        -11   -1    0    0    0    0  0.00000000000E+00  0.00000000000E+00  0.45593999997E+02  0.45594000000E+02  0.51100000000E-03 0. -1.
         11   -1    0    0    0    0 -0.00000000000E+00 -0.00000000000E+00 -0.45593999997E+02  0.45594000000E+02  0.51100000000E-03 0.  1.
    9900012    2    1    2    0    0 -0.27802638058E+01  0.42031251989E+02 -0.10453112672E+02  0.47787267574E+02  0.19999984175E+02 0.  0.
         12    1    1    2    0    0  0.27802638058E+01 -0.42031251989E+02  0.10453112672E+02  0.43400732426E+02  0.00000000000E+00 0. -1.
         11    1    3    3    0    0 -0.34102040157E+01  0.29021244994E+02 -0.12838139703E+02  0.31916766499E+02  0.51100000000E-03 0.  1.
        -11    1    3    3    0    0 -0.99984509846E+00  0.82345173921E+00 -0.23595961319E+01  0.26917386862E+01  0.51100000000E-03 0. -1.
         12    1    3    3    0    0  0.16297853083E+01  0.12186555255E+02  0.47446231620E+01  0.13178762389E+02  0.00000000000E+00 0. -1.
</event>
<event>
 7    1  0.2812635E-010  0.4778727E+02  0.7816164E-02  0.1312668E+00
        -11   -1    0    0    0    0  0.00000000000E+00  0.00000000000E+00  0.45593999997E+02  0.45594000000E+02  0.51100000000E-03 0. -1.
         11   -1    0    0    0    0 -0.00000000000E+00 -0.00000000000E+00 -0.45593999997E+02  0.45594000000E+02  0.51100000000E-03 0.  1.
    9900012    2    1    2    0    0  0.31314246884E+02 -0.66145311675E+01 -0.29313635814E+02  0.47787270454E+02  0.19999997309E+02 0.  0.
         12    1    1    2    0    0 -0.31314246884E+02  0.66145311675E+01  0.29313635814E+02  0.43400729546E+02  0.00000000000E+00 0. -1.
         11    1    3    3    0    0  0.84108062502E+01  0.45184437887E+01 -0.18173956185E+01  0.97191009432E+01  0.51100000000E-03 0.  1.
        -11    1    3    3    0    0  0.11926735833E+02 -0.65706966157E+01 -0.19336574819E+02  0.23650036103E+02  0.51100000000E-03 0. -1.
        -12    1    3    3    0    0  0.10976704800E+02 -0.45622783405E+01 -0.81596653762E+01  0.14418133408E+02  0.00000000000E+00 0.  1.
</event>
<event>
 7    1  0.2812635E-010  0.4778727E+02  0.7816164E-02  0.1312668E+00
        -11   -1    0    0    0    0  0.00000000000E+00  0.00000000000E+00  0.45593999997E+02  0.45594000000E+02  0.51100000000E-03 0.  1.
         11   -1    0    0    0    0 -0.00000000000E+00 -0.00000000000E+00 -0.45593999997E+02  0.45594000000E+02  0.51100000000E-03 0. -1.
    9900012    2    1    2    0    0 -0.27385808709E+02  0.24838574326E+02 -0.22730734167E+02  0.47787267645E+02  0.19999984500E+02 0.  0.
         12    1    1    2    0    0  0.27385808709E+02 -0.24838574326E+02  0.22730734167E+02  0.43400732355E+02  0.00000000000E+00 0. -1.
         11    1    3    3    0    0 -0.46288919869E+01 -0.14383992236E+01 -0.48955865577E+01  0.68892961439E+01  0.51100000000E-03 0. -1.
        -11    1    3    3    0    0  0.81372857431E+00  0.31401239775E+01  0.22954898755E+00  0.32519572238E+01  0.51100000000E-03 0.  1.
         12    1    3    3    0    0 -0.23570645296E+02  0.23136849572E+02 -0.18064696596E+02  0.37646014277E+02  0.00000000000E+00 0. -1.
</event>
<event>
 7    1  0.2812635E-010  0.4778727E+02  0.7816164E-02  0.1312668E+00
        -11   -1    0    0    0    0  0.00000000000E+00  0.00000000000E+00  0.45593999997E+02  0.45594000000E+02  0.51100000000E-03 0.  1.
         11   -1    0    0    0    0 -0.00000000000E+00 -0.00000000000E+00 -0.45593999997E+02  0.45594000000E+02  0.51100000000E-03 0. -1.
    9900012    2    1    2    0    0 -0.24387451842E+02  0.22030121355E+02  0.28346942090E+02  0.47787272125E+02  0.20000004926E+02 0.  0.
         12    1    1    2    0    0  0.24387451842E+02 -0.22030121355E+02 -0.28346942090E+02  0.43400727875E+02  0.00000000000E+00 0. -1.
         11    1    3    3    0    0 -0.11188430707E+02  0.11657684339E+02  0.33947959320E+01  0.16510821467E+02  0.51100000000E-03 0. -1.
        -11    1    3    3    0    0 -0.94886237790E+01  0.11384544632E+02  0.21469676544E+02  0.26088097839E+02  0.51100000000E-03 0.  1.
         12    1    3    3    0    0 -0.37103973555E+01 -0.10121076154E+01  0.34824696137E+01  0.51883528187E+01  0.00000000000E+00 0. -1.
</event>
<event>
 7    1  0.2812635E-010  0.4778727E+02  0.7816164E-02  0.1312668E+00
        -11   -1    0    0    0    0  0.00000000000E+00  0.00000000000E+00  0.45593999997E+02  0.45594000000E+02  0.51100000000E-03 0.  1.
         11   -1    0    0    0    0 -0.00000000000E+00 -0.00000000000E+00 -0.45593999997E+02  0.45594000000E+02  0.51100000000E-03 0. -1.
    9900012    2    1    2    0    0 -0.16888346934E+02  0.31680742030E+02  0.24387237148E+02  0.47787274045E+02  0.20000013680E+02 0.  0.
         12    1    1    2    0    0  0.16888346934E+02 -0.31680742030E+02 -0.24387237148E+02  0.43400725955E+02  0.00000000000E+00 0. -1.
         11    1    3    3    0    0 -0.12370015177E+01  0.10838934725E+02  0.15709558966E+02  0.19125975057E+02  0.51100000000E-03 0. -1.
        -11    1    3    3    0    0 -0.44538176648E+01  0.93279883854E+01  0.70632041668E+01  0.12519453362E+02  0.51100000000E-03 0.  1.
         12    1    3    3    0    0 -0.11197527752E+02  0.11513818919E+02  0.16144740150E+01  0.16141845626E+02  0.00000000000E+00 0. -1.
</event>
<event>
 7    1  0.2812635E-010  0.4778727E+02  0.7816164E-02  0.1312668E+00
        -11   -1    0    0    0    0  0.00000000000E+00  0.00000000000E+00  0.45593999997E+02  0.45594000000E+02  0.51100000000E-03 0.  1.
         11   -1    0    0    0    0 -0.00000000000E+00 -0.00000000000E+00 -0.45593999997E+02  0.45594000000E+02  0.51100000000E-03 0. -1.
    9900012    2    1    2    0    0 -0.21845483247E+02  0.30451130436E+02  0.21888958446E+02  0.47787274373E+02  0.20000015177E+02 0.  0.
         12    1    1    2    0    0  0.21845483247E+02 -0.30451130436E+02 -0.21888958446E+02  0.43400725627E+02  0.00000000000E+00 0. -1.
         11    1    3    3    0    0 -0.16813793760E+02  0.17616141245E+02  0.21476955205E+02  0.32469858302E+02  0.51100000000E-03 0.  1.
        -11    1    3    3    0    0 -0.30734062745E+01  0.74570116409E+01 -0.30562410763E+01  0.86251642603E+01  0.51100000000E-03 0. -1.
        -12    1    3    3    0    0 -0.19582832119E+01  0.53779775494E+01  0.34682443170E+01  0.66922518110E+01  0.00000000000E+00 0.  1.
</event>
<event>
 7    1  0.2812635E-010  0.4778727E+02  0.7816164E-02  0.1312668E+00
        -11   -1    0    0    0    0  0.00000000000E+00  0.00000000000E+00  0.45593999997E+02  0.45594000000E+02  0.51100000000E-03 0.  1.
         11   -1    0    0    0    0 -0.00000000000E+00 -0.00000000000E+00 -0.45593999997E+02  0.45594000000E+02  0.51100000000E-03 0. -1.
    9900012    2    1    2    0    0 -0.11530935707E+02 -0.37619587532E+02  0.18314675112E+02  0.47787272255E+02  0.20000005518E+02 0.  0.
         12    1    1    2    0    0  0.11530935707E+02  0.37619587532E+02 -0.18314675112E+02  0.43400727745E+02  0.00000000000E+00 0. -1.
         11    1    3    3    0    0 -0.30177184216E+01 -0.84688207427E+01  0.12951711800E+02  0.15766242040E+02  0.51100000000E-03 0. -1.
        -11    1    3    3    0    0  0.10971332096E+00 -0.14823708298E+02  0.31275864473E+01  0.15150450883E+02  0.51100000000E-03 0.  1.
         12    1    3    3    0    0 -0.86229306067E+01 -0.14327058492E+02  0.22353768645E+01  0.16870579332E+02  0.00000000000E+00 0. -1.
</event>
<event>
 7    1  0.2812635E-010  0.4778728E+02  0.7816164E-02  0.1312668E+00
        -11   -1    0    0    0    0  0.00000000000E+00  0.00000000000E+00  0.45593999997E+02  0.45594000000E+02  0.51100000000E-03 0.  1.
         11   -1    0    0    0    0 -0.00000000000E+00 -0.00000000000E+00 -0.45593999997E+02  0.45594000000E+02  0.51100000000E-03 0. -1.
    9900012    2    1    2    0    0  0.36956414179E+02  0.21866516092E+02  0.63009279874E+01  0.47787276866E+02  0.20000026544E+02 0.  0.
         12    1    1    2    0    0 -0.36956414179E+02 -0.21866516092E+02 -0.63009279874E+01  0.43400723134E+02  0.00000000000E+00 0. -1.
         11    1    3    3    0    0  0.52232671632E+01  0.11196081858E+02  0.51030783075E+01  0.13366980860E+02  0.51100000000E-03 0.  1.
        -11    1    3    3    0    0  0.23046243627E+02  0.48100741487E+01 -0.15290423093E+01  0.23592459162E+02  0.51100000000E-03 0. -1.
        -12    1    3    3    0    0  0.86869033888E+01  0.58603600856E+01  0.27268919892E+01  0.10827836845E+02  0.00000000000E+00 0.  1.
</event>
<event>
 7    1  0.2812635E-010  0.4778727E+02  0.7816164E-02  0.1312668E+00
        -11   -1    0    0    0    0  0.00000000000E+00  0.00000000000E+00  0.45593999997E+02  0.45594000000E+02  0.51100000000E-03 0. -1.
         11   -1    0    0    0    0 -0.00000000000E+00 -0.00000000000E+00 -0.45593999997E+02  0.45594000000E+02  0.51100000000E-03 0.  1.
    9900012    2    1    2    0    0  0.40491450525E+02 -0.15237174733E+02  0.34488107780E+01  0.47787270107E+02  0.19999995725E+02 0.  0.
         12    1    1    2    0    0 -0.40491450525E+02  0.15237174733E+02 -0.34488107780E+01  0.43400729893E+02  0.00000000000E+00 0. -1.
         11    1    3    3    0    0  0.10435038554E+02  0.59689499168E+00  0.51641020393E+01  0.11658227283E+02  0.51100000000E-03 0.  1.
        -11    1    3    3    0    0  0.50419605243E+01 -0.71377338801E+01 -0.38721637593E+01  0.95583609113E+01  0.51100000000E-03 0. -1.
        -12    1    3    3    0    0  0.25014451447E+02 -0.86963358447E+01  0.21568724981E+01  0.26570681912E+02  0.00000000000E+00 0.  1.
</event>
<event>
 7    1  0.2812635E-010  0.4778727E+02  0.7816164E-02  0.1312668E+00
        -11   -1    0    0    0    0  0.00000000000E+00  0.00000000000E+00  0.45593999997E+02  0.45594000000E+02  0.51100000000E-03 0.  1.
         11   -1    0    0    0    0 -0.00000000000E+00 -0.00000000000E+00 -0.45593999997E+02  0.45594000000E+02  0.51100000000E-03 0. -1.
    9900012    2    1    2    0    0 -0.10947140188E+02 -0.10193710285E+02  0.40741523337E+02  0.47787270381E+02  0.19999996974E+02 0.  0.
         12    1    1    2    0    0  0.10947140188E+02  0.10193710285E+02 -0.40741523337E+02  0.43400729619E+02  0.00000000000E+00 0. -1.
         11    1    3    3    0    0  0.10922764244E+01 -0.90612414907E+01  0.92020084366E+01  0.12960560353E+02  0.51100000000E-03 0. -1.
        -11    1    3    3    0    0 -0.82658973434E+01  0.29783382535E+01  0.23047185405E+02  0.24665123414E+02  0.51100000000E-03 0.  1.
        -12    1    3    3    0    0 -0.37735192690E+01 -0.41108070476E+01  0.84923294950E+01  0.10161586614E+02  0.00000000000E+00 0.  1.
</event>
<event>
 7    1  0.2812635E-010  0.4778727E+02  0.7816164E-02  0.1312668E+00
        -11   -1    0    0    0    0  0.00000000000E+00  0.00000000000E+00  0.45593999997E+02  0.45594000000E+02  0.51100000000E-03 0.  1.
         11   -1    0    0    0    0 -0.00000000000E+00 -0.00000000000E+00 -0.45593999997E+02  0.45594000000E+02  0.51100000000E-03 0. -1.
    9900012    2    1    2    0    0  0.22731242615E+02  0.88549011822E+01  0.35895746481E+02  0.47787270960E+02  0.19999999614E+02 0.  0.
         12    1    1    2    0    0 -0.22731242615E+02 -0.88549011822E+01 -0.35895746481E+02  0.43400729040E+02  0.00000000000E+00 0. -1.
         11    1    3    3    0    0  0.13776637330E+02 -0.51870647714E+00  0.64837462317E+01  0.15234951853E+02  0.51100000000E-03 0. -1.
        -11    1    3    3    0    0  0.96062460203E+01  0.85717146137E+01  0.26488008137E+02  0.29451126113E+02  0.51100000000E-03 0.  1.
         12    1    3    3    0    0 -0.65164073500E+00  0.80189304569E+00  0.29239921131E+01  0.31011929933E+01  0.00000000000E+00 0. -1.
</event>
<event>
 7    1  0.2812635E-010  0.4778727E+02  0.7816164E-02  0.1312668E+00
        -11   -1    0    0    0    0  0.00000000000E+00  0.00000000000E+00  0.45593999997E+02  0.45594000000E+02  0.51100000000E-03 0. -1.
         11   -1    0    0    0    0 -0.00000000000E+00 -0.00000000000E+00 -0.45593999997E+02  0.45594000000E+02  0.51100000000E-03 0.  1.
    9900012    2    1    2    0    0 -0.11809424289E+01 -0.32209531824E+02 -0.29065015405E+02  0.47787266298E+02  0.19999978361E+02 0.  0.
         12    1    1    2    0    0  0.11809424289E+01  0.32209531824E+02  0.29065015405E+02  0.43400733702E+02  0.00000000000E+00 0. -1.
         11    1    3    3    0    0 -0.39285731318E+01 -0.95913663022E+01 -0.25211841627E+00  0.10367813576E+02  0.51100000000E-03 0. -1.
        -11    1    3    3    0    0 -0.11424046128E+00 -0.12318465027E+02 -0.20336751013E+02  0.23776902101E+02  0.51100000000E-03 0.  1.
         12    1    3    3    0    0  0.28618711642E+01 -0.10299700495E+02 -0.84761459757E+01  0.13642550621E+02  0.00000000000E+00 0. -1.
</event>
<event>
 7    1  0.2812635E-010  0.4778727E+02  0.7816164E-02  0.1312668E+00
        -11   -1    0    0    0    0  0.00000000000E+00  0.00000000000E+00  0.45593999997E+02  0.45594000000E+02  0.51100000000E-03 0.  1.
         11   -1    0    0    0    0 -0.00000000000E+00 -0.00000000000E+00 -0.45593999997E+02  0.45594000000E+02  0.51100000000E-03 0. -1.
    9900012    2    1    2    0    0 -0.10156725175E+02  0.37249563523E+02 -0.19822565903E+02  0.47787272265E+02  0.20000005564E+02 0.  0.
         12    1    1    2    0    0  0.10156725175E+02 -0.37249563523E+02  0.19822565903E+02  0.43400727735E+02  0.00000000000E+00 0. -1.
         11    1    3    3    0    0 -0.45816301909E+01  0.22151932266E+02 -0.18118360285E+02  0.28982312157E+02  0.51100000000E-03 0. -1.
        -11    1    3    3    0    0 -0.37308567603E+01  0.50272086451E+01  0.36549773078E+01  0.72492053571E+01  0.51100000000E-03 0.  1.
        -12    1    3    3    0    0 -0.18442382237E+01  0.10070422612E+02 -0.53591829263E+01  0.11555754750E+02  0.00000000000E+00 0.  1.
</event>
<event>
 7    1  0.2812635E-010  0.4778727E+02  0.7816164E-02  0.1312668E+00
        -11   -1    0    0    0    0  0.00000000000E+00  0.00000000000E+00  0.45593999997E+02  0.45594000000E+02  0.51100000000E-03 0.  1.
         11   -1    0    0    0    0 -0.00000000000E+00 -0.00000000000E+00 -0.45593999997E+02  0.45594000000E+02  0.51100000000E-03 0. -1.
    9900012    2    1    2    0    0 -0.31103831992E+01  0.12128748797E+01  0.43272137223E+02  0.47787269488E+02  0.19999992903E+02 0.  0.
         12    1    1    2    0    0  0.31103831992E+01 -0.12128748797E+01 -0.43272137223E+02  0.43400730512E+02  0.00000000000E+00 0. -1.
         11    1    3    3    0    0  0.25549202733E+01  0.16872621634E+00  0.30299175456E+01  0.39669240897E+01  0.51100000000E-03 0.  1.
        -11    1    3    3    0    0 -0.10116745950E+02  0.49073066901E+01  0.23059237722E+02  0.25654602943E+02  0.51100000000E-03 0. -1.
        -12    1    3    3    0    0  0.44514424778E+01 -0.38631580267E+01  0.17182981956E+02  0.18165742456E+02  0.00000000000E+00 0.  1.
</event>
<event>
 7    1  0.2812635E-010  0.4778727E+02  0.7816164E-02  0.1312668E+00
        -11   -1    0    0    0    0  0.00000000000E+00  0.00000000000E+00  0.45593999997E+02  0.45594000000E+02  0.51100000000E-03 0.  1.
         11   -1    0    0    0    0 -0.00000000000E+00 -0.00000000000E+00 -0.45593999997E+02  0.45594000000E+02  0.51100000000E-03 0. -1.
    9900012    2    1    2    0    0  0.21816326873E+02 -0.22502316792E+02  0.30021935561E+02  0.47787274268E+02  0.20000014696E+02 0.  0.
         12    1    1    2    0    0 -0.21816326873E+02  0.22502316792E+02 -0.30021935561E+02  0.43400725732E+02  0.00000000000E+00 0. -1.
         11    1    3    3    0    0  0.84290847377E+01 -0.12017472619E+02  0.19178513271E+01  0.14803623598E+02  0.51100000000E-03 0. -1.
        -11    1    3    3    0    0  0.10214189161E+02 -0.76450594772E+01  0.23297029587E+02  0.26561780484E+02  0.51100000000E-03 0.  1.
         12    1    3    3    0    0  0.31730529746E+01 -0.28397846958E+01  0.48070546466E+01  0.64218701850E+01  0.00000000000E+00 0. -1.
</event>
<event>
 7    1  0.2812635E-010  0.4778729E+02  0.7816164E-02  0.1312668E+00
        -11   -1    0    0    0    0  0.00000000000E+00  0.00000000000E+00  0.45593999997E+02  0.45594000000E+02  0.51100000000E-03 0.  1.
         11   -1    0    0    0    0 -0.00000000000E+00 -0.00000000000E+00 -0.45593999997E+02  0.45594000000E+02  0.51100000000E-03 0. -1.
    9900012    2    1    2    0    0 -0.28164792883E+02 -0.25945868205E+02  0.20424927198E+02  0.47787293944E+02  0.20000104410E+02 0.  0.
         12    1    1    2    0    0  0.28164792883E+02  0.25945868205E+02 -0.20424927198E+02  0.43400706056E+02  0.00000000000E+00 0. -1.
         11    1    3    3    0    0  0.69663713726E+00  0.87344358102E+00  0.38192909841E+00  0.11807104165E+01  0.51100000000E-03 0. -1.
        -11    1    3    3    0    0 -0.24759662592E+02 -0.26373960630E+02  0.21672957862E+02  0.42170413725E+02  0.51100000000E-03 0.  1.
        -12    1    3    3    0    0 -0.41017674285E+01 -0.44535115578E+00 -0.16299597628E+01  0.44361698027E+01  0.00000000000E+00 0.  1.
</event>
<event>
 7    1  0.2812635E-010  0.4778727E+02  0.7816164E-02  0.1312668E+00
        -11   -1    0    0    0    0  0.00000000000E+00  0.00000000000E+00  0.45593999997E+02  0.45594000000E+02  0.51100000000E-03 0. -1.
         11   -1    0    0    0    0 -0.00000000000E+00 -0.00000000000E+00 -0.45593999997E+02  0.45594000000E+02  0.51100000000E-03 0.  1.
    9900012    2    1    2    0    0 -0.22550128270E+02 -0.18018474479E+02 -0.32410647608E+02  0.47787265145E+02  0.19999973104E+02 0.  0.
         12    1    1    2    0    0  0.22550128270E+02  0.18018474479E+02  0.32410647608E+02  0.43400734855E+02  0.00000000000E+00 0. -1.
         11    1    3    3    0    0  0.10713145934E+01 -0.56322111075E+01 -0.27724091018E+01  0.63683411817E+01  0.51100000000E-03 0.  1.
        -11    1    3    3    0    0 -0.21782867116E+02 -0.71503343094E+01 -0.20647755200E+02  0.30853693062E+02  0.51100000000E-03 0. -1.
         12    1    3    3    0    0 -0.18385757474E+01 -0.52359290625E+01 -0.89904833058E+01  0.10565230901E+02  0.00000000000E+00 0. -1.
</event>
<event>
 7    1  0.2812635E-010  0.4778728E+02  0.7816164E-02  0.1312668E+00
        -11   -1    0    0    0    0  0.00000000000E+00  0.00000000000E+00  0.45593999997E+02  0.45594000000E+02  0.51100000000E-03 0.  1.
         11   -1    0    0    0    0 -0.00000000000E+00 -0.00000000000E+00 -0.45593999997E+02  0.45594000000E+02  0.51100000000E-03 0. -1.
    9900012    2    1    2    0    0  0.18195800925E+01  0.38078547686E+02  0.20744537293E+02  0.47787280039E+02  0.20000041012E+02 0.  0.
         12    1    1    2    0    0 -0.18195800925E+01 -0.38078547686E+02 -0.20744537293E+02  0.43400719961E+02  0.00000000000E+00 0. -1.
         11    1    3    3    0    0  0.84893046771E+00  0.11056049484E+02 -0.23085970027E+01  0.11326364532E+02  0.51100000000E-03 0. -1.
        -11    1    3    3    0    0  0.29828649701E+01  0.49156898335E+01  0.27321021253E+01  0.63659934224E+01  0.51100000000E-03 0.  1.
         12    1    3    3    0    0 -0.20122153453E+01  0.22106808369E+02  0.20321032170E+02  0.30094922085E+02  0.00000000000E+00 0. -1.
</event>
<event>
 7    1  0.2812635E-010  0.4778727E+02  0.7816164E-02  0.1312668E+00
        -11   -1    0    0    0    0  0.00000000000E+00  0.00000000000E+00  0.45593999997E+02  0.45594000000E+02  0.51100000000E-03 0. -1.
         11   -1    0    0    0    0 -0.00000000000E+00 -0.00000000000E+00 -0.45593999997E+02  0.45594000000E+02  0.51100000000E-03 0.  1.
    9900012    2    1    2    0    0  0.41829146419E+02 -0.58375281131E+01 -0.99934566673E+01  0.47787269583E+02  0.19999993336E+02 0.  0.
         12    1    1    2    0    0 -0.41829146419E+02  0.58375281131E+01  0.99934566673E+01  0.43400730417E+02  0.00000000000E+00 0. -1.
         11    1    3    3    0    0  0.24455650362E+01 -0.28321289396E+01 -0.74125772410E+00  0.38146042982E+01  0.51100000000E-03 0. -1.
        -11    1    3    3    0    0  0.12415458264E+02  0.49581565009E+01 -0.85019701539E+01  0.15843308258E+02  0.51100000000E-03 0.  1.
        -12    1    3    3    0    0  0.26968123118E+02 -0.79635556743E+01 -0.75022878929E+00  0.28129357027E+02  0.00000000000E+00 0.  1.
</event>
<event>
 7    1  0.2812635E-010  0.4778730E+02  0.7816164E-02  0.1312668E+00
        -11   -1    0    0    0    0  0.00000000000E+00  0.00000000000E+00  0.45593999997E+02  0.45594000000E+02  0.51100000000E-03 0.  1.
         11   -1    0    0    0    0 -0.00000000000E+00 -0.00000000000E+00 -0.45593999997E+02  0.45594000000E+02  0.51100000000E-03 0. -1.
    9900012    2    1    2    0    0  0.27791450580E+02  0.30308969698E+02  0.13878857805E+02  0.47787296510E+02  0.20000116106E+02 0.  0.
         12    1    1    2    0    0 -0.27791450580E+02 -0.30308969698E+02 -0.13878857805E+02  0.43400703490E+02  0.00000000000E+00 0. -1.
         11    1    3    3    0    0 -0.21560269215E+01 -0.72777158322E+00  0.16351180088E+01  0.28020911347E+01  0.51100000000E-03 0. -1.
        -11    1    3    3    0    0  0.13635657304E+02  0.12994398548E+02  0.36314255534E+01  0.19182617015E+02  0.51100000000E-03 0.  1.
         12    1    3    3    0    0  0.16311820197E+02  0.18042342733E+02  0.86123142426E+01  0.25802588360E+02  0.00000000000E+00 0. -1.
</event>
<event>
 7    1  0.2812635E-010  0.4778727E+02  0.7816164E-02  0.1312668E+00
        -11   -1    0    0    0    0  0.00000000000E+00  0.00000000000E+00  0.45593999997E+02  0.45594000000E+02  0.51100000000E-03 0. -1.
         11   -1    0    0    0    0 -0.00000000000E+00 -0.00000000000E+00 -0.45593999997E+02  0.45594000000E+02  0.51100000000E-03 0.  1.
    9900012    2    1    2    0    0  0.12444451126E+02  0.75713223140E+01 -0.40883179627E+02  0.47787266575E+02  0.19999979621E+02 0.  0.
         12    1    1    2    0    0 -0.12444451126E+02 -0.75713223140E+01  0.40883179627E+02  0.43400733425E+02  0.00000000000E+00 0. -1.
         11    1    3    3    0    0  0.29114359187E+00  0.96073869074E-01  0.19604778539E+01  0.19843055349E+01  0.51100000000E-03 0. -1.
        -11    1    3    3    0    0  0.12343251602E+02  0.59413546191E+01 -0.31435988155E+02  0.34291061611E+02  0.51100000000E-03 0.  1.
        -12    1    3    3    0    0 -0.18994406857E+00  0.15338938257E+01 -0.11407669326E+02  0.11511899429E+02  0.00000000000E+00 0.  1.
</event>
<event>
 7    1  0.2812635E-010  0.4778727E+02  0.7816164E-02  0.1312668E+00
        -11   -1    0    0    0    0  0.00000000000E+00  0.00000000000E+00  0.45593999997E+02  0.45594000000E+02  0.51100000000E-03 0.  1.
         11   -1    0    0    0    0 -0.00000000000E+00 -0.00000000000E+00 -0.45593999997E+02  0.45594000000E+02  0.51100000000E-03 0. -1.
    9900012    2    1    2    0    0  0.23115885493E+02  0.36649936148E+02  0.24619861351E+01  0.47787270081E+02  0.19999995609E+02 0.  0.
         12    1    1    2    0    0 -0.23115885493E+02 -0.36649936148E+02 -0.24619861351E+01  0.43400729919E+02  0.00000000000E+00 0. -1.
         11    1    3    3    0    0 -0.28649154985E+01  0.19217752528E+01  0.88299769143E+00  0.35609894861E+01  0.51100000000E-03 0. -1.
        -11    1    3    3    0    0  0.16950084652E+02  0.24116864525E+02 -0.28258262769E+01  0.29612730685E+02  0.51100000000E-03 0.  1.
         12    1    3    3    0    0  0.90307163391E+01  0.10611296370E+02  0.44048147206E+01  0.14613549910E+02  0.00000000000E+00 0. -1.
</event>
<event>
 7    1  0.2860287E-010  0.4778727E+02  0.7816164E-02  0.1312668E+00
        -11   -1    0    0    0    0  0.00000000000E+00  0.00000000000E+00  0.45593999997E+02  0.45594000000E+02  0.51100000000E-03 0. -1.
         11   -1    0    0    0    0 -0.00000000000E+00 -0.00000000000E+00 -0.45593999997E+02  0.45594000000E+02  0.51100000000E-03 0.  1.
    9900012    2    1    2    0    0 -0.25897080341E+01 -0.11427390802E+02 -0.41789134401E+02  0.47787267262E+02  0.19999982754E+02 0.  0.
         12    1    1    2    0    0  0.25897080341E+01  0.11427390802E+02  0.41789134401E+02  0.43400732738E+02  0.00000000000E+00 0. -1.
         11    1    3    3    0    0  0.25953568396E+01  0.35537376941E+01 -0.34608941201E+01  0.55984566708E+01  0.51100000000E-03 0. -1.
        -11    1    3    3    0    0 -0.43202262766E+01 -0.57379908117E+01 -0.24517230739E+02  0.25547671068E+02  0.51100000000E-03 0.  1.
         12    1    3    3    0    0 -0.86483859719E+00 -0.92431376848E+01 -0.13811009541E+02  0.16641139523E+02  0.00000000000E+00 0. -1.
</event>
<event>
 7    1  0.2812635E-010  0.4778727E+02  0.7816164E-02  0.1312668E+00
        -11   -1    0    0    0    0  0.00000000000E+00  0.00000000000E+00  0.45593999997E+02  0.45594000000E+02  0.51100000000E-03 0.  1.
         11   -1    0    0    0    0 -0.00000000000E+00 -0.00000000000E+00 -0.45593999997E+02  0.45594000000E+02  0.51100000000E-03 0. -1.
    9900012    2    1    2    0    0  0.25664933083E+02 -0.13458858303E+02  0.32307790949E+02  0.47787274051E+02  0.20000013706E+02 0.  0.
         12    1    1    2    0    0 -0.25664933083E+02  0.13458858303E+02 -0.32307790949E+02  0.43400725949E+02  0.00000000000E+00 0. -1.
         11    1    3    3    0    0  0.14203263348E+02 -0.13397847652E+02  0.14995052675E+02  0.24618826463E+02  0.51100000000E-03 0. -1.
        -11    1    3    3    0    0  0.12183371924E+02  0.15146829543E+01  0.17551214522E+02  0.21419009018E+02  0.51100000000E-03 0.  1.
         12    1    3    3    0    0 -0.72170218886E+00 -0.15756936053E+01 -0.23847624775E+00  0.17494385693E+01  0.00000000000E+00 0. -1.
</event>
<event>
 7    1  0.2812635E-010  0.4778727E+02  0.7816164E-02  0.1312668E+00
        -11   -1    0    0    0    0  0.00000000000E+00  0.00000000000E+00  0.45593999997E+02  0.45594000000E+02  0.51100000000E-03 0.  1.
         11   -1    0    0    0    0 -0.00000000000E+00 -0.00000000000E+00 -0.45593999997E+02  0.45594000000E+02  0.51100000000E-03 0. -1.
    9900012    2    1    2    0    0 -0.18571189548E+02  0.10602763544E+02  0.37766593225E+02  0.47787271436E+02  0.20000001787E+02 0.  0.
         12    1    1    2    0    0  0.18571189548E+02 -0.10602763544E+02 -0.37766593225E+02  0.43400728564E+02  0.00000000000E+00 0. -1.
         11    1    3    3    0    0 -0.12905503529E+02  0.11834806710E+01  0.23112353079E+02  0.26497802040E+02  0.51100000000E-03 0. -1.
        -11    1    3    3    0    0 -0.63190542312E+01  0.79147786526E+01  0.46371927593E+01  0.11139018110E+02  0.51100000000E-03 0.  1.
         12    1    3    3    0    0  0.65336821234E+00  0.15045042204E+01  0.10017047387E+02  0.10150451287E+02  0.00000000000E+00 0. -1.
</event>
<event>
 7    1  0.2812635E-010  0.4778727E+02  0.7816164E-02  0.1312668E+00
        -11   -1    0    0    0    0  0.00000000000E+00  0.00000000000E+00  0.45593999997E+02  0.45594000000E+02  0.51100000000E-03 0.  1.
         11   -1    0    0    0    0 -0.00000000000E+00 -0.00000000000E+00 -0.45593999997E+02  0.45594000000E+02  0.51100000000E-03 0. -1.
    9900012    2    1    2    0    0  0.25769226876E+02 -0.33388313251E+02 -0.10236744886E+02  0.47787268884E+02  0.19999990150E+02 0.  0.
         12    1    1    2    0    0 -0.25769226876E+02  0.33388313251E+02  0.10236744886E+02  0.43400731116E+02  0.00000000000E+00 0. -1.
         11    1    3    3    0    0 -0.86212452549E+00 -0.68137603499E+01 -0.18632521641E+01  0.71163401894E+01  0.51100000000E-03 0. -1.
        -11    1    3    3    0    0  0.12668434225E+02 -0.48655111327E+01 -0.11807338758E+00  0.13571159342E+02  0.51100000000E-03 0.  1.
        -12    1    3    3    0    0  0.13962917176E+02 -0.21709041769E+02 -0.82554193344E+01  0.27099769353E+02  0.00000000000E+00 0.  1.
</event>
<event>
 7    1  0.2812635E-010  0.4778727E+02  0.7816164E-02  0.1312668E+00
        -11   -1    0    0    0    0  0.00000000000E+00  0.00000000000E+00  0.45593999997E+02  0.45594000000E+02  0.51100000000E-03 0.  1.
         11   -1    0    0    0    0 -0.00000000000E+00 -0.00000000000E+00 -0.45593999997E+02  0.45594000000E+02  0.51100000000E-03 0. -1.
    9900012    2    1    2    0    0 -0.41085181216E+02 -0.83769376499E+01 -0.11200804178E+02  0.47787271732E+02  0.20000003133E+02 0.  0.
         12    1    1    2    0    0  0.41085181216E+02  0.83769376499E+01  0.11200804178E+02  0.43400728268E+02  0.00000000000E+00 0. -1.
         11    1    3    3    0    0 -0.28747866114E+01  0.40375564146E+01  0.81136981797E-01  0.49571002949E+01  0.51100000000E-03 0. -1.
        -11    1    3    3    0    0 -0.12278266174E+02  0.12202448416E+00 -0.13063120139E+01  0.12348164298E+02  0.51100000000E-03 0.  1.
         12    1    3    3    0    0 -0.25932128432E+02 -0.12536518549E+02 -0.99756291464E+01  0.30482007138E+02  0.00000000000E+00 0. -1.
</event>
<event>
 7    1  0.2812635E-010  0.4778730E+02  0.7816164E-02  0.1312668E+00
        -11   -1    0    0    0    0  0.00000000000E+00  0.00000000000E+00  0.45593999997E+02  0.45594000000E+02  0.51100000000E-03 0.  1.
         11   -1    0    0    0    0 -0.00000000000E+00 -0.00000000000E+00 -0.45593999997E+02  0.45594000000E+02  0.51100000000E-03 0. -1.
    9900012    2    1    2    0    0 -0.15159741608E+01 -0.14939279685E+02  0.40720270237E+02  0.47787301119E+02  0.20000137121E+02 0.  0.
         12    1    1    2    0    0  0.15159741608E+01  0.14939279685E+02 -0.40720270237E+02  0.43400698881E+02  0.00000000000E+00 0. -1.
         11    1    3    3    0    0  0.14603913966E+01 -0.82881832040E+01  0.59459590222E+01  0.10304423944E+02  0.51100000000E-03 0. -1.
        -11    1    3    3    0    0 -0.23989128468E+01  0.14773519724E+01  0.22951497853E+02  0.23123767116E+02  0.51100000000E-03 0.  1.
        -12    1    3    3    0    0 -0.57745271054E+00 -0.81284484534E+01  0.11822813362E+02  0.14359110059E+02  0.00000000000E+00 0.  1.
</event>
<event>
 7    1  0.2812635E-010  0.4778727E+02  0.7816164E-02  0.1312668E+00
        -11   -1    0    0    0    0  0.00000000000E+00  0.00000000000E+00  0.45593999997E+02  0.45594000000E+02  0.51100000000E-03 0.  1.
         11   -1    0    0    0    0 -0.00000000000E+00 -0.00000000000E+00 -0.45593999997E+02  0.45594000000E+02  0.51100000000E-03 0. -1.
    9900012    2    1    2    0    0  0.20325034085E+02  0.11370082034E+02  0.36622908178E+02  0.47787272133E+02  0.20000004962E+02 0.  0.
         12    1    1    2    0    0 -0.20325034085E+02 -0.11370082034E+02 -0.36622908178E+02  0.43400727867E+02  0.00000000000E+00 0. -1.
         11    1    3    3    0    0  0.36442977979E+00 -0.14757087146E+01  0.51708366725E+01  0.53896268359E+01  0.51100000000E-03 0. -1.
        -11    1    3    3    0    0 -0.22027827020E+00  0.74993532596E+01  0.72168811649E+01  0.10410196724E+02  0.51100000000E-03 0.  1.
        -12    1    3    3    0    0  0.20180882575E+02  0.53464374890E+01  0.24235190340E+02  0.31987448572E+02  0.00000000000E+00 0.  1.
</event>
<event>
 7    1  0.2812635E-010  0.4778723E+02  0.7816164E-02  0.1312668E+00
        -11   -1    0    0    0    0  0.00000000000E+00  0.00000000000E+00  0.45593999997E+02  0.45594000000E+02  0.51100000000E-03 0. -1.
         11   -1    0    0    0    0 -0.00000000000E+00 -0.00000000000E+00 -0.45593999997E+02  0.45594000000E+02  0.51100000000E-03 0.  1.
    9900012    2    1    2    0    0 -0.24283842979E+02  0.25549253848E+02 -0.25321090001E+02  0.47787228108E+02  0.19999804233E+02 0.  0.
         12    1    1    2    0    0  0.24283842979E+02 -0.25549253848E+02  0.25321090001E+02  0.43400771892E+02  0.00000000000E+00 0. -1.
         11    1    3    3    0    0 -0.16528765569E+02  0.45812288645E+01 -0.73632867066E+01  0.18665629926E+02  0.51100000000E-03 0. -1.
        -11    1    3    3    0    0 -0.77174869855E+01  0.17618966360E+02 -0.13303201904E+02  0.23387235025E+02  0.51100000000E-03 0.  1.
         12    1    3    3    0    0 -0.37590424279E-01  0.33490586235E+01 -0.46546013911E+01  0.57343631567E+01  0.00000000000E+00 0. -1.
</event>
<event>
 7    1  0.2812635E-010  0.4778727E+02  0.7816164E-02  0.1312668E+00
        -11   -1    0    0    0    0  0.00000000000E+00  0.00000000000E+00  0.45593999997E+02  0.45594000000E+02  0.51100000000E-03 0. -1.
         11   -1    0    0    0    0 -0.00000000000E+00 -0.00000000000E+00 -0.45593999997E+02  0.45594000000E+02  0.51100000000E-03 0.  1.
    9900012    2    1    2    0    0  0.89497488379E+01 -0.25235616482E+02 -0.34156831530E+02  0.47787268627E+02  0.19999988980E+02 0.  0.
         12    1    1    2    0    0 -0.89497488379E+01  0.25235616482E+02  0.34156831530E+02  0.43400731373E+02  0.00000000000E+00 0. -1.
         11    1    3    3    0    0  0.33262468268E+01 -0.64458969136E+00 -0.34932680541E+01  0.48664500184E+01  0.51100000000E-03 0. -1.
        -11    1    3    3    0    0 -0.15818716312E+01 -0.74690922011E+01 -0.20212676249E+02  0.21606525347E+02  0.51100000000E-03 0.  1.
        -12    1    3    3    0    0  0.72053736424E+01 -0.17121934590E+02 -0.10450887227E+02  0.21314293262E+02  0.00000000000E+00 0.  1.
</event>
<event>
 7    1  0.2812635E-010  0.4778728E+02  0.7816164E-02  0.1312668E+00
        -11   -1    0    0    0    0  0.00000000000E+00  0.00000000000E+00  0.45593999997E+02  0.45594000000E+02  0.51100000000E-03 0.  1.
         11   -1    0    0    0    0 -0.00000000000E+00 -0.00000000000E+00 -0.45593999997E+02  0.45594000000E+02  0.51100000000E-03 0. -1.
    9900012    2    1    2    0    0  0.38367710857E+02  0.17166815443E+02  0.10809348210E+02  0.47787276531E+02  0.20000025017E+02 0.  0.
         12    1    1    2    0    0 -0.38367710857E+02 -0.17166815443E+02 -0.10809348210E+02  0.43400723469E+02  0.00000000000E+00 0. -1.
         11    1    3    3    0    0 -0.98102750324E+00  0.27798963617E+01  0.10324276104E+01  0.31234829559E+01  0.51100000000E-03 0. -1.
        -11    1    3    3    0    0  0.27171229245E+02  0.42115555615E+01  0.40472749516E+01  0.27791965272E+02  0.51100000000E-03 0.  1.
        -12    1    3    3    0    0  0.12177509116E+02  0.10175363520E+02  0.57296456482E+01  0.16871828303E+02  0.00000000000E+00 0.  1.
</event>
<event>
 7    1 -0.2812635E-010  0.4778727E+02  0.7816164E-02  0.1312668E+00
        -11   -1    0    0    0    0  0.00000000000E+00  0.00000000000E+00  0.45593999997E+02  0.45594000000E+02  0.51100000000E-03 0.  1.
         11   -1    0    0    0    0 -0.00000000000E+00 -0.00000000000E+00 -0.45593999997E+02  0.45594000000E+02  0.51100000000E-03 0. -1.
    9900012    2    1    2    0    0 -0.19520599668E+02  0.12709643495E+02  0.36620134621E+02  0.47787272946E+02  0.20000008669E+02 0.  0.
         12    1    1    2    0    0  0.19520599668E+02 -0.12709643495E+02 -0.36620134621E+02  0.43400727054E+02  0.00000000000E+00 0. -1.
         11    1    3    3    0    0 -0.11127258359E+01  0.47264784777E+01  0.61323696647E+01  0.78220020168E+01  0.51100000000E-03 0. -1.
        -11    1    3    3    0    0 -0.16632174411E+02  0.60481790492E+01  0.12212910773E+02  0.21502671584E+02  0.51100000000E-03 0.  1.
        -12    1    3    3    0    0 -0.17756994209E+01  0.19349859681E+01  0.18274854184E+02  0.18462599345E+02  0.00000000000E+00 0.  1.
</event>
<event>
 7    1  0.2812635E-010  0.4778727E+02  0.7816164E-02  0.1312668E+00
        -11   -1    0    0    0    0  0.00000000000E+00  0.00000000000E+00  0.45593999997E+02  0.45594000000E+02  0.51100000000E-03 0.  1.
         11   -1    0    0    0    0 -0.00000000000E+00 -0.00000000000E+00 -0.45593999997E+02  0.45594000000E+02  0.51100000000E-03 0. -1.
    9900012    2    1    2    0    0  0.25798276066E+02  0.34657584231E+02  0.41139216873E+01  0.47787267929E+02  0.19999985796E+02 0.  0.
         12    1    1    2    0    0 -0.25798276066E+02 -0.34657584231E+02 -0.41139216873E+01  0.43400732071E+02  0.00000000000E+00 0. -1.
         11    1    3    3    0    0  0.12380587015E+02  0.41916810661E+01  0.41055105710E+01  0.13700523432E+02  0.51100000000E-03 0. -1.
        -11    1    3    3    0    0  0.80071009421E+01  0.25547926619E+02 -0.13443612189E+00  0.26773649235E+02  0.51100000000E-03 0.  1.
        -12    1    3    3    0    0  0.54105881080E+01  0.49179765457E+01  0.14284723820E+00  0.73130952621E+01  0.00000000000E+00 0.  1.
</event>
<event>
 7    1  0.2812635E-010  0.4778727E+02  0.7816164E-02  0.1312668E+00
        -11   -1    0    0    0    0  0.00000000000E+00  0.00000000000E+00  0.45593999997E+02  0.45594000000E+02  0.51100000000E-03 0.  1.
         11   -1    0    0    0    0 -0.00000000000E+00 -0.00000000000E+00 -0.45593999997E+02  0.45594000000E+02  0.51100000000E-03 0. -1.
    9900012    2    1    2    0    0 -0.31939004796E+02  0.12104444585E+02  0.26776963617E+02  0.47787269746E+02  0.19999994078E+02 0.  0.
         12    1    1    2    0    0  0.31939004796E+02 -0.12104444585E+02 -0.26776963617E+02  0.43400730254E+02  0.00000000000E+00 0. -1.
         11    1    3    3    0    0 -0.10852404472E+02  0.46539149929E+01  0.20855204419E+02  0.23966083519E+02  0.51100000000E-03 0. -1.
        -11    1    3    3    0    0 -0.11713107669E+02  0.69413989932E+01  0.25861442187E+01  0.13858861909E+02  0.51100000000E-03 0.  1.
         12    1    3    3    0    0 -0.93734926551E+01  0.50913059923E+00  0.33356149791E+01  0.99623243177E+01  0.00000000000E+00 0. -1.
</event>
<event>
 7    1  0.2812635E-010  0.4778728E+02  0.7816164E-02  0.1312668E+00
        -11   -1    0    0    0    0  0.00000000000E+00  0.00000000000E+00  0.45593999997E+02  0.45594000000E+02  0.51100000000E-03 0. -1.
         11   -1    0    0    0    0 -0.00000000000E+00 -0.00000000000E+00 -0.45593999997E+02  0.45594000000E+02  0.51100000000E-03 0.  1.
    9900012    2    1    2    0    0 -0.21498764428E+02  0.20330944290E+02 -0.31750248518E+02  0.47787280552E+02  0.20000043350E+02 0.  0.
         12    1    1    2    0    0  0.21498764428E+02 -0.20330944290E+02  0.31750248518E+02  0.43400719448E+02  0.00000000000E+00 0. -1.
         11    1    3    3    0    0 -0.16116688216E+02  0.89387720187E+01 -0.71505339539E+01  0.19768141550E+02  0.51100000000E-03 0. -1.
        -11    1    3    3    0    0 -0.47902999090E+01  0.11729959032E+02 -0.23845405255E+02  0.27002634392E+02  0.51100000000E-03 0.  1.
        -12    1    3    3    0    0 -0.59177630278E+00 -0.33778676054E+00 -0.75430930947E+00  0.10165046102E+01  0.00000000000E+00 0.  1.
</event>
<event>
 7    1  0.2812635E-010  0.4778727E+02  0.7816164E-02  0.1312668E+00
        -11   -1    0    0    0    0  0.00000000000E+00  0.00000000000E+00  0.45593999997E+02  0.45594000000E+02  0.51100000000E-03 0.  1.
         11   -1    0    0    0    0 -0.00000000000E+00 -0.00000000000E+00 -0.45593999997E+02  0.45594000000E+02  0.51100000000E-03 0. -1.
    9900012    2    1    2    0    0 -0.27280190042E+02  0.17623441764E+02  0.28789384991E+02  0.47787272397E+02  0.20000006165E+02 0.  0.
         12    1    1    2    0    0  0.27280190042E+02 -0.17623441764E+02 -0.28789384991E+02  0.43400727603E+02  0.00000000000E+00 0. -1.
         11    1    3    3    0    0 -0.18002542581E+02  0.78629160728E+01  0.52930186120E+01  0.20345344304E+02  0.51100000000E-03 0. -1.
        -11    1    3    3    0    0 -0.59617500559E+01  0.86190128565E+01  0.19398099250E+02  0.22048040755E+02  0.51100000000E-03 0.  1.
        -12    1    3    3    0    0 -0.33158974051E+01  0.11415128348E+01  0.40982671287E+01  0.53938873377E+01  0.00000000000E+00 0.  1.
</event>
<event>
 7    1  0.2812635E-010  0.4778727E+02  0.7816164E-02  0.1312668E+00
        -11   -1    0    0    0    0  0.00000000000E+00  0.00000000000E+00  0.45593999997E+02  0.45594000000E+02  0.51100000000E-03 0.  1.
         11   -1    0    0    0    0 -0.00000000000E+00 -0.00000000000E+00 -0.45593999997E+02  0.45594000000E+02  0.51100000000E-03 0. -1.
    9900012    2    1    2    0    0  0.31618936922E+02  0.20140779255E+02  0.21868127638E+02  0.47787272271E+02  0.20000005591E+02 0.  0.
         12    1    1    2    0    0 -0.31618936922E+02 -0.20140779255E+02 -0.21868127638E+02  0.43400727729E+02  0.00000000000E+00 0. -1.
         11    1    3    3    0    0 -0.21067779386E+01  0.13613573191E+01  0.72070962801E+00  0.26098332633E+01  0.51100000000E-03 0. -1.
        -11    1    3    3    0    0  0.25517058853E+02  0.16841227213E+02  0.12303426063E+02  0.32956357804E+02  0.51100000000E-03 0.  1.
        -12    1    3    3    0    0  0.82086560076E+01  0.19381947224E+01  0.88439919467E+01  0.12221081204E+02  0.00000000000E+00 0.  1.
</event>
<event>
 7    1  0.2812635E-010  0.4778727E+02  0.7816164E-02  0.1312668E+00
        -11   -1    0    0    0    0  0.00000000000E+00  0.00000000000E+00  0.45593999997E+02  0.45594000000E+02  0.51100000000E-03 0.  1.
         11   -1    0    0    0    0 -0.00000000000E+00 -0.00000000000E+00 -0.45593999997E+02  0.45594000000E+02  0.51100000000E-03 0. -1.
    9900012    2    1    2    0    0 -0.18206906283E+01  0.42985769106E+02 -0.57036760863E+01  0.47787272116E+02  0.20000004886E+02 0.  0.
         12    1    1    2    0    0  0.18206906283E+01 -0.42985769106E+02  0.57036760863E+01  0.43400727884E+02  0.00000000000E+00 0. -1.
         11    1    3    3    0    0  0.43758853301E+01  0.18179683362E+02 -0.70629061501E+01  0.19988344181E+02  0.51100000000E-03 0. -1.
        -11    1    3    3    0    0 -0.71170438554E+01  0.11959772132E+02 -0.29337188249E+01  0.14223050625E+02  0.51100000000E-03 0.  1.
         12    1    3    3    0    0  0.92046789704E+00  0.12846313612E+02  0.42929488887E+01  0.13575877310E+02  0.00000000000E+00 0. -1.
</event>
<event>
 7    1  0.2812635E-010  0.4778727E+02  0.7816164E-02  0.1312668E+00
        -11   -1    0    0    0    0  0.00000000000E+00  0.00000000000E+00  0.45593999997E+02  0.45594000000E+02  0.51100000000E-03 0.  1.
         11   -1    0    0    0    0 -0.00000000000E+00 -0.00000000000E+00 -0.45593999997E+02  0.45594000000E+02  0.51100000000E-03 0. -1.
    9900012    2    1    2    0    0 -0.37252685339E+02 -0.68964721080E+01  0.21173077321E+02  0.47787273097E+02  0.20000009357E+02 0.  0.
         12    1    1    2    0    0  0.37252685339E+02  0.68964721080E+01 -0.21173077321E+02  0.43400726903E+02  0.00000000000E+00 0. -1.
         11    1    3    3    0    0 -0.24525321044E+02 -0.19371907386E+01  0.10377140080E+02  0.26700732514E+02  0.51100000000E-03 0. -1.
        -11    1    3    3    0    0  0.98419398015E+00  0.15691517159E+01  0.40812269980E+01  0.44818845332E+01  0.51100000000E-03 0.  1.
        -12    1    3    3    0    0 -0.13711558275E+02 -0.65284330853E+01  0.67147102431E+01  0.16604656050E+02  0.00000000000E+00 0.  1.
</event>
<event>
 7    1  0.2812635E-010  0.4778727E+02  0.7816164E-02  0.1312668E+00
        -11   -1    0    0    0    0  0.00000000000E+00  0.00000000000E+00  0.45593999997E+02  0.45594000000E+02  0.51100000000E-03 0. -1.
         11   -1    0    0    0    0 -0.00000000000E+00 -0.00000000000E+00 -0.45593999997E+02  0.45594000000E+02  0.51100000000E-03 0.  1.
    9900012    2    1    2    0    0  0.10894292942E+02  0.41844774368E+02  0.37352962104E+01  0.47787271914E+02  0.20000003964E+02 0.  0.
         12    1    1    2    0    0 -0.10894292942E+02 -0.41844774368E+02 -0.37352962104E+01  0.43400728086E+02  0.00000000000E+00 0. -1.
         11    1    3    3    0    0  0.19323761858E+01  0.59576751223E+01  0.27325965042E+01  0.68333779716E+01  0.51100000000E-03 0. -1.
        -11    1    3    3    0    0  0.40956817035E+01  0.12684970098E+02  0.88289414127E+01  0.15988535947E+02  0.51100000000E-03 0.  1.
        -12    1    3    3    0    0  0.48662350524E+01  0.23202129148E+02 -0.78262417065E+01  0.24965357995E+02  0.00000000000E+00 0.  1.
</event>
<event>
 7    1  0.2812635E-010  0.4778727E+02  0.7816164E-02  0.1312668E+00
        -11   -1    0    0    0    0  0.00000000000E+00  0.00000000000E+00  0.45593999997E+02  0.45594000000E+02  0.51100000000E-03 0.  1.
         11   -1    0    0    0    0 -0.00000000000E+00 -0.00000000000E+00 -0.45593999997E+02  0.45594000000E+02  0.51100000000E-03 0. -1.
    9900012    2    1    2    0    0 -0.36648151301E+01 -0.81224152535E+01  0.42476098055E+02  0.47787269528E+02  0.19999993086E+02 0.  0.
         12    1    1    2    0    0  0.36648151301E+01  0.81224152535E+01 -0.42476098055E+02  0.43400730472E+02  0.00000000000E+00 0. -1.
         11    1    3    3    0    0 -0.18549440787E+01  0.83604586156E+00 -0.72677373433E+00  0.21605532948E+01  0.51100000000E-03 0. -1.
        -11    1    3    3    0    0  0.41930875010E+00 -0.11357176633E+02  0.32191273082E+02  0.34138531658E+02  0.51100000000E-03 0.  1.
        -12    1    3    3    0    0 -0.22291798015E+01  0.23987155179E+01  0.11011598708E+02  0.11488184575E+02  0.00000000000E+00 0.  1.
</event>
<event>
 7    1  0.2812635E-010  0.4778727E+02  0.7816164E-02  0.1312668E+00
        -11   -1    0    0    0    0  0.00000000000E+00  0.00000000000E+00  0.45593999997E+02  0.45594000000E+02  0.51100000000E-03 0.  1.
         11   -1    0    0    0    0 -0.00000000000E+00 -0.00000000000E+00 -0.45593999997E+02  0.45594000000E+02  0.51100000000E-03 0. -1.
    9900012    2    1    2    0    0  0.34017727581E+02 -0.24689973230E+02  0.10808452004E+02  0.47787271866E+02  0.20000003745E+02 0.  0.
         12    1    1    2    0    0 -0.34017727581E+02  0.24689973230E+02 -0.10808452004E+02  0.43400728134E+02  0.00000000000E+00 0. -1.
         11    1    3    3    0    0  0.24636204697E+01  0.23915642820E+01 -0.53515449245E-01  0.34339291923E+01  0.51100000000E-03 0. -1.
        -11    1    3    3    0    0  0.21582385888E+02 -0.22112325742E+02  0.12014253377E+02  0.33152626061E+02  0.51100000000E-03 0.  1.
         12    1    3    3    0    0  0.99717212237E+01 -0.49692117701E+01 -0.11522859233E+01  0.11200716612E+02  0.00000000000E+00 0. -1.
</event>
<event>
 7    1  0.2812635E-010  0.4778725E+02  0.7816164E-02  0.1312668E+00
        -11   -1    0    0    0    0  0.00000000000E+00  0.00000000000E+00  0.45593999997E+02  0.45594000000E+02  0.51100000000E-03 0.  1.
         11   -1    0    0    0    0 -0.00000000000E+00 -0.00000000000E+00 -0.45593999997E+02  0.45594000000E+02  0.51100000000E-03 0. -1.
    9900012    2    1    2    0    0 -0.41489633532E+02  0.53979052177E+01  0.11536794235E+02  0.47787254700E+02  0.19999925478E+02 0.  0.
         12    1    1    2    0    0  0.41489633532E+02 -0.53979052177E+01 -0.11536794235E+02  0.43400745300E+02  0.00000000000E+00 0. -1.
         11    1    3    3    0    0 -0.16323278949E+02  0.70693912756E+01  0.11062376585E+02  0.20947599018E+02  0.51100000000E-03 0.  1.
        -11    1    3    3    0    0 -0.22729349482E+02  0.34744550723E+00 -0.20037615069E+01  0.22820146947E+02  0.51100000000E-03 0. -1.
        -12    1    3    3    0    0 -0.24370051014E+01 -0.20189315652E+01  0.24781791579E+01  0.40195087346E+01  0.00000000000E+00 0.  1.
</event>
<event>
 7    1  0.2812635E-010  0.4778728E+02  0.7816164E-02  0.1312668E+00
        -11   -1    0    0    0    0  0.00000000000E+00  0.00000000000E+00  0.45593999997E+02  0.45594000000E+02  0.51100000000E-03 0. -1.
         11   -1    0    0    0    0 -0.00000000000E+00 -0.00000000000E+00 -0.45593999997E+02  0.45594000000E+02  0.51100000000E-03 0.  1.
    9900012    2    1    2    0    0 -0.22375070126E+02 -0.36057246713E+02 -0.91023769075E+01  0.47787284925E+02  0.20000063287E+02 0.  0.
         12    1    1    2    0    0  0.22375070126E+02  0.36057246713E+02  0.91023769075E+01  0.43400715075E+02  0.00000000000E+00 0. -1.
         11    1    3    3    0    0 -0.13261227551E+02 -0.27115606307E+02 -0.91693163971E+01  0.31546673755E+02  0.51100000000E-03 0. -1.
        -11    1    3    3    0    0 -0.80901299152E+01 -0.33086299100E+01  0.36658234787E+01  0.94781588911E+01  0.51100000000E-03 0.  1.
         12    1    3    3    0    0 -0.10237126600E+01 -0.56330104960E+01 -0.35988839891E+01  0.67624522790E+01  0.00000000000E+00 0. -1.
</event>
<event>
 7    1  0.2812635E-010  0.4778727E+02  0.7816164E-02  0.1312668E+00
        -11   -1    0    0    0    0  0.00000000000E+00  0.00000000000E+00  0.45593999997E+02  0.45594000000E+02  0.51100000000E-03 0. -1.
         11   -1    0    0    0    0 -0.00000000000E+00 -0.00000000000E+00 -0.45593999997E+02  0.45594000000E+02  0.51100000000E-03 0.  1.
    9900012    2    1    2    0    0  0.30639489328E+01  0.39005345397E+02 -0.18783469177E+02  0.47787268821E+02  0.19999989861E+02 0.  0.
         12    1    1    2    0    0 -0.30639489328E+01 -0.39005345397E+02  0.18783469177E+02  0.43400731179E+02  0.00000000000E+00 0. -1.
         11    1    3    3    0    0  0.48462928920E+01  0.60728843627E+01 -0.96729163760E+01  0.12406925113E+02  0.51100000000E-03 0. -1.
        -11    1    3    3    0    0  0.14204514812E+01  0.12180920724E+02 -0.73778794445E+01  0.14311730065E+02  0.51100000000E-03 0.  1.
         12    1    3    3    0    0 -0.32027954405E+01  0.20751540310E+02 -0.17326733565E+01  0.21068613642E+02  0.00000000000E+00 0. -1.
</event>
<event>
 7    1  0.2812635E-010  0.4778728E+02  0.7816164E-02  0.1312668E+00
        -11   -1    0    0    0    0  0.00000000000E+00  0.00000000000E+00  0.45593999997E+02  0.45594000000E+02  0.51100000000E-03 0. -1.
         11   -1    0    0    0    0 -0.00000000000E+00 -0.00000000000E+00 -0.45593999997E+02  0.45594000000E+02  0.51100000000E-03 0.  1.
    9900012    2    1    2    0    0 -0.12028455871E+02 -0.78971231501E+01 -0.40945995074E+02  0.47787276304E+02  0.20000023981E+02 0.  0.
         12    1    1    2    0    0  0.12028455871E+02  0.78971231501E+01  0.40945995074E+02  0.43400723696E+02  0.00000000000E+00 0. -1.
         11    1    3    3    0    0 -0.84516556389E+01 -0.13215293979E+02 -0.20465396575E+02  0.25785789405E+02  0.51100000000E-03 0. -1.
        -11    1    3    3    0    0  0.90956448964E+00 -0.67695645460E-01 -0.37997431801E+01  0.39076769003E+01  0.51100000000E-03 0.  1.
         12    1    3    3    0    0 -0.44863647215E+01  0.53858664748E+01 -0.16680855319E+02  0.18093809999E+02  0.00000000000E+00 0. -1.
</event>
<event>
 7    1  0.2812635E-010  0.4778728E+02  0.7816164E-02  0.1312668E+00
        -11   -1    0    0    0    0  0.00000000000E+00  0.00000000000E+00  0.45593999997E+02  0.45594000000E+02  0.51100000000E-03 0.  1.
         11   -1    0    0    0    0 -0.00000000000E+00 -0.00000000000E+00 -0.45593999997E+02  0.45594000000E+02  0.51100000000E-03 0. -1.
    9900012    2    1    2    0    0 -0.34112219016E+02  0.22054331620E+02  0.15283503935E+02  0.47787279707E+02  0.20000039498E+02 0.  0.
         12    1    1    2    0    0  0.34112219016E+02 -0.22054331620E+02 -0.15283503935E+02  0.43400720293E+02  0.00000000000E+00 0. -1.
         11    1    3    3    0    0 -0.80115254772E+01  0.11257135618E+02  0.77128831707E+01  0.15823912597E+02  0.51100000000E-03 0. -1.
        -11    1    3    3    0    0 -0.11992027928E+02 -0.18142847049E+01  0.27920724357E+01  0.12445723425E+02  0.51100000000E-03 0.  1.
        -12    1    3    3    0    0 -0.14108665610E+02  0.12611480706E+02  0.47785483289E+01  0.19517643686E+02  0.00000000000E+00 0.  1.
</event>
<event>
 7    1  0.2812635E-010  0.4778727E+02  0.7816164E-02  0.1312668E+00
        -11   -1    0    0    0    0  0.00000000000E+00  0.00000000000E+00  0.45593999997E+02  0.45594000000E+02  0.51100000000E-03 0.  1.
         11   -1    0    0    0    0 -0.00000000000E+00 -0.00000000000E+00 -0.45593999997E+02  0.45594000000E+02  0.51100000000E-03 0. -1.
    9900012    2    1    2    0    0 -0.42545895862E+02  0.56807672004E+01  0.64186323552E+01  0.47787271758E+02  0.20000003252E+02 0.  0.
         12    1    1    2    0    0  0.42545895862E+02 -0.56807672004E+01 -0.64186323552E+01  0.43400728242E+02  0.00000000000E+00 0. -1.
         11    1    3    3    0    0 -0.24836209482E+02  0.37751548445E+01 -0.65501293624E+00  0.25130024626E+02  0.51100000000E-03 0. -1.
        -11    1    3    3    0    0 -0.14815213603E+02 -0.31891348875E+01  0.72402790268E+01  0.16795320065E+02  0.51100000000E-03 0.  1.
        -12    1    3    3    0    0 -0.28944727773E+01  0.50947472434E+01 -0.16663373533E+00  0.58619270666E+01  0.00000000000E+00 0.  1.
</event>
<event>
 7    1  0.2812635E-010  0.4778727E+02  0.7816164E-02  0.1312668E+00
        -11   -1    0    0    0    0  0.00000000000E+00  0.00000000000E+00  0.45593999997E+02  0.45594000000E+02  0.51100000000E-03 0.  1.
         11   -1    0    0    0    0 -0.00000000000E+00 -0.00000000000E+00 -0.45593999997E+02  0.45594000000E+02  0.51100000000E-03 0. -1.
    9900012    2    1    2    0    0 -0.18587952742E+02 -0.22070889262E+01  0.39156613482E+02  0.47787267194E+02  0.19999982446E+02 0.  0.
         12    1    1    2    0    0  0.18587952742E+02  0.22070889262E+01 -0.39156613482E+02  0.43400732806E+02  0.00000000000E+00 0. -1.
         11    1    3    3    0    0  0.35201022086E+00 -0.23296246994E+01  0.30381608580E+01  0.38446695691E+01  0.51100000000E-03 0.  1.
        -11    1    3    3    0    0 -0.13037762737E+02 -0.60726363618E+01  0.13366187477E+02  0.19634539401E+02  0.51100000000E-03 0. -1.
        -12    1    3    3    0    0 -0.59022002262E+01  0.61951721351E+01  0.22752265147E+02  0.24308058224E+02  0.00000000000E+00 0.  1.
</event>
<event>
 7    1  0.2812635E-010  0.4778727E+02  0.7816164E-02  0.1312668E+00
        -11   -1    0    0    0    0  0.00000000000E+00  0.00000000000E+00  0.45593999997E+02  0.45594000000E+02  0.51100000000E-03 0. -1.
         11   -1    0    0    0    0 -0.00000000000E+00 -0.00000000000E+00 -0.45593999997E+02  0.45594000000E+02  0.51100000000E-03 0.  1.
    9900012    2    1    2    0    0  0.30050123846E+02  0.66846349771E+01 -0.30592951228E+02  0.47787274744E+02  0.20000016866E+02 0.  0.
         12    1    1    2    0    0 -0.30050123846E+02 -0.66846349771E+01  0.30592951228E+02  0.43400725256E+02  0.00000000000E+00 0. -1.
         11    1    3    3    0    0  0.20266678449E+02  0.41027287955E+01 -0.10321257940E+02  0.23110582093E+02  0.51100000000E-03 0. -1.
        -11    1    3    3    0    0  0.70910255585E+01  0.13693455358E+01 -0.20480400760E+02  0.21716458418E+02  0.51100000000E-03 0.  1.
         12    1    3    3    0    0  0.26924198380E+01  0.12125606457E+01  0.20870747199E+00  0.29602342327E+01  0.00000000000E+00 0. -1.
</event>
<event>
 7    1  0.2812635E-010  0.4778727E+02  0.7816164E-02  0.1312668E+00
        -11   -1    0    0    0    0  0.00000000000E+00  0.00000000000E+00  0.45593999997E+02  0.45594000000E+02  0.51100000000E-03 0. -1.
         11   -1    0    0    0    0 -0.00000000000E+00 -0.00000000000E+00 -0.45593999997E+02  0.45594000000E+02  0.51100000000E-03 0.  1.
    9900012    2    1    2    0    0 -0.68208080497E+01  0.38987175677E+02 -0.17807303353E+02  0.47787270254E+02  0.19999996397E+02 0.  0.
         12    1    1    2    0    0  0.68208080497E+01 -0.38987175677E+02  0.17807303353E+02  0.43400729746E+02  0.00000000000E+00 0. -1.
         11    1    3    3    0    0  0.12591861362E+01 -0.97386126204E+00  0.14161934338E+01  0.21306242246E+01  0.51100000000E-03 0. -1.
        -11    1    3    3    0    0 -0.62706815848E+01  0.27107821862E+02 -0.16647145454E+02  0.32423493113E+02  0.51100000000E-03 0.  1.
        -12    1    3    3    0    0 -0.18093126011E+01  0.12853215077E+02 -0.25763513330E+01  0.13233152916E+02  0.00000000000E+00 0.  1.
</event>
<event>
 7    1  0.2812635E-010  0.4778727E+02  0.7816164E-02  0.1312668E+00
        -11   -1    0    0    0    0  0.00000000000E+00  0.00000000000E+00  0.45593999997E+02  0.45594000000E+02  0.51100000000E-03 0.  1.
         11   -1    0    0    0    0 -0.00000000000E+00 -0.00000000000E+00 -0.45593999997E+02  0.45594000000E+02  0.51100000000E-03 0. -1.
    9900012    2    1    2    0    0  0.17287374634E+01 -0.23254268924E+02  0.36604285621E+02  0.47787270949E+02  0.19999999563E+02 0.  0.
         12    1    1    2    0    0 -0.17287374634E+01  0.23254268924E+02 -0.36604285621E+02  0.43400729051E+02  0.00000000000E+00 0. -1.
         11    1    3    3    0    0  0.21508385890E+01 -0.22301447355E+01 -0.32003187249E+00  0.31148150567E+01  0.51100000000E-03 0. -1.
        -11    1    3    3    0    0  0.39294803280E+01 -0.17350296812E+02  0.33752591569E+02  0.38153781634E+02  0.51100000000E-03 0.  1.
        -12    1    3    3    0    0 -0.43515814536E+01 -0.36738273764E+01  0.31717259245E+01  0.65186742578E+01  0.00000000000E+00 0.  1.
</event>
<event>
 7    1  0.2812635E-010  0.4778727E+02  0.7816164E-02  0.1312668E+00
        -11   -1    0    0    0    0  0.00000000000E+00  0.00000000000E+00  0.45593999997E+02  0.45594000000E+02  0.51100000000E-03 0.  1.
         11   -1    0    0    0    0 -0.00000000000E+00 -0.00000000000E+00 -0.45593999997E+02  0.45594000000E+02  0.51100000000E-03 0. -1.
    9900012    2    1    2    0    0  0.26984486255E+02  0.27284471518E+02  0.20273588022E+02  0.47787271253E+02  0.20000000950E+02 0.  0.
         12    1    1    2    0    0 -0.26984486255E+02 -0.27284471518E+02 -0.20273588022E+02  0.43400728747E+02  0.00000000000E+00 0. -1.
         11    1    3    3    0    0  0.74998884430E+01  0.27222923796E+01  0.42147086974E+01  0.90234678546E+01  0.51100000000E-03 0. -1.
        -11    1    3    3    0    0  0.19284138155E+02  0.21948182109E+02  0.18978851248E+02  0.34839596398E+02  0.51100000000E-03 0.  1.
        -12    1    3    3    0    0  0.20045965721E+00  0.26139970298E+01 -0.29199719230E+01  0.39242069998E+01  0.00000000000E+00 0.  1.
</event>
<event>
 7    1  0.2812635E-010  0.4778727E+02  0.7816164E-02  0.1312668E+00
        -11   -1    0    0    0    0  0.00000000000E+00  0.00000000000E+00  0.45593999997E+02  0.45594000000E+02  0.51100000000E-03 0. -1.
         11   -1    0    0    0    0 -0.00000000000E+00 -0.00000000000E+00 -0.45593999997E+02  0.45594000000E+02  0.51100000000E-03 0.  1.
    9900012    2    1    2    0    0  0.33971651415E+02 -0.93388140730E+01 -0.25344361525E+02  0.47787271789E+02  0.20000003394E+02 0.  0.
         12    1    1    2    0    0 -0.33971651415E+02  0.93388140730E+01  0.25344361525E+02  0.43400728211E+02  0.00000000000E+00 0. -1.
         11    1    3    3    0    0  0.14731710730E+02 -0.84061660230E+01 -0.37991787360E+01  0.17381619245E+02  0.51100000000E-03 0. -1.
        -11    1    3    3    0    0  0.11874923866E+02 -0.39923154039E+01 -0.85819797304E+01  0.15185610803E+02  0.51100000000E-03 0.  1.
         12    1    3    3    0    0  0.73650168186E+01  0.30596673539E+01 -0.12963203058E+02  0.15220041741E+02  0.00000000000E+00 0. -1.
</event>
<event>
 7    1  0.2812635E-010  0.4778727E+02  0.7816164E-02  0.1312668E+00
        -11   -1    0    0    0    0  0.00000000000E+00  0.00000000000E+00  0.45593999997E+02  0.45594000000E+02  0.51100000000E-03 0.  1.
         11   -1    0    0    0    0 -0.00000000000E+00 -0.00000000000E+00 -0.45593999997E+02  0.45594000000E+02  0.51100000000E-03 0. -1.
    9900012    2    1    2    0    0  0.26827043287E+02 -0.24232215843E+02  0.24015265859E+02  0.47787268088E+02  0.19999986521E+02 0.  0.
         12    1    1    2    0    0 -0.26827043287E+02  0.24232215843E+02 -0.24015265859E+02  0.43400731912E+02  0.00000000000E+00 0. -1.
         11    1    3    3    0    0  0.24311556257E+02 -0.16243871597E+02  0.23986262991E+02  0.37818724788E+02  0.51100000000E-03 0. -1.
        -11    1    3    3    0    0  0.20145859670E+01 -0.28716703901E+01  0.24571660501E+01  0.42828393277E+01  0.51100000000E-03 0.  1.
         12    1    3    3    0    0  0.50090106344E+00 -0.51166738556E+01 -0.24281631816E+01  0.56857039719E+01  0.00000000000E+00 0. -1.
</event>
<event>
 7    1  0.2812635E-010  0.4778727E+02  0.7816164E-02  0.1312668E+00
        -11   -1    0    0    0    0  0.00000000000E+00  0.00000000000E+00  0.45593999997E+02  0.45594000000E+02  0.51100000000E-03 0.  1.
         11   -1    0    0    0    0 -0.00000000000E+00 -0.00000000000E+00 -0.45593999997E+02  0.45594000000E+02  0.51100000000E-03 0. -1.
    9900012    2    1    2    0    0  0.10904249892E+02  0.42001485702E+02  0.77193374446E+00  0.47787270184E+02  0.19999996075E+02 0.  0.
         12    1    1    2    0    0 -0.10904249892E+02 -0.42001485702E+02 -0.77193374446E+00  0.43400729816E+02  0.00000000000E+00 0. -1.
         11    1    3    3    0    0  0.10939124582E+02  0.12991169142E+02  0.45315605682E+01  0.17577541459E+02  0.51100000000E-03 0. -1.
        -11    1    3    3    0    0 -0.36411757638E+01  0.15712506627E+02 -0.10143438970E+01  0.16160752435E+02  0.51100000000E-03 0.  1.
         12    1    3    3    0    0  0.36063010741E+01  0.13297809933E+02 -0.27452829268E+01  0.14048976290E+02  0.00000000000E+00 0. -1.
</event>
<event>
 7    1  0.2812635E-010  0.4778727E+02  0.7816164E-02  0.1312668E+00
        -11   -1    0    0    0    0  0.00000000000E+00  0.00000000000E+00  0.45593999997E+02  0.45594000000E+02  0.51100000000E-03 0.  1.
         11   -1    0    0    0    0 -0.00000000000E+00 -0.00000000000E+00 -0.45593999997E+02  0.45594000000E+02  0.51100000000E-03 0. -1.
    9900012    2    1    2    0    0  0.26501028974E+02 -0.19358089124E+02  0.28400410186E+02  0.47787269016E+02  0.19999990752E+02 0.  0.
         12    1    1    2    0    0 -0.26501028974E+02  0.19358089124E+02 -0.28400410186E+02  0.43400730984E+02  0.00000000000E+00 0. -1.
         11    1    3    3    0    0  0.81755290665E+01 -0.26521475899E+01  0.53225416272E+01  0.10109530750E+02  0.51100000000E-03 0. -1.
        -11    1    3    3    0    0  0.77441493974E+01  0.16464997302E+01  0.10103456428E+02  0.12835990157E+02  0.51100000000E-03 0.  1.
        -12    1    3    3    0    0  0.10581350510E+02 -0.18352441264E+02  0.12974412131E+02  0.24841748109E+02  0.00000000000E+00 0.  1.
</event>
<event>
 7    1  0.2812635E-010  0.4778727E+02  0.7816164E-02  0.1312668E+00
        -11   -1    0    0    0    0  0.00000000000E+00  0.00000000000E+00  0.45593999997E+02  0.45594000000E+02  0.51100000000E-03 0. -1.
         11   -1    0    0    0    0 -0.00000000000E+00 -0.00000000000E+00 -0.45593999997E+02  0.45594000000E+02  0.51100000000E-03 0.  1.
    9900012    2    1    2    0    0 -0.25874146100E+01 -0.19475520071E+02  0.38699256648E+02  0.47787273491E+02  0.20000011157E+02 0.  0.
         12    1    1    2    0    0  0.25874146100E+01  0.19475520071E+02 -0.38699256648E+02  0.43400726509E+02  0.00000000000E+00 0. -1.
         11    1    3    3    0    0  0.29846233043E+00 -0.15506391267E+02  0.12923231521E+02  0.20187797381E+02  0.51100000000E-03 0. -1.
        -11    1    3    3    0    0  0.14285741583E+01 -0.47202426624E+01  0.90151026812E+01  0.10275874247E+02  0.51100000000E-03 0.  1.
         12    1    3    3    0    0 -0.43144510988E+01  0.75111385862E+00  0.16760922446E+02  0.17323601864E+02  0.00000000000E+00 0. -1.
</event>
<event>
 7    1  0.2812635E-010  0.4778727E+02  0.7816164E-02  0.1312668E+00
        -11   -1    0    0    0    0  0.00000000000E+00  0.00000000000E+00  0.45593999997E+02  0.45594000000E+02  0.51100000000E-03 0.  1.
         11   -1    0    0    0    0 -0.00000000000E+00 -0.00000000000E+00 -0.45593999997E+02  0.45594000000E+02  0.51100000000E-03 0. -1.
    9900012    2    1    2    0    0 -0.34915546370E+02  0.20394601063E+02  0.15766676356E+02  0.47787271732E+02  0.20000003136E+02 0.  0.
         12    1    1    2    0    0  0.34915546370E+02 -0.20394601063E+02 -0.15766676356E+02  0.43400728268E+02  0.00000000000E+00 0. -1.
         11    1    3    3    0    0 -0.39247763411E+00  0.78034518665E+01  0.31917102972E+01  0.84400778793E+01  0.51100000000E-03 0. -1.
        -11    1    3    3    0    0 -0.30085957642E+02  0.88822824852E+01  0.93892493286E+01  0.32744736869E+02  0.51100000000E-03 0.  1.
        -12    1    3    3    0    0 -0.44371110936E+01  0.37088667115E+01  0.31857167300E+01  0.66024569839E+01  0.00000000000E+00 0.  1.
</event>
<event>
 7    1  0.2812635E-010  0.4778727E+02  0.7816164E-02  0.1312668E+00
        -11   -1    0    0    0    0  0.00000000000E+00  0.00000000000E+00  0.45593999997E+02  0.45594000000E+02  0.51100000000E-03 0.  1.
         11   -1    0    0    0    0 -0.00000000000E+00 -0.00000000000E+00 -0.45593999997E+02  0.45594000000E+02  0.51100000000E-03 0. -1.
    9900012    2    1    2    0    0 -0.23224422364E+02  0.45800417370E+01  0.36376812053E+02  0.47787273835E+02  0.20000012726E+02 0.  0.
         12    1    1    2    0    0  0.23224422364E+02 -0.45800417370E+01 -0.36376812053E+02  0.43400726165E+02  0.00000000000E+00 0. -1.
         11    1    3    3    0    0 -0.15602940267E+02  0.37015711081E+01  0.30556276289E+02  0.34508540893E+02  0.51100000000E-03 0.  1.
        -11    1    3    3    0    0 -0.68299072134E+01  0.38713979571E+01  0.15471742331E+01  0.80018187342E+01  0.51100000000E-03 0. -1.
         12    1    3    3    0    0 -0.79157488375E+00 -0.29929273282E+01  0.42733615308E+01  0.52769142082E+01  0.00000000000E+00 0. -1.
</event>
<event>
 7    1  0.2812635E-010  0.4778727E+02  0.7816164E-02  0.1312668E+00
        -11   -1    0    0    0    0  0.00000000000E+00  0.00000000000E+00  0.45593999997E+02  0.45594000000E+02  0.51100000000E-03 0. -1.
         11   -1    0    0    0    0 -0.00000000000E+00 -0.00000000000E+00 -0.45593999997E+02  0.45594000000E+02  0.51100000000E-03 0.  1.
    9900012    2    1    2    0    0 -0.28424222866E+02  0.22369200580E+02  0.23985532829E+02  0.47787269992E+02  0.19999995201E+02 0.  0.
         12    1    1    2    0    0  0.28424222866E+02 -0.22369200580E+02 -0.23985532829E+02  0.43400730008E+02  0.00000000000E+00 0. -1.
         11    1    3    3    0    0 -0.89034321571E+01  0.12416577104E+02  0.11524031437E+02  0.19137549268E+02  0.51100000000E-03 0. -1.
        -11    1    3    3    0    0 -0.20382034994E+02  0.72188475351E+01  0.74382688461E+01  0.22866284217E+02  0.51100000000E-03 0.  1.
        -12    1    3    3    0    0  0.86124428462E+00  0.27337759408E+01  0.50232325462E+01  0.57834365065E+01  0.00000000000E+00 0.  1.
</event>
<event>
 7    1  0.2812635E-010  0.4778727E+02  0.7816164E-02  0.1312668E+00
        -11   -1    0    0    0    0  0.00000000000E+00  0.00000000000E+00  0.45593999997E+02  0.45594000000E+02  0.51100000000E-03 0.  1.
         11   -1    0    0    0    0 -0.00000000000E+00 -0.00000000000E+00 -0.45593999997E+02  0.45594000000E+02  0.51100000000E-03 0. -1.
    9900012    2    1    2    0    0  0.28931154485E+02 -0.26864198173E+02  0.18025717133E+02  0.47787270496E+02  0.19999997501E+02 0.  0.
         12    1    1    2    0    0 -0.28931154485E+02  0.26864198173E+02 -0.18025717133E+02  0.43400729504E+02  0.00000000000E+00 0. -1.
         11    1    3    3    0    0  0.16605895994E+02 -0.20038698809E+02  0.75331353379E+01  0.27093419127E+02  0.51100000000E-03 0. -1.
        -11    1    3    3    0    0  0.95237754115E+00  0.20875784038E+01  0.44996811848E+01  0.50509541276E+01  0.51100000000E-03 0.  1.
        -12    1    3    3    0    0  0.11372880950E+02 -0.89130777683E+01  0.59929006104E+01  0.15642897242E+02  0.00000000000E+00 0.  1.
</event>
<event>
 7    1  0.2812635E-010  0.4778727E+02  0.7816164E-02  0.1312668E+00
        -11   -1    0    0    0    0  0.00000000000E+00  0.00000000000E+00  0.45593999997E+02  0.45594000000E+02  0.51100000000E-03 0.  1.
         11   -1    0    0    0    0 -0.00000000000E+00 -0.00000000000E+00 -0.45593999997E+02  0.45594000000E+02  0.51100000000E-03 0. -1.
    9900012    2    1    2    0    0  0.38146205970E+01 -0.43159244000E+02 -0.25202513261E+01  0.47787270286E+02  0.19999996543E+02 0.  0.
         12    1    1    2    0    0 -0.38146205970E+01  0.43159244000E+02  0.25202513261E+01  0.43400729714E+02  0.00000000000E+00 0. -1.
         11    1    3    3    0    0  0.45084901350E+00 -0.45494014897E+00 -0.11369996728E+01  0.13049919115E+01  0.51100000000E-03 0. -1.
        -11    1    3    3    0    0  0.82925861014E+01 -0.94399013655E+01 -0.26064287805E+01  0.12832466376E+02  0.51100000000E-03 0.  1.
        -12    1    3    3    0    0 -0.49288145179E+01 -0.33264402486E+02  0.12231771272E+01  0.33649811999E+02  0.00000000000E+00 0.  1.
</event>
<event>
 7    1  0.2812635E-010  0.4778727E+02  0.7816164E-02  0.1312668E+00
        -11   -1    0    0    0    0  0.00000000000E+00  0.00000000000E+00  0.45593999997E+02  0.45594000000E+02  0.51100000000E-03 0.  1.
         11   -1    0    0    0    0 -0.00000000000E+00 -0.00000000000E+00 -0.45593999997E+02  0.45594000000E+02  0.51100000000E-03 0. -1.
    9900012    2    1    2    0    0  0.93545546120E+01  0.17862631523E+02  0.38432306761E+02  0.47787268440E+02  0.19999988127E+02 0.  0.
         12    1    1    2    0    0 -0.93545546120E+01 -0.17862631523E+02 -0.38432306761E+02  0.43400731560E+02  0.00000000000E+00 0. -1.
         11    1    3    3    0    0  0.10383961218E+02  0.38143156816E+01  0.15089985126E+02  0.18710513249E+02  0.51100000000E-03 0. -1.
        -11    1    3    3    0    0  0.10279631637E+01  0.66744764924E+01  0.30913716928E+01  0.74271073721E+01  0.51100000000E-03 0.  1.
         12    1    3    3    0    0 -0.20573697695E+01  0.73738393495E+01  0.20250949942E+02  0.21649647819E+02  0.00000000000E+00 0. -1.
</event>
<event>
 7    1  0.2812635E-010  0.4778727E+02  0.7816164E-02  0.1312668E+00
        -11   -1    0    0    0    0  0.00000000000E+00  0.00000000000E+00  0.45593999997E+02  0.45594000000E+02  0.51100000000E-03 0.  1.
         11   -1    0    0    0    0 -0.00000000000E+00 -0.00000000000E+00 -0.45593999997E+02  0.45594000000E+02  0.51100000000E-03 0. -1.
    9900012    2    1    2    0    0  0.34522009035E+02 -0.68586685059E+01  0.25393163479E+02  0.47787271977E+02  0.20000004251E+02 0.  0.
         12    1    1    2    0    0 -0.34522009035E+02  0.68586685059E+01 -0.25393163479E+02  0.43400728023E+02  0.00000000000E+00 0. -1.
         11    1    3    3    0    0  0.98504073571E+01 -0.64085029943E+01  0.26945940776E+00  0.11754660538E+02  0.51100000000E-03 0. -1.
        -11    1    3    3    0    0  0.21655451947E+02  0.22537684883E+01  0.21462855775E+02  0.30572737033E+02  0.51100000000E-03 0.  1.
         12    1    3    3    0    0  0.30161497303E+01 -0.27039339999E+01  0.36608482965E+01  0.54598744053E+01  0.00000000000E+00 0. -1.
</event>
<event>
 7    1  0.2812635E-010  0.4778727E+02  0.7816164E-02  0.1312668E+00
        -11   -1    0    0    0    0  0.00000000000E+00  0.00000000000E+00  0.45593999997E+02  0.45594000000E+02  0.51100000000E-03 0.  1.
         11   -1    0    0    0    0 -0.00000000000E+00 -0.00000000000E+00 -0.45593999997E+02  0.45594000000E+02  0.51100000000E-03 0. -1.
    9900012    2    1    2    0    0  0.26068595517E+02 -0.31429230573E+02  0.14705613149E+02  0.47787271150E+02  0.20000000481E+02 0.  0.
         12    1    1    2    0    0 -0.26068595517E+02  0.31429230573E+02 -0.14705613149E+02  0.43400728850E+02  0.00000000000E+00 0. -1.
         11    1    3    3    0    0  0.10792291130E+02 -0.93270218392E+01  0.13645794434E+02  0.19740177056E+02  0.51100000000E-03 0. -1.
        -11    1    3    3    0    0  0.12804315570E+02 -0.12898428239E+02  0.27089714521E+01  0.18375485704E+02  0.51100000000E-03 0.  1.
         12    1    3    3    0    0  0.24719888174E+01 -0.92037804944E+01 -0.16491527370E+01  0.96716083901E+01  0.00000000000E+00 0. -1.
</event>
<event>
 7    1  0.2812635E-010  0.4778727E+02  0.7816164E-02  0.1312668E+00
        -11   -1    0    0    0    0  0.00000000000E+00  0.00000000000E+00  0.45593999997E+02  0.45594000000E+02  0.51100000000E-03 0. -1.
         11   -1    0    0    0    0 -0.00000000000E+00 -0.00000000000E+00 -0.45593999997E+02  0.45594000000E+02  0.51100000000E-03 0.  1.
    9900012    2    1    2    0    0  0.41221346586E+02  0.10980922312E+02 -0.79902057289E+01  0.47787268937E+02  0.19999990393E+02 0.  0.
         12    1    1    2    0    0 -0.41221346586E+02 -0.10980922312E+02  0.79902057289E+01  0.43400731063E+02  0.00000000000E+00 0. -1.
         11    1    3    3    0    0 -0.11968672954E+01 -0.17823146026E+00 -0.15599647017E+01  0.19742714878E+01  0.51100000000E-03 0. -1.
        -11    1    3    3    0    0  0.30676549029E+02  0.26737617108E+01 -0.31015753027E+01  0.30948657994E+02  0.51100000000E-03 0.  1.
         12    1    3    3    0    0  0.11741664852E+02  0.84853920617E+01 -0.33286657246E+01  0.14864339455E+02  0.00000000000E+00 0. -1.
</event>
<event>
 7    1  0.2812635E-010  0.4778728E+02  0.7816164E-02  0.1312668E+00
        -11   -1    0    0    0    0  0.00000000000E+00  0.00000000000E+00  0.45593999997E+02  0.45594000000E+02  0.51100000000E-03 0.  1.
         11   -1    0    0    0    0 -0.00000000000E+00 -0.00000000000E+00 -0.45593999997E+02  0.45594000000E+02  0.51100000000E-03 0. -1.
    9900012    2    1    2    0    0 -0.27257420709E+01 -0.30818647318E+02  0.30436888012E+02  0.47787275994E+02  0.20000022569E+02 0.  0.
         12    1    1    2    0    0  0.27257420709E+01  0.30818647318E+02 -0.30436888012E+02  0.43400724006E+02  0.00000000000E+00 0. -1.
         11    1    3    3    0    0  0.46786665256E+01 -0.50517009130E+01  0.10371080723E+02  0.12448651260E+02  0.51100000000E-03 0. -1.
        -11    1    3    3    0    0 -0.59053946437E+01 -0.23307549860E+02  0.12200080818E+02  0.26962150111E+02  0.51100000000E-03 0.  1.
        -12    1    3    3    0    0 -0.14990139528E+01 -0.24593965445E+01  0.78657264714E+01  0.83764746234E+01  0.00000000000E+00 0.  1.
</event>
<event>
 7    1  0.2812635E-010  0.4778727E+02  0.7816164E-02  0.1312668E+00
        -11   -1    0    0    0    0  0.00000000000E+00  0.00000000000E+00  0.45593999997E+02  0.45594000000E+02  0.51100000000E-03 0. -1.
         11   -1    0    0    0    0 -0.00000000000E+00 -0.00000000000E+00 -0.45593999997E+02  0.45594000000E+02  0.51100000000E-03 0.  1.
    9900012    2    1    2    0    0 -0.20384134321E+02  0.54716017596E+01 -0.37923239462E+02  0.47787269025E+02  0.19999990793E+02 0.  0.
         12    1    1    2    0    0  0.20384134321E+02 -0.54716017596E+01  0.37923239462E+02  0.43400730975E+02  0.00000000000E+00 0. -1.
         11    1    3    3    0    0 -0.81938621133E+00 -0.24678919531E+01 -0.14410660348E+02  0.14643394974E+02  0.51100000000E-03 0. -1.
        -11    1    3    3    0    0 -0.13372257448E+02  0.77348242311E+01 -0.10346773094E+02  0.18593022585E+02  0.51100000000E-03 0.  1.
        -12    1    3    3    0    0 -0.61924906620E+01  0.20466948156E+00 -0.13165806021E+02  0.14550851465E+02  0.00000000000E+00 0.  1.
</event>
<event>
 7    1  0.2812635E-010  0.4778727E+02  0.7816164E-02  0.1312668E+00
        -11   -1    0    0    0    0  0.00000000000E+00  0.00000000000E+00  0.45593999997E+02  0.45594000000E+02  0.51100000000E-03 0.  1.
         11   -1    0    0    0    0 -0.00000000000E+00 -0.00000000000E+00 -0.45593999997E+02  0.45594000000E+02  0.51100000000E-03 0. -1.
    9900012    2    1    2    0    0 -0.22512385087E+02 -0.26330797265E+02  0.26143927554E+02  0.47787270573E+02  0.19999997849E+02 0.  0.
         12    1    1    2    0    0  0.22512385087E+02  0.26330797265E+02 -0.26143927554E+02  0.43400729427E+02  0.00000000000E+00 0. -1.
         11    1    3    3    0    0  0.10607453777E+01  0.21799642120E+01  0.23580134834E+01  0.33819598713E+01  0.51100000000E-03 0. -1.
        -11    1    3    3    0    0 -0.96592249320E+01 -0.81934526819E+01  0.10325146938E+02  0.16341418320E+02  0.51100000000E-03 0.  1.
         12    1    3    3    0    0 -0.13913905533E+02 -0.20317308795E+02  0.13460767132E+02  0.28063892382E+02  0.00000000000E+00 0. -1.
</event>
<event>
 7    1  0.2812635E-010  0.4778728E+02  0.7816164E-02  0.1312668E+00
        -11   -1    0    0    0    0  0.00000000000E+00  0.00000000000E+00  0.45593999997E+02  0.45594000000E+02  0.51100000000E-03 0.  1.
         11   -1    0    0    0    0 -0.00000000000E+00 -0.00000000000E+00 -0.45593999997E+02  0.45594000000E+02  0.51100000000E-03 0. -1.
    9900012    2    1    2    0    0 -0.12460634425E+02 -0.28938664579E+02  0.29848101731E+02  0.47787275411E+02  0.20000019908E+02 0.  0.
         12    1    1    2    0    0  0.12460634425E+02  0.28938664579E+02 -0.29848101731E+02  0.43400724589E+02  0.00000000000E+00 0. -1.
         11    1    3    3    0    0 -0.84381658296E+01 -0.21539480945E+02  0.16413587673E+02  0.28364727084E+02  0.51100000000E-03 0. -1.
        -11    1    3    3    0    0 -0.67818843914E+01 -0.85582983946E+01  0.11502290494E+02  0.15860047736E+02  0.51100000000E-03 0.  1.
         12    1    3    3    0    0  0.27594157960E+01  0.11591147606E+01  0.19322235639E+01  0.35625005915E+01  0.00000000000E+00 0. -1.
</event>
<event>
 7    1  0.2812635E-010  0.4778727E+02  0.7816164E-02  0.1312668E+00
        -11   -1    0    0    0    0  0.00000000000E+00  0.00000000000E+00  0.45593999997E+02  0.45594000000E+02  0.51100000000E-03 0. -1.
         11   -1    0    0    0    0 -0.00000000000E+00 -0.00000000000E+00 -0.45593999997E+02  0.45594000000E+02  0.51100000000E-03 0.  1.
    9900012    2    1    2    0    0  0.36837084539E+02 -0.22891653853E+02  0.16200727033E+01  0.47787271331E+02  0.20000001305E+02 0.  0.
         12    1    1    2    0    0 -0.36837084539E+02  0.22891653853E+02 -0.16200727033E+01  0.43400728669E+02  0.00000000000E+00 0. -1.
         11    1    3    3    0    0  0.14976973445E+02 -0.99872307981E+00  0.53652163767E+01  0.15940286333E+02  0.51100000000E-03 0. -1.
        -11    1    3    3    0    0  0.34967126278E+01 -0.73595051227E+01 -0.18240185209E+01  0.83496322481E+01  0.51100000000E-03 0.  1.
         12    1    3    3    0    0  0.18363398466E+02 -0.14533425651E+02 -0.19211251525E+01  0.23497352749E+02  0.00000000000E+00 0. -1.
</event>
<event>
 7    1  0.2812635E-010  0.4778727E+02  0.7816164E-02  0.1312668E+00
        -11   -1    0    0    0    0  0.00000000000E+00  0.00000000000E+00  0.45593999997E+02  0.45594000000E+02  0.51100000000E-03 0.  1.
         11   -1    0    0    0    0 -0.00000000000E+00 -0.00000000000E+00 -0.45593999997E+02  0.45594000000E+02  0.51100000000E-03 0. -1.
    9900012    2    1    2    0    0 -0.59294374051E+01  0.41522202350E+02  0.11152203979E+02  0.47787272247E+02  0.20000005483E+02 0.  0.
         12    1    1    2    0    0  0.59294374051E+01 -0.41522202350E+02 -0.11152203979E+02  0.43400727753E+02  0.00000000000E+00 0. -1.
         11    1    3    3    0    0 -0.44419477356E+00  0.11092395879E+02  0.92325367916E+01  0.14438777344E+02  0.51100000000E-03 0.  1.
        -11    1    3    3    0    0 -0.37885077324E+01  0.28947966277E+02 -0.15227381399E+01  0.29234504855E+02  0.51100000000E-03 0. -1.
         12    1    3    3    0    0 -0.16967348991E+01  0.14818401942E+01  0.34424053273E+01  0.41139900481E+01  0.00000000000E+00 0. -1.
</event>
<event>
 7    1  0.2812635E-010  0.4778727E+02  0.7816164E-02  0.1312668E+00
        -11   -1    0    0    0    0  0.00000000000E+00  0.00000000000E+00  0.45593999997E+02  0.45594000000E+02  0.51100000000E-03 0.  1.
         11   -1    0    0    0    0 -0.00000000000E+00 -0.00000000000E+00 -0.45593999997E+02  0.45594000000E+02  0.51100000000E-03 0. -1.
    9900012    2    1    2    0    0  0.33355169564E+02 -0.15335243040E+02  0.23149222053E+02  0.47787268469E+02  0.19999988256E+02 0.  0.
         12    1    1    2    0    0 -0.33355169564E+02  0.15335243040E+02 -0.23149222053E+02  0.43400731531E+02  0.00000000000E+00 0. -1.
         11    1    3    3    0    0  0.92822095156E+01  0.82307185130E+00 -0.58490320328E+00  0.93369680723E+01  0.51100000000E-03 0. -1.
        -11    1    3    3    0    0  0.13623051213E+02 -0.74929019322E+01  0.17801503402E+02  0.23635241217E+02  0.51100000000E-03 0.  1.
         12    1    3    3    0    0  0.10449908836E+02 -0.86654129596E+01  0.59326218542E+01  0.14815059180E+02  0.00000000000E+00 0. -1.
</event>
<event>
 7    1  0.2812635E-010  0.4778727E+02  0.7816164E-02  0.1312668E+00
        -11   -1    0    0    0    0  0.00000000000E+00  0.00000000000E+00  0.45593999997E+02  0.45594000000E+02  0.51100000000E-03 0.  1.
         11   -1    0    0    0    0 -0.00000000000E+00 -0.00000000000E+00 -0.45593999997E+02  0.45594000000E+02  0.51100000000E-03 0. -1.
    9900012    2    1    2    0    0 -0.14164627537E+02  0.36958484743E+02  0.17806099350E+02  0.47787269110E+02  0.19999991178E+02 0.  0.
         12    1    1    2    0    0  0.14164627537E+02 -0.36958484743E+02 -0.17806099350E+02  0.43400730890E+02  0.00000000000E+00 0. -1.
         11    1    3    3    0    0 -0.15085663901E+02  0.22096980249E+02  0.13400276174E+02  0.29923589244E+02  0.51100000000E-03 0. -1.
        -11    1    3    3    0    0  0.33583204136E+01  0.11167122011E+02  0.60562356445E+01  0.13140050245E+02  0.51100000000E-03 0.  1.
         12    1    3    3    0    0 -0.24372840503E+01  0.36943824834E+01 -0.16504124685E+01  0.47236296205E+01  0.00000000000E+00 0. -1.
</event>
<event>
 7    1  0.2812635E-010  0.4778727E+02  0.7816164E-02  0.1312668E+00
        -11   -1    0    0    0    0  0.00000000000E+00  0.00000000000E+00  0.45593999997E+02  0.45594000000E+02  0.51100000000E-03 0. -1.
         11   -1    0    0    0    0 -0.00000000000E+00 -0.00000000000E+00 -0.45593999997E+02  0.45594000000E+02  0.51100000000E-03 0.  1.
    9900012    2    1    2    0    0 -0.40057346350E+00  0.38230988576E+02 -0.20539099434E+02  0.47787267839E+02  0.19999985385E+02 0.  0.
         12    1    1    2    0    0  0.40057346350E+00 -0.38230988576E+02  0.20539099434E+02  0.43400732161E+02  0.00000000000E+00 0. -1.
         11    1    3    3    0    0 -0.23726413742E+01  0.21527453791E+01 -0.80999263751E+00  0.33045163174E+01  0.51100000000E-03 0. -1.
        -11    1    3    3    0    0 -0.28948691430E+01  0.14450318469E+02  0.10289562185E+00  0.14737793559E+02  0.51100000000E-03 0.  1.
        -12    1    3    3    0    0  0.48669370537E+01  0.21627924728E+02 -0.19832002418E+02  0.29744957963E+02  0.00000000000E+00 0.  1.
</event>
<event>
 7    1  0.2812635E-010  0.4778727E+02  0.7816164E-02  0.1312668E+00
        -11   -1    0    0    0    0  0.00000000000E+00  0.00000000000E+00  0.45593999997E+02  0.45594000000E+02  0.51100000000E-03 0. -1.
         11   -1    0    0    0    0 -0.00000000000E+00 -0.00000000000E+00 -0.45593999997E+02  0.45594000000E+02  0.51100000000E-03 0.  1.
    9900012    2    1    2    0    0 -0.58713329484E+01 -0.37089180419E+02 -0.21761052050E+02  0.47787271422E+02  0.20000001724E+02 0.  0.
         12    1    1    2    0    0  0.58713329484E+01  0.37089180419E+02  0.21761052050E+02  0.43400728578E+02  0.00000000000E+00 0. -1.
         11    1    3    3    0    0  0.83768069455E+00  0.96708321006E+00 -0.17223364353E+01  0.21455539934E+01  0.51100000000E-03 0. -1.
        -11    1    3    3    0    0 -0.48959306763E+01 -0.33829824151E+02 -0.11718649926E+02  0.36135216834E+02  0.51100000000E-03 0.  1.
        -12    1    3    3    0    0 -0.18130829666E+01 -0.42264394779E+01 -0.83200656885E+01  0.95065005951E+01  0.00000000000E+00 0.  1.
</event>
<event>
 7    1  0.2812635E-010  0.4778727E+02  0.7816164E-02  0.1312668E+00
        -11   -1    0    0    0    0  0.00000000000E+00  0.00000000000E+00  0.45593999997E+02  0.45594000000E+02  0.51100000000E-03 0.  1.
         11   -1    0    0    0    0 -0.00000000000E+00 -0.00000000000E+00 -0.45593999997E+02  0.45594000000E+02  0.51100000000E-03 0. -1.
    9900012    2    1    2    0    0 -0.19611270768E+02 -0.33313142515E+02  0.19729567407E+02  0.47787271487E+02  0.20000002020E+02 0.  0.
         12    1    1    2    0    0  0.19611270768E+02  0.33313142515E+02 -0.19729567407E+02  0.43400728513E+02  0.00000000000E+00 0. -1.
         11    1    3    3    0    0 -0.16527457493E+02 -0.29868383422E+02  0.95239941114E+01  0.35439859530E+02  0.51100000000E-03 0. -1.
        -11    1    3    3    0    0 -0.32853188027E+01 -0.36458094290E+01  0.45741754162E+01  0.67088245638E+01  0.51100000000E-03 0.  1.
         12    1    3    3    0    0  0.20150552800E+00  0.20105033599E+00  0.56313978794E+01  0.56385873933E+01  0.00000000000E+00 0. -1.
</event>
<event>
 7    1  0.2812635E-010  0.4778727E+02  0.7816164E-02  0.1312668E+00
        -11   -1    0    0    0    0  0.00000000000E+00  0.00000000000E+00  0.45593999997E+02  0.45594000000E+02  0.51100000000E-03 0. -1.
         11   -1    0    0    0    0 -0.00000000000E+00 -0.00000000000E+00 -0.45593999997E+02  0.45594000000E+02  0.51100000000E-03 0.  1.
    9900012    2    1    2    0    0 -0.78064512231E+01  0.37994421156E+02  0.19470659998E+02  0.47787270508E+02  0.19999997554E+02 0.  0.
         12    1    1    2    0    0  0.78064512231E+01 -0.37994421156E+02 -0.19470659998E+02  0.43400729492E+02  0.00000000000E+00 0. -1.
         11    1    3    3    0    0 -0.41557428253E+01  0.27294961856E+02  0.15427338616E+02  0.31627328660E+02  0.51100000000E-03 0. -1.
        -11    1    3    3    0    0  0.16945738630E+01  0.52368079230E+01  0.61289126722E+01  0.82376761653E+01  0.51100000000E-03 0.  1.
         12    1    3    3    0    0 -0.53452822608E+01  0.54626513775E+01 -0.20855912902E+01  0.79222656828E+01  0.00000000000E+00 0. -1.
</event>
<event>
 7    1  0.2812635E-010  0.4778727E+02  0.7816164E-02  0.1312668E+00
        -11   -1    0    0    0    0  0.00000000000E+00  0.00000000000E+00  0.45593999997E+02  0.45594000000E+02  0.51100000000E-03 0. -1.
         11   -1    0    0    0    0 -0.00000000000E+00 -0.00000000000E+00 -0.45593999997E+02  0.45594000000E+02  0.51100000000E-03 0.  1.
    9900012    2    1    2    0    0 -0.16798634561E+02 -0.21842698202E+02 -0.33530973691E+02  0.47787265161E+02  0.19999973177E+02 0.  0.
         12    1    1    2    0    0  0.16798634561E+02  0.21842698202E+02  0.33530973691E+02  0.43400734839E+02  0.00000000000E+00 0. -1.
         11    1    3    3    0    0 -0.58548325439E+01  0.21065983718E+01 -0.11162394679E+02  0.12779510008E+02  0.51100000000E-03 0. -1.
        -11    1    3    3    0    0 -0.97079042602E+01 -0.23752318923E+02 -0.21586647208E+02  0.33532065211E+02  0.51100000000E-03 0.  1.
        -12    1    3    3    0    0 -0.12358977569E+01 -0.19697765085E+00 -0.78193180355E+00  0.14756899423E+01  0.00000000000E+00 0.  1.
</event>
<event>
 7    1  0.2812635E-010  0.4778727E+02  0.7816164E-02  0.1312668E+00
        -11   -1    0    0    0    0  0.00000000000E+00  0.00000000000E+00  0.45593999997E+02  0.45594000000E+02  0.51100000000E-03 0.  1.
         11   -1    0    0    0    0 -0.00000000000E+00 -0.00000000000E+00 -0.45593999997E+02  0.45594000000E+02  0.51100000000E-03 0. -1.
    9900012    2    1    2    0    0 -0.75138639715E+01 -0.16604370685E+02  0.39388574316E+02  0.47787273459E+02  0.20000011011E+02 0.  0.
         12    1    1    2    0    0  0.75138639715E+01  0.16604370685E+02 -0.39388574316E+02  0.43400726541E+02  0.00000000000E+00 0. -1.
         11    1    3    3    0    0 -0.63349549089E+01 -0.11828759287E+02  0.31638729173E+02  0.34366559093E+02  0.51100000000E-03 0. -1.
        -11    1    3    3    0    0 -0.13016669059E+01 -0.29426474779E+01  0.10006345520E+02  0.10510968644E+02  0.51100000000E-03 0.  1.
         12    1    3    3    0    0  0.12275784333E+00 -0.18329639193E+01 -0.22565003767E+01  0.29097457221E+01  0.00000000000E+00 0. -1.
</event>
<event>
 7    1  0.2812635E-010  0.4778727E+02  0.7816164E-02  0.1312668E+00
        -11   -1    0    0    0    0  0.00000000000E+00  0.00000000000E+00  0.45593999997E+02  0.45594000000E+02  0.51100000000E-03 0.  1.
         11   -1    0    0    0    0 -0.00000000000E+00 -0.00000000000E+00 -0.45593999997E+02  0.45594000000E+02  0.51100000000E-03 0. -1.
    9900012    2    1    2    0    0 -0.12477632185E+01  0.42003636141E+02  0.10851755449E+02  0.47787274679E+02  0.20000016569E+02 0.  0.
         12    1    1    2    0    0  0.12477632185E+01 -0.42003636141E+02 -0.10851755449E+02  0.43400725321E+02  0.00000000000E+00 0. -1.
         11    1    3    3    0    0 -0.19577221955E+01  0.19443387444E+02  0.13506823546E+02  0.23755257820E+02  0.51100000000E-03 0. -1.
        -11    1    3    3    0    0 -0.24366534873E+01  0.18876404347E+02 -0.18802243522E+01  0.19125667705E+02  0.51100000000E-03 0.  1.
         12    1    3    3    0    0  0.31466124643E+01  0.36838443491E+01 -0.77484374466E+00  0.49063491537E+01  0.00000000000E+00 0. -1.
</event>
<event>
 7    1  0.2812635E-010  0.4778727E+02  0.7816164E-02  0.1312668E+00
        -11   -1    0    0    0    0  0.00000000000E+00  0.00000000000E+00  0.45593999997E+02  0.45594000000E+02  0.51100000000E-03 0.  1.
         11   -1    0    0    0    0 -0.00000000000E+00 -0.00000000000E+00 -0.45593999997E+02  0.45594000000E+02  0.51100000000E-03 0. -1.
    9900012    2    1    2    0    0 -0.29772166828E+02 -0.28581264574E+02  0.13429560939E+02  0.47787266028E+02  0.19999977127E+02 0.  0.
         12    1    1    2    0    0  0.29772166828E+02  0.28581264574E+02 -0.13429560939E+02  0.43400733972E+02  0.00000000000E+00 0. -1.
         11    1    3    3    0    0 -0.70731456948E+01 -0.11869298230E+02 -0.27805704484E+01  0.14094013011E+02  0.51100000000E-03 0. -1.
        -11    1    3    3    0    0 -0.14477392609E+02 -0.15153078826E+02  0.13357715205E+02  0.24852348991E+02  0.51100000000E-03 0.  1.
        -12    1    3    3    0    0 -0.82216285247E+01 -0.15588875188E+01  0.28524161829E+01  0.88409040248E+01  0.00000000000E+00 0.  1.
</event>
<event>
 7    1  0.2812635E-010  0.4778727E+02  0.7816164E-02  0.1312668E+00
        -11   -1    0    0    0    0  0.00000000000E+00  0.00000000000E+00  0.45593999997E+02  0.45594000000E+02  0.51100000000E-03 0.  1.
         11   -1    0    0    0    0 -0.00000000000E+00 -0.00000000000E+00 -0.45593999997E+02  0.45594000000E+02  0.51100000000E-03 0. -1.
    9900012    2    1    2    0    0  0.26611249737E+02  0.33437348530E+02 -0.75768283629E+01  0.47787271696E+02  0.20000002972E+02 0.  0.
         12    1    1    2    0    0 -0.26611249737E+02 -0.33437348530E+02  0.75768283629E+01  0.43400728304E+02  0.00000000000E+00 0. -1.
         11    1    3    3    0    0  0.11083337427E+01  0.12639148797E+02 -0.35767931983E+01  0.13182182514E+02  0.51100000000E-03 0. -1.
        -11    1    3    3    0    0  0.26269199368E+01  0.63651916429E+01  0.13897404689E+01  0.70247955015E+01  0.51100000000E-03 0.  1.
         12    1    3    3    0    0  0.22875996057E+02  0.14433008090E+02 -0.53897756335E+01  0.27580293681E+02  0.00000000000E+00 0. -1.
</event>
<event>
 7    1  0.2812635E-010  0.4778727E+02  0.7816164E-02  0.1312668E+00
        -11   -1    0    0    0    0  0.00000000000E+00  0.00000000000E+00  0.45593999997E+02  0.45594000000E+02  0.51100000000E-03 0.  1.
         11   -1    0    0    0    0 -0.00000000000E+00 -0.00000000000E+00 -0.45593999997E+02  0.45594000000E+02  0.51100000000E-03 0. -1.
    9900012    2    1    2    0    0  0.29951136365E+02 -0.31314751005E+02 -0.24371058789E+01  0.47787266306E+02  0.19999978397E+02 0.  0.
         12    1    1    2    0    0 -0.29951136365E+02  0.31314751005E+02  0.24371058789E+01  0.43400733694E+02  0.00000000000E+00 0. -1.
         11    1    3    3    0    0  0.38551693613E+01 -0.80560756489E+01  0.38016698867E+01  0.97064607274E+01  0.51100000000E-03 0. -1.
        -11    1    3    3    0    0  0.13143650371E+02 -0.14184725088E+02 -0.10078477835E+02  0.21806826606E+02  0.51100000000E-03 0.  1.
        -12    1    3    3    0    0  0.12952316633E+02 -0.90739502681E+01  0.38397020691E+01  0.16273978973E+02  0.00000000000E+00 0.  1.
</event>
<event>
 7    1  0.2812635E-010  0.4778727E+02  0.7816164E-02  0.1312668E+00
        -11   -1    0    0    0    0  0.00000000000E+00  0.00000000000E+00  0.45593999997E+02  0.45594000000E+02  0.51100000000E-03 0.  1.
         11   -1    0    0    0    0 -0.00000000000E+00 -0.00000000000E+00 -0.45593999997E+02  0.45594000000E+02  0.51100000000E-03 0. -1.
    9900012    2    1    2    0    0  0.25689556234E+02 -0.30633657957E+02 -0.16889311943E+02  0.47787272388E+02  0.20000006127E+02 0.  0.
         12    1    1    2    0    0 -0.25689556234E+02  0.30633657957E+02  0.16889311943E+02  0.43400727612E+02  0.00000000000E+00 0. -1.
         11    1    3    3    0    0  0.13992571340E+02 -0.39515188786E+01 -0.15933290959E+01  0.14626867471E+02  0.51100000000E-03 0. -1.
        -11    1    3    3    0    0  0.58031687896E+01 -0.17914569355E+02 -0.10468344878E+02  0.21545180619E+02  0.51100000000E-03 0.  1.
        -12    1    3    3    0    0  0.58938161045E+01 -0.87675697234E+01 -0.48276379685E+01  0.11615224298E+02  0.00000000000E+00 0.  1.
</event>
<event>
 7    1  0.2812635E-010  0.4778727E+02  0.7816164E-02  0.1312668E+00
        -11   -1    0    0    0    0  0.00000000000E+00  0.00000000000E+00  0.45593999997E+02  0.45594000000E+02  0.51100000000E-03 0. -1.
         11   -1    0    0    0    0 -0.00000000000E+00 -0.00000000000E+00 -0.45593999997E+02  0.45594000000E+02  0.51100000000E-03 0.  1.
    9900012    2    1    2    0    0 -0.29457612114E+02  0.24192386010E+02 -0.20750924423E+02  0.47787270551E+02  0.19999997750E+02 0.  0.
         12    1    1    2    0    0  0.29457612114E+02 -0.24192386010E+02  0.20750924423E+02  0.43400729449E+02  0.00000000000E+00 0. -1.
         11    1    3    3    0    0 -0.20406152486E+02  0.17447933791E+02 -0.16874867087E+02  0.31711237635E+02  0.51100000000E-03 0. -1.
        -11    1    3    3    0    0 -0.97021340418E+01  0.43839201623E+01 -0.65104560116E+01  0.12479431024E+02  0.51100000000E-03 0.  1.
         12    1    3    3    0    0  0.65067441412E+00  0.23605320563E+01  0.26343986760E+01  0.35966018916E+01  0.00000000000E+00 0. -1.
</event>
<event>
 7    1  0.2812635E-010  0.4778727E+02  0.7816164E-02  0.1312668E+00
        -11   -1    0    0    0    0  0.00000000000E+00  0.00000000000E+00  0.45593999997E+02  0.45594000000E+02  0.51100000000E-03 0.  1.
         11   -1    0    0    0    0 -0.00000000000E+00 -0.00000000000E+00 -0.45593999997E+02  0.45594000000E+02  0.51100000000E-03 0. -1.
    9900012    2    1    2    0    0 -0.58840354811E+01 -0.10535477368E+02  0.41689388788E+02  0.47787270808E+02  0.19999998922E+02 0.  0.
         12    1    1    2    0    0  0.58840354811E+01  0.10535477368E+02 -0.41689388788E+02  0.43400729192E+02  0.00000000000E+00 0. -1.
         11    1    3    3    0    0 -0.46263531149E+01  0.99113393846E+00  0.45736167454E+01  0.65805364540E+01  0.51100000000E-03 0. -1.
        -11    1    3    3    0    0  0.36156116784E+01 -0.68203469712E+01  0.31424199161E+02  0.32358462166E+02  0.51100000000E-03 0.  1.
        -12    1    3    3    0    0 -0.48732940446E+01 -0.47062643354E+01  0.56915728816E+01  0.88482721876E+01  0.00000000000E+00 0.  1.
</event>
<event>
 7    1  0.2812635E-010  0.4778727E+02  0.7816164E-02  0.1312668E+00
        -11   -1    0    0    0    0  0.00000000000E+00  0.00000000000E+00  0.45593999997E+02  0.45594000000E+02  0.51100000000E-03 0.  1.
         11   -1    0    0    0    0 -0.00000000000E+00 -0.00000000000E+00 -0.45593999997E+02  0.45594000000E+02  0.51100000000E-03 0. -1.
    9900012    2    1    2    0    0  0.17310752944E+02  0.23653678816E+02  0.32007264602E+02  0.47787266408E+02  0.19999978862E+02 0.  0.
         12    1    1    2    0    0 -0.17310752944E+02 -0.23653678816E+02 -0.32007264602E+02  0.43400733592E+02  0.00000000000E+00 0. -1.
         11    1    3    3    0    0  0.90102674089E+01  0.70353288934E+01  0.14256243958E+01  0.11520120511E+02  0.51100000000E-03 0. -1.
        -11    1    3    3    0    0 -0.14005456040E+00 -0.31863790585E+00  0.17199085514E+01  0.17547737977E+01  0.51100000000E-03 0.  1.
         12    1    3    3    0    0  0.84405400952E+01  0.16936987828E+02  0.28861731655E+02  0.34512372099E+02  0.00000000000E+00 0. -1.
</event>
<event>
 7    1  0.2812635E-010  0.4778727E+02  0.7816164E-02  0.1312668E+00
        -11   -1    0    0    0    0  0.00000000000E+00  0.00000000000E+00  0.45593999997E+02  0.45594000000E+02  0.51100000000E-03 0.  1.
         11   -1    0    0    0    0 -0.00000000000E+00 -0.00000000000E+00 -0.45593999997E+02  0.45594000000E+02  0.51100000000E-03 0. -1.
    9900012    2    1    2    0    0  0.73261332679E+01 -0.19004007216E+02  0.38324908880E+02  0.47787272362E+02  0.20000006005E+02 0.  0.
         12    1    1    2    0    0 -0.73261332679E+01  0.19004007216E+02 -0.38324908880E+02  0.43400727638E+02  0.00000000000E+00 0. -1.
         11    1    3    3    0    0  0.11217660089E+02 -0.96012054697E+01  0.22228698360E+02  0.26685840354E+02  0.51100000000E-03 0. -1.
        -11    1    3    3    0    0 -0.10254317206E+01 -0.34639125113E+01  0.13565368724E+02  0.14038141935E+02  0.51100000000E-03 0.  1.
         12    1    3    3    0    0 -0.28660951002E+01 -0.59388892346E+01  0.25308417957E+01  0.70632900733E+01  0.00000000000E+00 0. -1.
</event>
<event>
 7    1  0.2812635E-010  0.4778727E+02  0.7816164E-02  0.1312668E+00
        -11   -1    0    0    0    0  0.00000000000E+00  0.00000000000E+00  0.45593999997E+02  0.45594000000E+02  0.51100000000E-03 0.  1.
         11   -1    0    0    0    0 -0.00000000000E+00 -0.00000000000E+00 -0.45593999997E+02  0.45594000000E+02  0.51100000000E-03 0. -1.
    9900012    2    1    2    0    0  0.18527794858E+02  0.96868054491E+01  0.38033010946E+02  0.47787270700E+02  0.19999998431E+02 0.  0.
         12    1    1    2    0    0 -0.18527794858E+02 -0.96868054491E+01 -0.38033010946E+02  0.43400729300E+02  0.00000000000E+00 0. -1.
         11    1    3    3    0    0 -0.18816736616E+01 -0.19348436744E+01  0.10909686331E+01  0.29111043665E+01  0.51100000000E-03 0. -1.
        -11    1    3    3    0    0  0.10050868472E+02  0.10875826758E+02  0.24933511231E+02  0.28999716331E+02  0.51100000000E-03 0.  1.
        -12    1    3    3    0    0  0.10358600048E+02  0.74582236587E+00  0.12008531082E+02  0.15876450003E+02  0.00000000000E+00 0.  1.
</event>
<event>
 7    1  0.2812635E-010  0.4778727E+02  0.7816164E-02  0.1312668E+00
        -11   -1    0    0    0    0  0.00000000000E+00  0.00000000000E+00  0.45593999997E+02  0.45594000000E+02  0.51100000000E-03 0. -1.
         11   -1    0    0    0    0 -0.00000000000E+00 -0.00000000000E+00 -0.45593999997E+02  0.45594000000E+02  0.51100000000E-03 0.  1.
    9900012    2    1    2    0    0 -0.11696612037E+02 -0.40760347188E+01 -0.41595653632E+02  0.47787271973E+02  0.20000004235E+02 0.  0.
         12    1    1    2    0    0  0.11696612037E+02  0.40760347188E+01  0.41595653632E+02  0.43400728027E+02  0.00000000000E+00 0. -1.
         11    1    3    3    0    0  0.20470888954E+01 -0.16611024213E+01 -0.20871627471E+02  0.21037458680E+02  0.51100000000E-03 0. -1.
        -11    1    3    3    0    0 -0.67903067943E+01  0.31282360186E+01 -0.61668445336E+01  0.96914446143E+01  0.51100000000E-03 0.  1.
        -12    1    3    3    0    0 -0.69533941383E+01 -0.55431683161E+01 -0.14557181628E+02  0.17058368678E+02  0.00000000000E+00 0.  1.
</event>
<event>
 7    1  0.2812635E-010  0.4778726E+02  0.7816164E-02  0.1312668E+00
        -11   -1    0    0    0    0  0.00000000000E+00  0.00000000000E+00  0.45593999997E+02  0.45594000000E+02  0.51100000000E-03 0.  1.
         11   -1    0    0    0    0 -0.00000000000E+00 -0.00000000000E+00 -0.45593999997E+02  0.45594000000E+02  0.51100000000E-03 0. -1.
    9900012    2    1    2    0    0  0.27718266229E+02 -0.23516746871E+02  0.23712541818E+02  0.47787259159E+02  0.19999945808E+02 0.  0.
         12    1    1    2    0    0 -0.27718266229E+02  0.23516746871E+02 -0.23712541818E+02  0.43400740841E+02  0.00000000000E+00 0. -1.
         11    1    3    3    0    0  0.11332500270E+02 -0.75318528330E+00  0.81923310906E+01  0.14003825884E+02  0.51100000000E-03 0.  1.
        -11    1    3    3    0    0  0.33818566820E+01 -0.10810698009E+02  0.19145146392E+01  0.11487972520E+02  0.51100000000E-03 0. -1.
         12    1    3    3    0    0  0.13003909277E+02 -0.11952863578E+02  0.13605696088E+02  0.22295460754E+02  0.00000000000E+00 0. -1.
</event>
<event>
 7    1  0.2812635E-010  0.4778727E+02  0.7816164E-02  0.1312668E+00
        -11   -1    0    0    0    0  0.00000000000E+00  0.00000000000E+00  0.45593999997E+02  0.45594000000E+02  0.51100000000E-03 0.  1.
         11   -1    0    0    0    0 -0.00000000000E+00 -0.00000000000E+00 -0.45593999997E+02  0.45594000000E+02  0.51100000000E-03 0. -1.
    9900012    2    1    2    0    0  0.35784560123E+02  0.22001989261E+02  0.10908758054E+02  0.47787271009E+02  0.19999999839E+02 0.  0.
         12    1    1    2    0    0 -0.35784560123E+02 -0.22001989261E+02 -0.10908758054E+02  0.43400728991E+02  0.00000000000E+00 0. -1.
         11    1    3    3    0    0  0.29147148823E+01 -0.15044355769E+01 -0.24663369735E+01  0.41038649561E+01  0.51100000000E-03 0. -1.
        -11    1    3    3    0    0  0.30294255478E+02  0.22388497413E+02  0.14875140414E+02  0.40500080666E+02  0.51100000000E-03 0.  1.
        -12    1    3    3    0    0  0.25755897632E+01  0.11179274250E+01 -0.15000453869E+01  0.31833253869E+01  0.00000000000E+00 0.  1.
</event>
<event>
 7    1  0.2812635E-010  0.4778725E+02  0.7816164E-02  0.1312668E+00
        -11   -1    0    0    0    0  0.00000000000E+00  0.00000000000E+00  0.45593999997E+02  0.45594000000E+02  0.51100000000E-03 0.  1.
         11   -1    0    0    0    0 -0.00000000000E+00 -0.00000000000E+00 -0.45593999997E+02  0.45594000000E+02  0.51100000000E-03 0. -1.
    9900012    2    1    2    0    0 -0.18874662739E+02  0.78513236449E+01  0.38284842722E+02  0.47787247025E+02  0.19999890487E+02 0.  0.
         12    1    1    2    0    0  0.18874662739E+02 -0.78513236449E+01 -0.38284842722E+02  0.43400752975E+02  0.00000000000E+00 0. -1.
         11    1    3    3    0    0 -0.14934322449E+02  0.30857806180E+01  0.12888617653E+02  0.19966784776E+02  0.51100000000E-03 0. -1.
        -11    1    3    3    0    0 -0.52058403201E+01  0.43388658757E+01  0.84970374889E+01  0.10868586701E+02  0.51100000000E-03 0.  1.
         12    1    3    3    0    0  0.12655000303E+01  0.42667715119E+00  0.16899187581E+02  0.16951875548E+02  0.00000000000E+00 0. -1.
</event>
<event>
 7    1  0.2812635E-010  0.4778726E+02  0.7816164E-02  0.1312668E+00
        -11   -1    0    0    0    0  0.00000000000E+00  0.00000000000E+00  0.45593999997E+02  0.45594000000E+02  0.51100000000E-03 0.  1.
         11   -1    0    0    0    0 -0.00000000000E+00 -0.00000000000E+00 -0.45593999997E+02  0.45594000000E+02  0.51100000000E-03 0. -1.
    9900012    2    1    2    0    0  0.24952567078E+02 -0.46433585029E+01  0.35205581515E+02  0.47787258626E+02  0.19999943381E+02 0.  0.
         12    1    1    2    0    0 -0.24952567078E+02  0.46433585029E+01 -0.35205581515E+02  0.43400741374E+02  0.00000000000E+00 0. -1.
         11    1    3    3    0    0  0.37279205588E+01 -0.66050668160E+01  0.16001030543E+01  0.77514275706E+01  0.51100000000E-03 0. -1.
        -11    1    3    3    0    0  0.11685579968E+02 -0.11090717322E+01  0.17877446744E+02  0.21386582748E+02  0.51100000000E-03 0.  1.
         12    1    3    3    0    0  0.95390665515E+01  0.30707800453E+01  0.15728031716E+02  0.18649248307E+02  0.00000000000E+00 0. -1.
</event>
<event>
 7    1  0.2812635E-010  0.4778727E+02  0.7816164E-02  0.1312668E+00
        -11   -1    0    0    0    0  0.00000000000E+00  0.00000000000E+00  0.45593999997E+02  0.45594000000E+02  0.51100000000E-03 0. -1.
         11   -1    0    0    0    0 -0.00000000000E+00 -0.00000000000E+00 -0.45593999997E+02  0.45594000000E+02  0.51100000000E-03 0.  1.
    9900012    2    1    2    0    0  0.31273275191E+02  0.22369383655E+02 -0.20129978904E+02  0.47787272852E+02  0.20000008243E+02 0.  0.
         12    1    1    2    0    0 -0.31273275191E+02 -0.22369383655E+02  0.20129978904E+02  0.43400727148E+02  0.00000000000E+00 0. -1.
         11    1    3    3    0    0 -0.18166297920E+00 -0.87843923395E+00 -0.38924438978E+00  0.97783862771E+00  0.51100000000E-03 0. -1.
        -11    1    3    3    0    0  0.26762432770E+01  0.47646426971E+01  0.25018240336E+01  0.60102597170E+01  0.51100000000E-03 0.  1.
        -12    1    3    3    0    0  0.28778694893E+02  0.18483180192E+02 -0.22242558548E+02  0.40799174508E+02  0.00000000000E+00 0.  1.
</event>
<event>
 7    1  0.2812635E-010  0.4778725E+02  0.7816164E-02  0.1312668E+00
        -11   -1    0    0    0    0  0.00000000000E+00  0.00000000000E+00  0.45593999997E+02  0.45594000000E+02  0.51100000000E-03 0. -1.
         11   -1    0    0    0    0 -0.00000000000E+00 -0.00000000000E+00 -0.45593999997E+02  0.45594000000E+02  0.51100000000E-03 0.  1.
    9900012    2    1    2    0    0  0.28001544472E+02 -0.82976618107E+01 -0.32104325854E+02  0.47787246287E+02  0.19999887119E+02 0.  0.
         12    1    1    2    0    0 -0.28001544472E+02  0.82976618107E+01  0.32104325854E+02  0.43400753713E+02  0.00000000000E+00 0. -1.
         11    1    3    3    0    0  0.44953769878E+01 -0.66066121774E+01 -0.56672649950E+01  0.97966132673E+01  0.51100000000E-03 0. -1.
        -11    1    3    3    0    0  0.22464990707E+02 -0.18030069610E+01 -0.16335119302E+02  0.27834560611E+02  0.51100000000E-03 0.  1.
        -12    1    3    3    0    0  0.10411767769E+01  0.11195732761E+00 -0.10101941558E+02  0.10156072408E+02  0.00000000000E+00 0.  1.
</event>
<event>
 7    1  0.2812635E-010  0.4778727E+02  0.7816164E-02  0.1312668E+00
        -11   -1    0    0    0    0  0.00000000000E+00  0.00000000000E+00  0.45593999997E+02  0.45594000000E+02  0.51100000000E-03 0. -1.
         11   -1    0    0    0    0 -0.00000000000E+00 -0.00000000000E+00 -0.45593999997E+02  0.45594000000E+02  0.51100000000E-03 0.  1.
    9900012    2    1    2    0    0 -0.87760600419E+01 -0.25601907217E+02 -0.33928547269E+02  0.47787271863E+02  0.20000003733E+02 0.  0.
         12    1    1    2    0    0  0.87760600419E+01  0.25601907217E+02  0.33928547269E+02  0.43400728137E+02  0.00000000000E+00 0. -1.
         11    1    3    3    0    0 -0.38768966564E+01 -0.18131632229E+02 -0.12498162291E+02  0.22360466808E+02  0.51100000000E-03 0.  1.
        -11    1    3    3    0    0 -0.62738008014E+01 -0.79262401055E+01 -0.21713377596E+02  0.23951129944E+02  0.51100000000E-03 0. -1.
         12    1    3    3    0    0  0.13746374159E+01  0.45596511675E+00  0.28299261782E+00  0.14756751114E+01  0.00000000000E+00 0. -1.
</event>
<event>
 7    1  0.2812635E-010  0.4778727E+02  0.7816164E-02  0.1312668E+00
        -11   -1    0    0    0    0  0.00000000000E+00  0.00000000000E+00  0.45593999997E+02  0.45594000000E+02  0.51100000000E-03 0. -1.
         11   -1    0    0    0    0 -0.00000000000E+00 -0.00000000000E+00 -0.45593999997E+02  0.45594000000E+02  0.51100000000E-03 0.  1.
    9900012    2    1    2    0    0  0.30276701445E+02 -0.30820468556E+02 -0.41283379748E+01  0.47787272969E+02  0.20000008773E+02 0.  0.
         12    1    1    2    0    0 -0.30276701445E+02  0.30820468556E+02  0.41283379748E+01  0.43400727031E+02  0.00000000000E+00 0. -1.
         11    1    3    3    0    0  0.29535639476E+01 -0.77648532040E+01  0.53495311657E+01  0.98809902958E+01  0.51100000000E-03 0. -1.
        -11    1    3    3    0    0  0.17665594166E+02 -0.18412749015E+02 -0.38590263514E+01  0.25806871724E+02  0.51100000000E-03 0.  1.
         12    1    3    3    0    0  0.96575433314E+01 -0.46428663370E+01 -0.56188427891E+01  0.12099410949E+02  0.00000000000E+00 0. -1.
</event>
<event>
 7    1  0.2812635E-010  0.4778727E+02  0.7816164E-02  0.1312668E+00
        -11   -1    0    0    0    0  0.00000000000E+00  0.00000000000E+00  0.45593999997E+02  0.45594000000E+02  0.51100000000E-03 0.  1.
         11   -1    0    0    0    0 -0.00000000000E+00 -0.00000000000E+00 -0.45593999997E+02  0.45594000000E+02  0.51100000000E-03 0. -1.
    9900012    2    1    2    0    0  0.46677825029E+01  0.85652410493E+01  0.42290326699E+02  0.47787270974E+02  0.19999999678E+02 0.  0.
         12    1    1    2    0    0 -0.46677825029E+01 -0.85652410493E+01 -0.42290326699E+02  0.43400729026E+02  0.00000000000E+00 0. -1.
         11    1    3    3    0    0 -0.34670433010E+01  0.50151955782E+01  0.25994073843E+01  0.66279329319E+01  0.51100000000E-03 0. -1.
        -11    1    3    3    0    0  0.51510504802E+01 -0.11669017014E+01  0.20899618351E+02  0.21556646959E+02  0.51100000000E-03 0.  1.
         12    1    3    3    0    0  0.29837753237E+01  0.47169471725E+01  0.18791300963E+02  0.19602691083E+02  0.00000000000E+00 0. -1.
</event>
<event>
 7    1  0.2812635E-010  0.4778727E+02  0.7816164E-02  0.1312668E+00
        -11   -1    0    0    0    0  0.00000000000E+00  0.00000000000E+00  0.45593999997E+02  0.45594000000E+02  0.51100000000E-03 0. -1.
         11   -1    0    0    0    0 -0.00000000000E+00 -0.00000000000E+00 -0.45593999997E+02  0.45594000000E+02  0.51100000000E-03 0.  1.
    9900012    2    1    2    0    0 -0.30949086011E+02 -0.29186648537E+02 -0.85974948482E+01  0.47787270797E+02  0.19999998871E+02 0.  0.
         12    1    1    2    0    0  0.30949086011E+02  0.29186648537E+02  0.85974948482E+01  0.43400729203E+02  0.00000000000E+00 0. -1.
         11    1    3    3    0    0 -0.17828771395E+02 -0.12144485309E+02 -0.12346821538E+02  0.24855534901E+02  0.51100000000E-03 0.  1.
        -11    1    3    3    0    0 -0.20895946136E+01  0.80598472991E-01 -0.44043836400E+00  0.21370278371E+01  0.51100000000E-03 0. -1.
         12    1    3    3    0    0 -0.11030720003E+02 -0.17122761701E+02  0.41897650538E+01  0.20794708059E+02  0.00000000000E+00 0. -1.
</event>
<event>
 7    1  0.2812635E-010  0.4778727E+02  0.7816164E-02  0.1312668E+00
        -11   -1    0    0    0    0  0.00000000000E+00  0.00000000000E+00  0.45593999997E+02  0.45594000000E+02  0.51100000000E-03 0. -1.
         11   -1    0    0    0    0 -0.00000000000E+00 -0.00000000000E+00 -0.45593999997E+02  0.45594000000E+02  0.51100000000E-03 0.  1.
    9900012    2    1    2    0    0 -0.11846230154E+02 -0.17172800135E+02 -0.38057657623E+02  0.47787268012E+02  0.19999986172E+02 0.  0.
         12    1    1    2    0    0  0.11846230154E+02  0.17172800135E+02  0.38057657623E+02  0.43400731988E+02  0.00000000000E+00 0. -1.
         11    1    3    3    0    0 -0.67516235213E+00  0.15362549688E+01 -0.44008362906E+01  0.47099133589E+01  0.51100000000E-03 0. -1.
        -11    1    3    3    0    0 -0.94926014906E+01 -0.55795547029E+01 -0.62981023217E+01  0.12684912568E+02  0.51100000000E-03 0.  1.
        -12    1    3    3    0    0 -0.16784663109E+01 -0.13129500401E+02 -0.27358719011E+02  0.30392442085E+02  0.00000000000E+00 0.  1.
</event>
<event>
 7    1  0.2812635E-010  0.4778728E+02  0.7816164E-02  0.1312668E+00
        -11   -1    0    0    0    0  0.00000000000E+00  0.00000000000E+00  0.45593999997E+02  0.45594000000E+02  0.51100000000E-03 0. -1.
         11   -1    0    0    0    0 -0.00000000000E+00 -0.00000000000E+00 -0.45593999997E+02  0.45594000000E+02  0.51100000000E-03 0.  1.
    9900012    2    1    2    0    0 -0.14690239078E+02 -0.25289057836E+02 -0.32066851642E+02  0.47787279446E+02  0.20000038304E+02 0.  0.
         12    1    1    2    0    0  0.14690239078E+02  0.25289057836E+02  0.32066851642E+02  0.43400720554E+02  0.00000000000E+00 0. -1.
         11    1    3    3    0    0 -0.17099417350E+02 -0.16144151952E+02 -0.14631370904E+02  0.27696583376E+02  0.51100000000E-03 0. -1.
        -11    1    3    3    0    0  0.82145081459E+00 -0.78381843644E+01 -0.14552133064E+02  0.16549214257E+02  0.51100000000E-03 0.  1.
         12    1    3    3    0    0  0.15877274575E+01 -0.13067215203E+01 -0.28833476743E+01  0.35414818116E+01  0.00000000000E+00 0. -1.
</event>
<event>
 7    1  0.2812635E-010  0.4778727E+02  0.7816164E-02  0.1312668E+00
        -11   -1    0    0    0    0  0.00000000000E+00  0.00000000000E+00  0.45593999997E+02  0.45594000000E+02  0.51100000000E-03 0.  1.
         11   -1    0    0    0    0 -0.00000000000E+00 -0.00000000000E+00 -0.45593999997E+02  0.45594000000E+02  0.51100000000E-03 0. -1.
    9900012    2    1    2    0    0 -0.30142235130E+02  0.27007748130E+02  0.15673247665E+02  0.47787268554E+02  0.19999988644E+02 0.  0.
         12    1    1    2    0    0  0.30142235130E+02 -0.27007748130E+02 -0.15673247665E+02  0.43400731446E+02  0.00000000000E+00 0. -1.
         11    1    3    3    0    0 -0.46022788931E+01  0.90889380668E+01  0.91721431774E+01  0.13708317800E+02  0.51100000000E-03 0. -1.
        -11    1    3    3    0    0 -0.25340665800E+02  0.16384319832E+02  0.30907172171E+01  0.30333938299E+02  0.51100000000E-03 0.  1.
         12    1    3    3    0    0 -0.19929043761E+00  0.15344902304E+01  0.34103872709E+01  0.37450124544E+01  0.00000000000E+00 0. -1.
</event>
<event>
 7    1  0.2812635E-010  0.4778724E+02  0.7816164E-02  0.1312668E+00
        -11   -1    0    0    0    0  0.00000000000E+00  0.00000000000E+00  0.45593999997E+02  0.45594000000E+02  0.51100000000E-03 0.  1.
         11   -1    0    0    0    0 -0.00000000000E+00 -0.00000000000E+00 -0.45593999997E+02  0.45594000000E+02  0.51100000000E-03 0. -1.
    9900012    2    1    2    0    0  0.30207852466E+02  0.48316406174E-01  0.31162626674E+02  0.47787239796E+02  0.19999857524E+02 0.  0.
         12    1    1    2    0    0 -0.30207852466E+02 -0.48316406174E-01 -0.31162626674E+02  0.43400760204E+02  0.00000000000E+00 0. -1.
         11    1    3    3    0    0  0.14091373148E+02  0.79958012744E+01  0.15026648681E+02  0.22097506784E+02  0.51100000000E-03 0. -1.
        -11    1    3    3    0    0  0.10271215333E+02 -0.84741061167E+01  0.14301525783E+02  0.19540777335E+02  0.51100000000E-03 0.  1.
        -12    1    3    3    0    0  0.58452639859E+01  0.52662124847E+00  0.18344522096E+01  0.61489556767E+01  0.00000000000E+00 0.  1.
</event>
<event>
 7    1  0.2812635E-010  0.4778724E+02  0.7816164E-02  0.1312668E+00
        -11   -1    0    0    0    0  0.00000000000E+00  0.00000000000E+00  0.45593999997E+02  0.45594000000E+02  0.51100000000E-03 0. -1.
         11   -1    0    0    0    0 -0.00000000000E+00 -0.00000000000E+00 -0.45593999997E+02  0.45594000000E+02  0.51100000000E-03 0.  1.
    9900012    2    1    2    0    0 -0.33679462317E+02 -0.19505125141E+02  0.19205974565E+02  0.47787244849E+02  0.19999880564E+02 0.  0.
         12    1    1    2    0    0  0.33679462317E+02  0.19505125141E+02 -0.19205974565E+02  0.43400755151E+02  0.00000000000E+00 0. -1.
         11    1    3    3    0    0 -0.17463842439E+01 -0.35978663298E+01  0.52782148516E+01  0.66222392236E+01  0.51100000000E-03 0. -1.
        -11    1    3    3    0    0 -0.26125848925E+02 -0.13594082906E+02  0.17203766746E+02  0.34107604175E+02  0.51100000000E-03 0.  1.
        -12    1    3    3    0    0 -0.58072291479E+01 -0.23131759056E+01 -0.32760070327E+01  0.70574014499E+01  0.00000000000E+00 0.  1.
</event>
<event>
 7    1  0.2812635E-010  0.4778727E+02  0.7816164E-02  0.1312668E+00
        -11   -1    0    0    0    0  0.00000000000E+00  0.00000000000E+00  0.45593999997E+02  0.45594000000E+02  0.51100000000E-03 0.  1.
         11   -1    0    0    0    0 -0.00000000000E+00 -0.00000000000E+00 -0.45593999997E+02  0.45594000000E+02  0.51100000000E-03 0. -1.
    9900012    2    1    2    0    0 -0.31850406221E+02 -0.12253504474E+02  0.26814671692E+02  0.47787269980E+02  0.19999995146E+02 0.  0.
         12    1    1    2    0    0  0.31850406221E+02  0.12253504474E+02 -0.26814671692E+02  0.43400730020E+02  0.00000000000E+00 0. -1.
         11    1    3    3    0    0 -0.13077354824E+02  0.96232485009E+00  0.18883105825E+02  0.22989453325E+02  0.51100000000E-03 0. -1.
        -11    1    3    3    0    0 -0.14910892423E+02 -0.11906302435E+02  0.80693438999E+01  0.20717361361E+02  0.51100000000E-03 0.  1.
         12    1    3    3    0    0 -0.38621589750E+01 -0.13095268894E+01 -0.13777803383E+00  0.40804552943E+01  0.00000000000E+00 0. -1.
</event>
<event>
 7    1  0.2812635E-010  0.4778727E+02  0.7816164E-02  0.1312668E+00
        -11   -1    0    0    0    0  0.00000000000E+00  0.00000000000E+00  0.45593999997E+02  0.45594000000E+02  0.51100000000E-03 0.  1.
         11   -1    0    0    0    0 -0.00000000000E+00 -0.00000000000E+00 -0.45593999997E+02  0.45594000000E+02  0.51100000000E-03 0. -1.
    9900012    2    1    2    0    0 -0.39919294503E+02  0.15838796315E+02  0.62614572473E+01  0.47787269716E+02  0.19999993943E+02 0.  0.
         12    1    1    2    0    0  0.39919294503E+02 -0.15838796315E+02 -0.62614572473E+01  0.43400730284E+02  0.00000000000E+00 0. -1.
         11    1    3    3    0    0 -0.65631384474E+01  0.73334723454E+01 -0.34461587382E+01  0.10427397241E+02  0.51100000000E-03 0. -1.
        -11    1    3    3    0    0 -0.22949127566E+02  0.92777818006E+01  0.10512223528E+02  0.26893243295E+02  0.51100000000E-03 0.  1.
         12    1    3    3    0    0 -0.10407028490E+02 -0.77245783089E+00 -0.80460754210E+00  0.10466629180E+02  0.00000000000E+00 0. -1.
</event>
<event>
 7    1  0.2812635E-010  0.4778727E+02  0.7816164E-02  0.1312668E+00
        -11   -1    0    0    0    0  0.00000000000E+00  0.00000000000E+00  0.45593999997E+02  0.45594000000E+02  0.51100000000E-03 0. -1.
         11   -1    0    0    0    0 -0.00000000000E+00 -0.00000000000E+00 -0.45593999997E+02  0.45594000000E+02  0.51100000000E-03 0.  1.
    9900012    2    1    2    0    0 -0.33335192719E+02 -0.27410398237E+02 -0.45888918394E+01  0.47787274967E+02  0.20000017883E+02 0.  0.
         12    1    1    2    0    0  0.33335192719E+02  0.27410398237E+02  0.45888918394E+01  0.43400725033E+02  0.00000000000E+00 0. -1.
         11    1    3    3    0    0 -0.14578579546E+02 -0.15749595023E+02 -0.97813666330E+01  0.23585161828E+02  0.51100000000E-03 0. -1.
        -11    1    3    3    0    0 -0.14824009798E+02 -0.48012284207E+01  0.21487097551E+01  0.15729590418E+02  0.51100000000E-03 0.  1.
         12    1    3    3    0    0 -0.39326033740E+01 -0.68595747930E+01  0.30437650385E+01  0.84725227204E+01  0.00000000000E+00 0. -1.
</event>
<event>
 7    1  0.2812635E-010  0.4778726E+02  0.7816164E-02  0.1312668E+00
        -11   -1    0    0    0    0  0.00000000000E+00  0.00000000000E+00  0.45593999997E+02  0.45594000000E+02  0.51100000000E-03 0. -1.
         11   -1    0    0    0    0 -0.00000000000E+00 -0.00000000000E+00 -0.45593999997E+02  0.45594000000E+02  0.51100000000E-03 0.  1.
    9900012    2    1    2    0    0 -0.75736101252E+01  0.18855058717E+02 -0.38350372409E+02  0.47787264137E+02  0.19999968507E+02 0.  0.
         12    1    1    2    0    0  0.75736101252E+01 -0.18855058717E+02  0.38350372409E+02  0.43400735863E+02  0.00000000000E+00 0. -1.
         11    1    3    3    0    0 -0.35853295324E+01  0.16459218658E+02 -0.17012495098E+02  0.23941291870E+02  0.51100000000E-03 0.  1.
        -11    1    3    3    0    0 -0.19521613274E+01 -0.34509038193E+01 -0.50454156126E+01  0.64168442387E+01  0.51100000000E-03 0. -1.
         12    1    3    3    0    0 -0.20361192653E+01  0.58467438781E+01 -0.16292461699E+02  0.17429128029E+02  0.00000000000E+00 0. -1.
</event>
<event>
 7    1  0.2812635E-010  0.4778727E+02  0.7816164E-02  0.1312668E+00
        -11   -1    0    0    0    0  0.00000000000E+00  0.00000000000E+00  0.45593999997E+02  0.45594000000E+02  0.51100000000E-03 0. -1.
         11   -1    0    0    0    0 -0.00000000000E+00 -0.00000000000E+00 -0.45593999997E+02  0.45594000000E+02  0.51100000000E-03 0.  1.
    9900012    2    1    2    0    0  0.20996031077E+02 -0.51947194351E+01 -0.37627181231E+02  0.47787271914E+02  0.20000003966E+02 0.  0.
         12    1    1    2    0    0 -0.20996031077E+02  0.51947194351E+01  0.37627181231E+02  0.43400728086E+02  0.00000000000E+00 0. -1.
         11    1    3    3    0    0  0.12400557326E+00 -0.47759800213E+01 -0.13958246530E+02  0.14753237238E+02  0.51100000000E-03 0. -1.
        -11    1    3    3    0    0  0.79272748452E+01 -0.36335422532E+01 -0.14246766075E+02  0.16703731907E+02  0.51100000000E-03 0.  1.
         12    1    3    3    0    0  0.12944750658E+02  0.32148028394E+01 -0.94221686257E+01  0.16330302769E+02  0.00000000000E+00 0. -1.
</event>
<event>
 7    1  0.2812635E-010  0.4778727E+02  0.7816164E-02  0.1312668E+00
        -11   -1    0    0    0    0  0.00000000000E+00  0.00000000000E+00  0.45593999997E+02  0.45594000000E+02  0.51100000000E-03 0. -1.
         11   -1    0    0    0    0 -0.00000000000E+00 -0.00000000000E+00 -0.45593999997E+02  0.45594000000E+02  0.51100000000E-03 0.  1.
    9900012    2    1    2    0    0  0.47370810515E+01  0.24325633176E+02 -0.35629295828E+02  0.47787273191E+02  0.20000009789E+02 0.  0.
         12    1    1    2    0    0 -0.47370810515E+01 -0.24325633176E+02  0.35629295828E+02  0.43400726809E+02  0.00000000000E+00 0. -1.
         11    1    3    3    0    0 -0.86703537879E+00  0.19567181141E+02 -0.26483169605E+02  0.32939104431E+02  0.51100000000E-03 0. -1.
        -11    1    3    3    0    0  0.42338961396E+01  0.72955456060E+01 -0.83218133391E+01  0.11849195742E+02  0.51100000000E-03 0.  1.
         12    1    3    3    0    0  0.13702202907E+01 -0.25370935715E+01 -0.82431288454E+00  0.29989730187E+01  0.00000000000E+00 0. -1.
</event>
<event>
 7    1  0.2812635E-010  0.4778727E+02  0.7816164E-02  0.1312668E+00
        -11   -1    0    0    0    0  0.00000000000E+00  0.00000000000E+00  0.45593999997E+02  0.45594000000E+02  0.51100000000E-03 0.  1.
         11   -1    0    0    0    0 -0.00000000000E+00 -0.00000000000E+00 -0.45593999997E+02  0.45594000000E+02  0.51100000000E-03 0. -1.
    9900012    2    1    2    0    0 -0.29924461316E+02 -0.30004412035E+02  0.93747182954E+01  0.47787268789E+02  0.19999989714E+02 0.  0.
         12    1    1    2    0    0  0.29924461316E+02  0.30004412035E+02 -0.93747182954E+01  0.43400731211E+02  0.00000000000E+00 0. -1.
         11    1    3    3    0    0 -0.77856907198E+00 -0.49860407673E+01 -0.33986856064E+01  0.60842285004E+01  0.51100000000E-03 0. -1.
        -11    1    3    3    0    0 -0.25453641396E+02 -0.22370403701E+02  0.14478030059E+02  0.36850185573E+02  0.51100000000E-03 0.  1.
        -12    1    3    3    0    0 -0.36922508473E+01 -0.26479675660E+01 -0.17046261576E+01  0.48528547152E+01  0.00000000000E+00 0.  1.
</event>
<event>
 7    1  0.2812635E-010  0.4778727E+02  0.7816164E-02  0.1312668E+00
        -11   -1    0    0    0    0  0.00000000000E+00  0.00000000000E+00  0.45593999997E+02  0.45594000000E+02  0.51100000000E-03 0.  1.
         11   -1    0    0    0    0 -0.00000000000E+00 -0.00000000000E+00 -0.45593999997E+02  0.45594000000E+02  0.51100000000E-03 0. -1.
    9900012    2    1    2    0    0  0.25667006536E+02 -0.28282972977E+02  0.20613141928E+02  0.47787269533E+02  0.19999993110E+02 0.  0.
         12    1    1    2    0    0 -0.25667006536E+02  0.28282972977E+02 -0.20613141928E+02  0.43400730467E+02  0.00000000000E+00 0. -1.
         11    1    3    3    0    0  0.33276618060E+01 -0.15228007747E+01  0.91819040468E+01  0.98843116847E+01  0.51100000000E-03 0. -1.
        -11    1    3    3    0    0  0.78664641967E+01 -0.85121313201E+01 -0.75853711825E+00  0.11615206300E+02  0.51100000000E-03 0.  1.
        -12    1    3    3    0    0  0.14472880533E+02 -0.18248040882E+02  0.12189774999E+02  0.26287751549E+02  0.00000000000E+00 0.  1.
</event>
<event>
 7    1  0.2812635E-010  0.4778728E+02  0.7816164E-02  0.1312668E+00
        -11   -1    0    0    0    0  0.00000000000E+00  0.00000000000E+00  0.45593999997E+02  0.45594000000E+02  0.51100000000E-03 0.  1.
         11   -1    0    0    0    0 -0.00000000000E+00 -0.00000000000E+00 -0.45593999997E+02  0.45594000000E+02  0.51100000000E-03 0. -1.
    9900012    2    1    2    0    0  0.67703752673E+01 -0.35712427565E+02  0.23715128595E+02  0.47787276641E+02  0.20000025516E+02 0.  0.
         12    1    1    2    0    0 -0.67703752673E+01  0.35712427565E+02 -0.23715128595E+02  0.43400723359E+02  0.00000000000E+00 0. -1.
         11    1    3    3    0    0  0.18892290538E+01 -0.50766725464E+01  0.12592903538E+02  0.13708501390E+02  0.51100000000E-03 0. -1.
        -11    1    3    3    0    0  0.37102792140E+01 -0.81422655184E+01 -0.23967573887E-01  0.89478061179E+01  0.51100000000E-03 0.  1.
         12    1    3    3    0    0  0.11708669995E+01 -0.22493489500E+02  0.11146192631E+02  0.25130969133E+02  0.00000000000E+00 0. -1.
</event>
<event>
 7    1  0.2812635E-010  0.4778727E+02  0.7816164E-02  0.1312668E+00
        -11   -1    0    0    0    0  0.00000000000E+00  0.00000000000E+00  0.45593999997E+02  0.45594000000E+02  0.51100000000E-03 0.  1.
         11   -1    0    0    0    0 -0.00000000000E+00 -0.00000000000E+00 -0.45593999997E+02  0.45594000000E+02  0.51100000000E-03 0. -1.
    9900012    2    1    2    0    0 -0.22768003675E+02  0.36520687515E+02  0.56107915007E+01  0.47787267412E+02  0.19999983439E+02 0.  0.
         12    1    1    2    0    0  0.22768003675E+02 -0.36520687515E+02 -0.56107915007E+01  0.43400732588E+02  0.00000000000E+00 0. -1.
         11    1    3    3    0    0 -0.76497192003E+01  0.77132447559E+01  0.87820979753E+01  0.13969165817E+02  0.51100000000E-03 0.  1.
        -11    1    3    3    0    0 -0.10611587613E+02  0.25933096521E+02 -0.96913921508E+00  0.28036949155E+02  0.51100000000E-03 0. -1.
         12    1    3    3    0    0 -0.45066968620E+01  0.28743462373E+01 -0.22021672595E+01  0.57811524402E+01  0.00000000000E+00 0. -1.
</event>
<event>
 7    1  0.2812635E-010  0.4778727E+02  0.7816164E-02  0.1312668E+00
        -11   -1    0    0    0    0  0.00000000000E+00  0.00000000000E+00  0.45593999997E+02  0.45594000000E+02  0.51100000000E-03 0.  1.
         11   -1    0    0    0    0 -0.00000000000E+00 -0.00000000000E+00 -0.45593999997E+02  0.45594000000E+02  0.51100000000E-03 0. -1.
    9900012    2    1    2    0    0  0.11049727795E+02  0.37280108781E+02  0.19280048749E+02  0.47787271034E+02  0.19999999951E+02 0.  0.
         12    1    1    2    0    0 -0.11049727795E+02 -0.37280108781E+02 -0.19280048749E+02  0.43400728966E+02  0.00000000000E+00 0. -1.
         11    1    3    3    0    0 -0.39853145438E+01  0.21607456853E+01  0.16715941585E+00  0.45364629901E+01  0.51100000000E-03 0. -1.
        -11    1    3    3    0    0  0.22779020885E+01  0.18000206028E+01  0.27520146031E+01  0.40003120793E+01  0.51100000000E-03 0.  1.
         12    1    3    3    0    0  0.12757140250E+02  0.33319342493E+02  0.16360874730E+02  0.39250495964E+02  0.00000000000E+00 0. -1.
</event>
<event>
 7    1  0.2812635E-010  0.4778727E+02  0.7816164E-02  0.1312668E+00
        -11   -1    0    0    0    0  0.00000000000E+00  0.00000000000E+00  0.45593999997E+02  0.45594000000E+02  0.51100000000E-03 0.  1.
         11   -1    0    0    0    0 -0.00000000000E+00 -0.00000000000E+00 -0.45593999997E+02  0.45594000000E+02  0.51100000000E-03 0. -1.
    9900012    2    1    2    0    0  0.20370837145E+02  0.36636279181E+02  0.11244356401E+02  0.47787268335E+02  0.19999987645E+02 0.  0.
         12    1    1    2    0    0 -0.20370837145E+02 -0.36636279181E+02 -0.11244356401E+02  0.43400731665E+02  0.00000000000E+00 0. -1.
         11    1    3    3    0    0  0.10621612067E+02  0.22701833954E+02  0.53876901064E+01  0.25636285080E+02  0.51100000000E-03 0. -1.
        -11    1    3    3    0    0  0.54043430444E+01  0.30103528714E+01 -0.35160845401E+01  0.71156165514E+01  0.51100000000E-03 0.  1.
        -12    1    3    3    0    0  0.43448820339E+01  0.10924092355E+02  0.93727508351E+01  0.15035366703E+02  0.00000000000E+00 0.  1.
</event>
<event>
 7    1  0.2812635E-010  0.4778728E+02  0.7816164E-02  0.1312668E+00
        -11   -1    0    0    0    0  0.00000000000E+00  0.00000000000E+00  0.45593999997E+02  0.45594000000E+02  0.51100000000E-03 0. -1.
         11   -1    0    0    0    0 -0.00000000000E+00 -0.00000000000E+00 -0.45593999997E+02  0.45594000000E+02  0.51100000000E-03 0.  1.
    9900012    2    1    2    0    0 -0.16497680707E+02  0.20294730379E+02 -0.34634856496E+02  0.47787276108E+02  0.20000023085E+02 0.  0.
         12    1    1    2    0    0  0.16497680707E+02 -0.20294730379E+02  0.34634856496E+02  0.43400723892E+02  0.00000000000E+00 0. -1.
         11    1    3    3    0    0 -0.35294597683E+01 -0.31164078194E+00  0.11010599311E+01  0.37103287544E+01  0.51100000000E-03 0. -1.
        -11    1    3    3    0    0 -0.66108597004E+01  0.33962224763E+01 -0.94811180715E+01  0.12046966142E+02  0.51100000000E-03 0.  1.
         12    1    3    3    0    0 -0.63573612384E+01  0.17210148684E+02 -0.26254798356E+02  0.32029981211E+02  0.00000000000E+00 0. -1.
</event>
<event>
 7    1  0.2812635E-010  0.4778727E+02  0.7816164E-02  0.1312668E+00
        -11   -1    0    0    0    0  0.00000000000E+00  0.00000000000E+00  0.45593999997E+02  0.45594000000E+02  0.51100000000E-03 0.  1.
         11   -1    0    0    0    0 -0.00000000000E+00 -0.00000000000E+00 -0.45593999997E+02  0.45594000000E+02  0.51100000000E-03 0. -1.
    9900012    2    1    2    0    0  0.21583213352E+02 -0.15339695570E+02  0.34387238102E+02  0.47787268404E+02  0.19999987962E+02 0.  0.
         12    1    1    2    0    0 -0.21583213352E+02  0.15339695570E+02 -0.34387238102E+02  0.43400731596E+02  0.00000000000E+00 0. -1.
         11    1    3    3    0    0 -0.10580577418E+01 -0.10926514916E+01 -0.67647398435E+00  0.16646293220E+01  0.51100000000E-03 0. -1.
        -11    1    3    3    0    0  0.22192270435E+02 -0.78409379371E+01  0.27186793250E+02  0.35959684401E+02  0.51100000000E-03 0.  1.
        -12    1    3    3    0    0  0.44900065878E+00 -0.64061061408E+01  0.78769188372E+01  0.10162954681E+02  0.00000000000E+00 0.  1.
</event>
<event>
 7    1  0.2812635E-010  0.4778727E+02  0.7816164E-02  0.1312668E+00
        -11   -1    0    0    0    0  0.00000000000E+00  0.00000000000E+00  0.45593999997E+02  0.45594000000E+02  0.51100000000E-03 0. -1.
         11   -1    0    0    0    0 -0.00000000000E+00 -0.00000000000E+00 -0.45593999997E+02  0.45594000000E+02  0.51100000000E-03 0.  1.
    9900012    2    1    2    0    0  0.36587723029E+01 -0.22646750174E+02 -0.36842385402E+02  0.47787271085E+02  0.20000000186E+02 0.  0.
         12    1    1    2    0    0 -0.36587723029E+01  0.22646750174E+02  0.36842385402E+02  0.43400728915E+02  0.00000000000E+00 0. -1.
         11    1    3    3    0    0 -0.24771518867E+01  0.18969606485E+01 -0.11543726875E+02  0.11957941779E+02  0.51100000000E-03 0. -1.
        -11    1    3    3    0    0  0.38766330855E+01 -0.15190233874E+02 -0.16969457778E+02  0.23102683540E+02  0.51100000000E-03 0.  1.
         12    1    3    3    0    0  0.22592911041E+01 -0.93534769485E+01 -0.83292007501E+01  0.12726645766E+02  0.00000000000E+00 0. -1.
</event>
<event>
 7    1  0.2812635E-010  0.4778731E+02  0.7816164E-02  0.1312668E+00
        -11   -1    0    0    0    0  0.00000000000E+00  0.00000000000E+00  0.45593999997E+02  0.45594000000E+02  0.51100000000E-03 0.  1.
         11   -1    0    0    0    0 -0.00000000000E+00 -0.00000000000E+00 -0.45593999997E+02  0.45594000000E+02  0.51100000000E-03 0. -1.
    9900012    2    1    2    0    0 -0.34433795364E+02 -0.23119614936E+02  0.12783483911E+02  0.47787305088E+02  0.20000155219E+02 0.  0.
         12    1    1    2    0    0  0.34433795364E+02  0.23119614936E+02 -0.12783483911E+02  0.43400694912E+02  0.00000000000E+00 0. -1.
         11    1    3    3    0    0 -0.51826048469E+01 -0.31463758178E+01 -0.39357208355E+01  0.72283450763E+01  0.51100000000E-03 0. -1.
        -11    1    3    3    0    0 -0.15915840231E+02 -0.12367975986E+02  0.14971292355E+02  0.25108173874E+02  0.51100000000E-03 0.  1.
        -12    1    3    3    0    0 -0.13335350286E+02 -0.76052631316E+01  0.17479123918E+01  0.15450786138E+02  0.00000000000E+00 0.  1.
</event>
<event>
 7    1  0.2812635E-010  0.4778727E+02  0.7816164E-02  0.1312668E+00
        -11   -1    0    0    0    0  0.00000000000E+00  0.00000000000E+00  0.45593999997E+02  0.45594000000E+02  0.51100000000E-03 0.  1.
         11   -1    0    0    0    0 -0.00000000000E+00 -0.00000000000E+00 -0.45593999997E+02  0.45594000000E+02  0.51100000000E-03 0. -1.
    9900012    2    1    2    0    0  0.34248578311E+02 -0.18787809323E+02  0.18912334425E+02  0.47787270872E+02  0.19999999212E+02 0.  0.
         12    1    1    2    0    0 -0.34248578311E+02  0.18787809323E+02 -0.18912334425E+02  0.43400729128E+02  0.00000000000E+00 0. -1.
         11    1    3    3    0    0  0.22431684100E+01 -0.58191112656E+01  0.34030495818E+01  0.71045483428E+01  0.51100000000E-03 0. -1.
        -11    1    3    3    0    0  0.23106498684E+02 -0.22073410396E+01  0.66505345038E+01  0.24145646509E+02  0.51100000000E-03 0.  1.
        -12    1    3    3    0    0  0.88989112170E+01 -0.10761357018E+02  0.88587503397E+01  0.16537076020E+02  0.00000000000E+00 0.  1.
</event>
<event>
 7    1  0.2812635E-010  0.4778727E+02  0.7816164E-02  0.1312668E+00
        -11   -1    0    0    0    0  0.00000000000E+00  0.00000000000E+00  0.45593999997E+02  0.45594000000E+02  0.51100000000E-03 0. -1.
         11   -1    0    0    0    0 -0.00000000000E+00 -0.00000000000E+00 -0.45593999997E+02  0.45594000000E+02  0.51100000000E-03 0.  1.
    9900012    2    1    2    0    0 -0.43178698107E+01  0.33871045876E+02 -0.26790508528E+02  0.47787273098E+02  0.20000009362E+02 0.  0.
         12    1    1    2    0    0  0.43178698107E+01 -0.33871045876E+02  0.26790508528E+02  0.43400726902E+02  0.00000000000E+00 0. -1.
         11    1    3    3    0    0  0.49147169924E+01  0.73651425505E+01 -0.36577516701E+01  0.95801312855E+01  0.51100000000E-03 0. -1.
        -11    1    3    3    0    0 -0.79103241662E+01  0.26082901547E+02 -0.24205518216E+02  0.36452682945E+02  0.51100000000E-03 0.  1.
        -12    1    3    3    0    0 -0.13222626369E+01  0.42300177913E+00  0.10727613583E+01  0.17544588676E+01  0.00000000000E+00 0.  1.
</event>
<event>
 7    1  0.2812635E-010  0.4778727E+02  0.7816164E-02  0.1312668E+00
        -11   -1    0    0    0    0  0.00000000000E+00  0.00000000000E+00  0.45593999997E+02  0.45594000000E+02  0.51100000000E-03 0.  1.
         11   -1    0    0    0    0 -0.00000000000E+00 -0.00000000000E+00 -0.45593999997E+02  0.45594000000E+02  0.51100000000E-03 0. -1.
    9900012    2    1    2    0    0 -0.51484184476E+01 -0.41434152987E+02  0.11846009244E+02  0.47787272111E+02  0.20000004863E+02 0.  0.
         12    1    1    2    0    0  0.51484184476E+01  0.41434152987E+02 -0.11846009244E+02  0.43400727889E+02  0.00000000000E+00 0. -1.
         11    1    3    3    0    0 -0.95729500700E+01 -0.14009658380E+02  0.49921456791E+01  0.17687097549E+02  0.51100000000E-03 0. -1.
        -11    1    3    3    0    0 -0.21279782920E+01 -0.84984036445E+01  0.47394120459E+01  0.99605814548E+01  0.51100000000E-03 0.  1.
         12    1    3    3    0    0  0.65525099143E+01 -0.18926090962E+02  0.21144515195E+01  0.20139593107E+02  0.00000000000E+00 0. -1.
</event>
<event>
 7    1  0.2812635E-010  0.4778727E+02  0.7816164E-02  0.1312668E+00
        -11   -1    0    0    0    0  0.00000000000E+00  0.00000000000E+00  0.45593999997E+02  0.45594000000E+02  0.51100000000E-03 0.  1.
         11   -1    0    0    0    0 -0.00000000000E+00 -0.00000000000E+00 -0.45593999997E+02  0.45594000000E+02  0.51100000000E-03 0. -1.
    9900012    2    1    2    0    0  0.32194204764E+02 -0.36542204010E+01  0.28875653513E+02  0.47787268291E+02  0.19999987444E+02 0.  0.
         12    1    1    2    0    0 -0.32194204764E+02  0.36542204010E+01 -0.28875653513E+02  0.43400731709E+02  0.00000000000E+00 0. -1.
         11    1    3    3    0    0 -0.19541482141E+00 -0.42456180125E+01  0.50749056325E+01  0.66195261689E+01  0.51100000000E-03 0. -1.
        -11    1    3    3    0    0  0.16940302575E+02  0.29979039685E+01  0.81194815088E+01  0.19023334612E+02  0.51100000000E-03 0.  1.
         12    1    3    3    0    0  0.15449317011E+02 -0.24065063571E+01  0.15681266371E+02  0.22144407510E+02  0.00000000000E+00 0. -1.
</event>
<event>
 7    1  0.2812635E-010  0.4778728E+02  0.7816164E-02  0.1312668E+00
        -11   -1    0    0    0    0  0.00000000000E+00  0.00000000000E+00  0.45593999997E+02  0.45594000000E+02  0.51100000000E-03 0.  1.
         11   -1    0    0    0    0 -0.00000000000E+00 -0.00000000000E+00 -0.45593999997E+02  0.45594000000E+02  0.51100000000E-03 0. -1.
    9900012    2    1    2    0    0 -0.22382080033E+02 -0.23965743903E+02  0.28430763765E+02  0.47787277475E+02  0.20000029320E+02 0.  0.
         12    1    1    2    0    0  0.22382080033E+02  0.23965743903E+02 -0.28430763765E+02  0.43400722525E+02  0.00000000000E+00 0. -1.
         11    1    3    3    0    0 -0.14556523891E+02 -0.15207025679E+02  0.24120087951E+02  0.32014444565E+02  0.51100000000E-03 0. -1.
        -11    1    3    3    0    0 -0.55813785040E+00  0.23402742916E+00 -0.23517944678E+01  0.24284200990E+01  0.51100000000E-03 0.  1.
        -12    1    3    3    0    0 -0.72674182917E+01 -0.89927456534E+01  0.66624702813E+01  0.13344412811E+02  0.00000000000E+00 0.  1.
</event>
<event>
 7    1  0.2812635E-010  0.4778728E+02  0.7816164E-02  0.1312668E+00
        -11   -1    0    0    0    0  0.00000000000E+00  0.00000000000E+00  0.45593999997E+02  0.45594000000E+02  0.51100000000E-03 0.  1.
         11   -1    0    0    0    0 -0.00000000000E+00 -0.00000000000E+00 -0.45593999997E+02  0.45594000000E+02  0.51100000000E-03 0. -1.
    9900012    2    1    2    0    0  0.19083255746E+02 -0.10074268996E+02  0.37655827043E+02  0.47787275859E+02  0.20000021952E+02 0.  0.
         12    1    1    2    0    0 -0.19083255746E+02  0.10074268996E+02 -0.37655827043E+02  0.43400724141E+02  0.00000000000E+00 0. -1.
         11    1    3    3    0    0  0.20826612683E+01 -0.89948202496E+01  0.13273891650E+02  0.16169120850E+02  0.51100000000E-03 0. -1.
        -11    1    3    3    0    0  0.58340936536E+01 -0.52022978813E+01  0.66570457868E+01  0.10267268910E+02  0.51100000000E-03 0.  1.
         12    1    3    3    0    0  0.11166500825E+02  0.41228491347E+01  0.17724889606E+02  0.21350886099E+02  0.00000000000E+00 0. -1.
</event>
<event>
 7    1  0.2812635E-010  0.4778727E+02  0.7816164E-02  0.1312668E+00
        -11   -1    0    0    0    0  0.00000000000E+00  0.00000000000E+00  0.45593999997E+02  0.45594000000E+02  0.51100000000E-03 0.  1.
         11   -1    0    0    0    0 -0.00000000000E+00 -0.00000000000E+00 -0.45593999997E+02  0.45594000000E+02  0.51100000000E-03 0. -1.
    9900012    2    1    2    0    0  0.37361753483E+01  0.31370205010E+02  0.29758605515E+02  0.47787269928E+02  0.19999994910E+02 0.  0.
         12    1    1    2    0    0 -0.37361753483E+01 -0.31370205010E+02 -0.29758605515E+02  0.43400730072E+02  0.00000000000E+00 0. -1.
         11    1    3    3    0    0 -0.50827108420E+01  0.11221531337E+02  0.15820158917E+02  0.20050789098E+02  0.51100000000E-03 0. -1.
        -11    1    3    3    0    0  0.24823677648E+01  0.99470618573E+01  0.11636472110E+02  0.15508503240E+02  0.51100000000E-03 0.  1.
         12    1    3    3    0    0  0.63365184255E+01  0.10201611815E+02  0.23019744873E+01  0.12227977590E+02  0.00000000000E+00 0. -1.
</event>
<event>
 7    1  0.2812635E-010  0.4778726E+02  0.7816164E-02  0.1312668E+00
        -11   -1    0    0    0    0  0.00000000000E+00  0.00000000000E+00  0.45593999997E+02  0.45594000000E+02  0.51100000000E-03 0. -1.
         11   -1    0    0    0    0 -0.00000000000E+00 -0.00000000000E+00 -0.45593999997E+02  0.45594000000E+02  0.51100000000E-03 0.  1.
    9900012    2    1    2    0    0  0.38313251310E+02 -0.19578970035E+02 -0.56905657972E+01  0.47787264607E+02  0.19999970649E+02 0.  0.
         12    1    1    2    0    0 -0.38313251310E+02  0.19578970035E+02  0.56905657972E+01  0.43400735393E+02  0.00000000000E+00 0. -1.
         11    1    3    3    0    0  0.19372309245E+02 -0.93227108742E+01  0.68577033392E+01  0.22566067422E+02  0.51100000000E-03 0. -1.
        -11    1    3    3    0    0  0.11951261794E+02 -0.84099380582E+01 -0.77175748568E+01  0.16526363137E+02  0.51100000000E-03 0.  1.
         12    1    3    3    0    0  0.69896802706E+01 -0.18463211021E+01 -0.48306942796E+01  0.86948340479E+01  0.00000000000E+00 0. -1.
</event>
<event>
 7    1  0.2812635E-010  0.4778727E+02  0.7816164E-02  0.1312668E+00
        -11   -1    0    0    0    0  0.00000000000E+00  0.00000000000E+00  0.45593999997E+02  0.45594000000E+02  0.51100000000E-03 0.  1.
         11   -1    0    0    0    0 -0.00000000000E+00 -0.00000000000E+00 -0.45593999997E+02  0.45594000000E+02  0.51100000000E-03 0. -1.
    9900012    2    1    2    0    0  0.63388824580E+01  0.26334351011E+02  0.33910824725E+02  0.47787268353E+02  0.19999987729E+02 0.  0.
         12    1    1    2    0    0 -0.63388824580E+01 -0.26334351011E+02 -0.33910824725E+02  0.43400731647E+02  0.00000000000E+00 0. -1.
         11    1    3    3    0    0  0.82480714342E+01  0.26116949878E+02  0.30668348153E+02  0.41117798239E+02  0.51100000000E-03 0. -1.
        -11    1    3    3    0    0  0.12835784522E+00  0.24715213354E+01  0.25490484905E+01  0.35528216837E+01  0.51100000000E-03 0.  1.
         12    1    3    3    0    0 -0.20375468214E+01 -0.22541202027E+01  0.69342808162E+00  0.31166484310E+01  0.00000000000E+00 0. -1.
</event>
<event>
 7    1  0.2812635E-010  0.4778727E+02  0.7816164E-02  0.1312668E+00
        -11   -1    0    0    0    0  0.00000000000E+00  0.00000000000E+00  0.45593999997E+02  0.45594000000E+02  0.51100000000E-03 0.  1.
         11   -1    0    0    0    0 -0.00000000000E+00 -0.00000000000E+00 -0.45593999997E+02  0.45594000000E+02  0.51100000000E-03 0. -1.
    9900012    2    1    2    0    0  0.38588117032E+02  0.19329265649E+02  0.45782058335E+01  0.47787271259E+02  0.20000000979E+02 0.  0.
         12    1    1    2    0    0 -0.38588117032E+02 -0.19329265649E+02 -0.45782058335E+01  0.43400728741E+02  0.00000000000E+00 0. -1.
         11    1    3    3    0    0  0.11983554115E+02  0.11875473347E+02  0.11662238758E+01  0.16911313221E+02  0.51100000000E-03 0. -1.
        -11    1    3    3    0    0 -0.54008738564E+00  0.19509711909E+01 -0.17812923487E+01  0.26964765278E+01  0.51100000000E-03 0.  1.
        -12    1    3    3    0    0  0.27144650302E+02  0.55028211110E+01  0.51932743063E+01  0.28179481511E+02  0.00000000000E+00 0.  1.
</event>
<event>
 7    1  0.2812635E-010  0.4778727E+02  0.7816164E-02  0.1312668E+00
        -11   -1    0    0    0    0  0.00000000000E+00  0.00000000000E+00  0.45593999997E+02  0.45594000000E+02  0.51100000000E-03 0.  1.
         11   -1    0    0    0    0 -0.00000000000E+00 -0.00000000000E+00 -0.45593999997E+02  0.45594000000E+02  0.51100000000E-03 0. -1.
    9900012    2    1    2    0    0  0.37226379121E+02 -0.92933574458E+00 -0.22292516963E+02  0.47787270975E+02  0.19999999683E+02 0.  0.
         12    1    1    2    0    0 -0.37226379121E+02  0.92933574458E+00  0.22292516963E+02  0.43400729025E+02  0.00000000000E+00 0. -1.
         11    1    3    3    0    0  0.18533741323E+02  0.47267628899E+01 -0.12301222309E+02  0.22741194458E+02  0.51100000000E-03 0. -1.
        -11    1    3    3    0    0  0.51376915141E+01 -0.50603159310E+01 -0.88703925949E+01  0.11431821223E+02  0.51100000000E-03 0.  1.
        -12    1    3    3    0    0  0.13554946284E+02 -0.59578270346E+00 -0.11209020597E+01  0.13614255294E+02  0.00000000000E+00 0.  1.
</event>
<event>
 7    1  0.2812635E-010  0.4778727E+02  0.7816164E-02  0.1312668E+00
        -11   -1    0    0    0    0  0.00000000000E+00  0.00000000000E+00  0.45593999997E+02  0.45594000000E+02  0.51100000000E-03 0.  1.
         11   -1    0    0    0    0 -0.00000000000E+00 -0.00000000000E+00 -0.45593999997E+02  0.45594000000E+02  0.51100000000E-03 0. -1.
    9900012    2    1    2    0    0  0.29457283041E+01 -0.41863577952E+02  0.11062869184E+02  0.47787267877E+02  0.19999985560E+02 0.  0.
         12    1    1    2    0    0 -0.29457283041E+01  0.41863577952E+02 -0.11062869184E+02  0.43400732123E+02  0.00000000000E+00 0. -1.
         11    1    3    3    0    0  0.31719734028E+01 -0.17245385725E+02 -0.45510024935E+01  0.18115638769E+02  0.51100000000E-03 0. -1.
        -11    1    3    3    0    0  0.15202098409E+01 -0.16859826618E+02  0.12848508759E+02  0.21252034470E+02  0.51100000000E-03 0.  1.
        -12    1    3    3    0    0 -0.17464549397E+01 -0.77583656097E+01  0.27653629188E+01  0.84195946377E+01  0.00000000000E+00 0.  1.
</event>
<event>
 7    1  0.2812635E-010  0.4778727E+02  0.7816164E-02  0.1312668E+00
        -11   -1    0    0    0    0  0.00000000000E+00  0.00000000000E+00  0.45593999997E+02  0.45594000000E+02  0.51100000000E-03 0.  1.
         11   -1    0    0    0    0 -0.00000000000E+00 -0.00000000000E+00 -0.45593999997E+02  0.45594000000E+02  0.51100000000E-03 0. -1.
    9900012    2    1    2    0    0  0.41152677960E+01  0.27747331492E+02  0.33117569712E+02  0.47787271232E+02  0.20000000853E+02 0.  0.
         12    1    1    2    0    0 -0.41152677960E+01 -0.27747331492E+02 -0.33117569712E+02  0.43400728768E+02  0.00000000000E+00 0. -1.
         11    1    3    3    0    0  0.63735338139E+01  0.14599891570E+01  0.20782265996E+01  0.68609421858E+01  0.51100000000E-03 0. -1.
        -11    1    3    3    0    0 -0.62676251602E-01  0.61791973294E+00  0.20561887833E+01  0.21479445250E+01  0.51100000000E-03 0.  1.
         12    1    3    3    0    0 -0.21955897663E+01  0.25669422602E+02  0.28983154329E+02  0.38778384521E+02  0.00000000000E+00 0. -1.
</event>
<event>
 7    1  0.2812635E-010  0.4778727E+02  0.7816164E-02  0.1312668E+00
        -11   -1    0    0    0    0  0.00000000000E+00  0.00000000000E+00  0.45593999997E+02  0.45594000000E+02  0.51100000000E-03 0.  1.
         11   -1    0    0    0    0 -0.00000000000E+00 -0.00000000000E+00 -0.45593999997E+02  0.45594000000E+02  0.51100000000E-03 0. -1.
    9900012    2    1    2    0    0 -0.35931660947E+02  0.21739998765E+02  0.10950407040E+02  0.47787271676E+02  0.20000002878E+02 0.  0.
         12    1    1    2    0    0  0.35931660947E+02 -0.21739998765E+02 -0.10950407040E+02  0.43400728324E+02  0.00000000000E+00 0. -1.
         11    1    3    3    0    0 -0.95832777593E+01  0.15817746262E+02  0.47240339599E+01  0.19088132610E+02  0.51100000000E-03 0. -1.
        -11    1    3    3    0    0 -0.19415569175E+02  0.70599751315E+01  0.26898730178E+01  0.20833698480E+02  0.51100000000E-03 0.  1.
         12    1    3    3    0    0 -0.69328140133E+01 -0.11377226278E+01  0.35365000627E+01  0.78654405862E+01  0.00000000000E+00 0. -1.
</event>
<event>
 7    1  0.2812635E-010  0.4778727E+02  0.7816164E-02  0.1312668E+00
        -11   -1    0    0    0    0  0.00000000000E+00  0.00000000000E+00  0.45593999997E+02  0.45594000000E+02  0.51100000000E-03 0.  1.
         11   -1    0    0    0    0 -0.00000000000E+00 -0.00000000000E+00 -0.45593999997E+02  0.45594000000E+02  0.51100000000E-03 0. -1.
    9900012    2    1    2    0    0 -0.18137839301E+02  0.39328588898E+02  0.28114496984E+01  0.47787269953E+02  0.19999995023E+02 0.  0.
         12    1    1    2    0    0  0.18137839301E+02 -0.39328588898E+02 -0.28114496984E+01  0.43400730047E+02  0.00000000000E+00 0. -1.
         11    1    3    3    0    0 -0.11017256714E+02  0.72750001773E+01 -0.19605720809E+01  0.13347262500E+02  0.51100000000E-03 0. -1.
        -11    1    3    3    0    0 -0.48047457245E+01  0.52707413617E+01 -0.27664459034E-01  0.71321148030E+01  0.51100000000E-03 0.  1.
         12    1    3    3    0    0 -0.23158368625E+01  0.26782847359E+02  0.47996862383E+01  0.27307892650E+02  0.00000000000E+00 0. -1.
</event>
<event>
 7    1  0.2812635E-010  0.4778727E+02  0.7816164E-02  0.1312668E+00
        -11   -1    0    0    0    0  0.00000000000E+00  0.00000000000E+00  0.45593999997E+02  0.45594000000E+02  0.51100000000E-03 0.  1.
         11   -1    0    0    0    0 -0.00000000000E+00 -0.00000000000E+00 -0.45593999997E+02  0.45594000000E+02  0.51100000000E-03 0. -1.
    9900012    2    1    2    0    0  0.42744673464E+02 -0.27354819866E+01 -0.70023969167E+01  0.47787268050E+02  0.19999986348E+02 0.  0.
         12    1    1    2    0    0 -0.42744673464E+02  0.27354819866E+01  0.70023969167E+01  0.43400731950E+02  0.00000000000E+00 0. -1.
         11    1    3    3    0    0  0.44200512345E+01 -0.43411224956E+01 -0.17721734543E+01  0.64438184682E+01  0.51100000000E-03 0. -1.
        -11    1    3    3    0    0  0.51291914130E+01 -0.40591955261E+01  0.21185758491E+01  0.68756117372E+01  0.51100000000E-03 0.  1.
        -12    1    3    3    0    0  0.33195430816E+02  0.56648360351E+01 -0.73487993115E+01  0.34467837845E+02  0.00000000000E+00 0.  1.
</event>
<event>
 7    1  0.2812635E-010  0.4778727E+02  0.7816164E-02  0.1312668E+00
        -11   -1    0    0    0    0  0.00000000000E+00  0.00000000000E+00  0.45593999997E+02  0.45594000000E+02  0.51100000000E-03 0.  1.
         11   -1    0    0    0    0 -0.00000000000E+00 -0.00000000000E+00 -0.45593999997E+02  0.45594000000E+02  0.51100000000E-03 0. -1.
    9900012    2    1    2    0    0 -0.17612301394E+02  0.34755267215E+02  0.19118095347E+02  0.47787270406E+02  0.19999997090E+02 0.  0.
         12    1    1    2    0    0  0.17612301394E+02 -0.34755267215E+02 -0.19118095347E+02  0.43400729594E+02  0.00000000000E+00 0. -1.
         11    1    3    3    0    0 -0.42781555101E+01  0.20651679963E+01 -0.82174009844E+00  0.48210777294E+01  0.51100000000E-03 0. -1.
        -11    1    3    3    0    0 -0.19674213387E+01  0.21097675484E+02  0.15119359036E+02  0.26030322231E+02  0.51100000000E-03 0.  1.
        -12    1    3    3    0    0 -0.11366724545E+02  0.11592423734E+02  0.48204764101E+01  0.16935870446E+02  0.00000000000E+00 0.  1.
</event>
<event>
 7    1  0.2812635E-010  0.4778727E+02  0.7816164E-02  0.1312668E+00
        -11   -1    0    0    0    0  0.00000000000E+00  0.00000000000E+00  0.45593999997E+02  0.45594000000E+02  0.51100000000E-03 0. -1.
         11   -1    0    0    0    0 -0.00000000000E+00 -0.00000000000E+00 -0.45593999997E+02  0.45594000000E+02  0.51100000000E-03 0.  1.
    9900012    2    1    2    0    0 -0.28635691899E+02  0.85190699372E-01 -0.32613090569E+02  0.47787265163E+02  0.19999973182E+02 0.  0.
         12    1    1    2    0    0  0.28635691899E+02 -0.85190699372E-01  0.32613090569E+02  0.43400734837E+02  0.00000000000E+00 0. -1.
         11    1    3    3    0    0  0.16764900615E+01 -0.53891193996E+00  0.85971205145E+00  0.19596300870E+01  0.51100000000E-03 0. -1.
        -11    1    3    3    0    0 -0.13639102188E+02 -0.21555220618E+01 -0.10709159191E+02  0.17474480670E+02  0.51100000000E-03 0.  1.
         12    1    3    3    0    0 -0.16673079773E+02  0.27796247011E+01 -0.22763643429E+02  0.28353154405E+02  0.00000000000E+00 0. -1.
</event>
<event>
 7    1  0.2812635E-010  0.4778727E+02  0.7816164E-02  0.1312668E+00
        -11   -1    0    0    0    0  0.00000000000E+00  0.00000000000E+00  0.45593999997E+02  0.45594000000E+02  0.51100000000E-03 0. -1.
         11   -1    0    0    0    0 -0.00000000000E+00 -0.00000000000E+00 -0.45593999997E+02  0.45594000000E+02  0.51100000000E-03 0.  1.
    9900012    2    1    2    0    0 -0.36305868490E+02 -0.14997305574E+02  0.18455026490E+02  0.47787271158E+02  0.20000000517E+02 0.  0.
         12    1    1    2    0    0  0.36305868490E+02  0.14997305574E+02 -0.18455026490E+02  0.43400728842E+02  0.00000000000E+00 0. -1.
         11    1    3    3    0    0 -0.15793728635E+02  0.16739818944E+01  0.31849836590E+01  0.16198401178E+02  0.51100000000E-03 0. -1.
        -11    1    3    3    0    0 -0.18775032866E+02 -0.12176015857E+02  0.14609883541E+02  0.26724631310E+02  0.51100000000E-03 0.  1.
         12    1    3    3    0    0 -0.17371069886E+01 -0.44952716113E+01  0.66015929032E+00  0.48642386699E+01  0.00000000000E+00 0. -1.
</event>
<event>
 7    1  0.2812635E-010  0.4778727E+02  0.7816164E-02  0.1312668E+00
        -11   -1    0    0    0    0  0.00000000000E+00  0.00000000000E+00  0.45593999997E+02  0.45594000000E+02  0.51100000000E-03 0.  1.
         11   -1    0    0    0    0 -0.00000000000E+00 -0.00000000000E+00 -0.45593999997E+02  0.45594000000E+02  0.51100000000E-03 0. -1.
    9900012    2    1    2    0    0 -0.22259211062E+02  0.36318288249E+02  0.83146162550E+01  0.47787269800E+02  0.19999994324E+02 0.  0.
         12    1    1    2    0    0  0.22259211062E+02 -0.36318288249E+02 -0.83146162550E+01  0.43400730200E+02  0.00000000000E+00 0. -1.
         11    1    3    3    0    0 -0.13247944619E+02  0.70506091613E+01  0.60077030596E+01  0.16165136018E+02  0.51100000000E-03 0. -1.
        -11    1    3    3    0    0 -0.30366939169E+01  0.18213176901E+02  0.41410395174E+01  0.18923253719E+02  0.51100000000E-03 0.  1.
         12    1    3    3    0    0 -0.59745725261E+01  0.11054502187E+02 -0.18341263220E+01  0.12698880062E+02  0.00000000000E+00 0. -1.
</event>
<event>
 7    1  0.2812635E-010  0.4778727E+02  0.7816164E-02  0.1312668E+00
        -11   -1    0    0    0    0  0.00000000000E+00  0.00000000000E+00  0.45593999997E+02  0.45594000000E+02  0.51100000000E-03 0. -1.
         11   -1    0    0    0    0 -0.00000000000E+00 -0.00000000000E+00 -0.45593999997E+02  0.45594000000E+02  0.51100000000E-03 0.  1.
    9900012    2    1    2    0    0 -0.71001973873E+01 -0.40374182140E+02  0.14252565101E+02  0.47787274218E+02  0.20000014471E+02 0.  0.
         12    1    1    2    0    0  0.71001973873E+01  0.40374182140E+02 -0.14252565101E+02  0.43400725782E+02  0.00000000000E+00 0. -1.
         11    1    3    3    0    0 -0.85739551782E+01 -0.16914025379E+02  0.14179491966E+02  0.23678153530E+02  0.51100000000E-03 0. -1.
        -11    1    3    3    0    0  0.34883102037E+01 -0.15792399141E+02 -0.24197220723E+00  0.16174879582E+02  0.51100000000E-03 0.  1.
        -12    1    3    3    0    0 -0.20145524127E+01 -0.76677576208E+01  0.31504534153E+00  0.79342411056E+01  0.00000000000E+00 0.  1.
</event>
<event>
 7    1  0.2812635E-010  0.4778727E+02  0.7816164E-02  0.1312668E+00
        -11   -1    0    0    0    0  0.00000000000E+00  0.00000000000E+00  0.45593999997E+02  0.45594000000E+02  0.51100000000E-03 0.  1.
         11   -1    0    0    0    0 -0.00000000000E+00 -0.00000000000E+00 -0.45593999997E+02  0.45594000000E+02  0.51100000000E-03 0. -1.
    9900012    2    1    2    0    0  0.16851196435E+02  0.14856246868E+02  0.37134246853E+02  0.47787272107E+02  0.20000004845E+02 0.  0.
         12    1    1    2    0    0 -0.16851196435E+02 -0.14856246868E+02 -0.37134246853E+02  0.43400727893E+02  0.00000000000E+00 0. -1.
         11    1    3    3    0    0 -0.10661052536E+01 -0.18322951330E+01 -0.91444332115E-01  0.21218501816E+01  0.51100000000E-03 0. -1.
        -11    1    3    3    0    0  0.18473817420E+02  0.12730906801E+02  0.30987500293E+02  0.38256804529E+02  0.51100000000E-03 0.  1.
         12    1    3    3    0    0 -0.55651573133E+00  0.39576351998E+01  0.62381908916E+01  0.74086173969E+01  0.00000000000E+00 0. -1.
</event>
<event>
 7    1  0.2812635E-010  0.4778727E+02  0.7816164E-02  0.1312668E+00
        -11   -1    0    0    0    0  0.00000000000E+00  0.00000000000E+00  0.45593999997E+02  0.45594000000E+02  0.51100000000E-03 0.  1.
         11   -1    0    0    0    0 -0.00000000000E+00 -0.00000000000E+00 -0.45593999997E+02  0.45594000000E+02  0.51100000000E-03 0. -1.
    9900012    2    1    2    0    0 -0.18881962815E+02  0.38595202620E+02  0.61241322170E+01  0.47787272121E+02  0.20000004908E+02 0.  0.
         12    1    1    2    0    0  0.18881962815E+02 -0.38595202620E+02 -0.61241322170E+01  0.43400727879E+02  0.00000000000E+00 0. -1.
         11    1    3    3    0    0 -0.40967335757E+01  0.22675412399E+02 -0.19530093761E+00  0.23043343859E+02  0.51100000000E-03 0. -1.
        -11    1    3    3    0    0 -0.85831630477E+01  0.28629998865E+01  0.20885960100E+00  0.90504739571E+01  0.51100000000E-03 0.  1.
        -12    1    3    3    0    0 -0.62020661914E+01  0.13056790334E+02  0.61105735536E+01  0.15693454305E+02  0.00000000000E+00 0.  1.
</event>
<event>
 7    1  0.2812635E-010  0.4778727E+02  0.7816164E-02  0.1312668E+00
        -11   -1    0    0    0    0  0.00000000000E+00  0.00000000000E+00  0.45593999997E+02  0.45594000000E+02  0.51100000000E-03 0.  1.
         11   -1    0    0    0    0 -0.00000000000E+00 -0.00000000000E+00 -0.45593999997E+02  0.45594000000E+02  0.51100000000E-03 0. -1.
    9900012    2    1    2    0    0 -0.25175524353E+02  0.23575788632E+02  0.26343850882E+02  0.47787270567E+02  0.19999997822E+02 0.  0.
         12    1    1    2    0    0  0.25175524353E+02 -0.23575788632E+02 -0.26343850882E+02  0.43400729433E+02  0.00000000000E+00 0. -1.
         11    1    3    3    0    0 -0.42046358183E+01  0.25558621481E+01  0.13718493895E+01  0.51081664708E+01  0.51100000000E-03 0. -1.
        -11    1    3    3    0    0 -0.50069178237E+01  0.12642287746E+02  0.24279528203E+01  0.13812734005E+02  0.51100000000E-03 0.  1.
        -12    1    3    3    0    0 -0.15963970711E+02  0.83776387378E+01  0.22544048672E+02  0.28866370091E+02  0.00000000000E+00 0.  1.
</event>
<event>
 7    1  0.2812635E-010  0.4778727E+02  0.7816164E-02  0.1312668E+00
        -11   -1    0    0    0    0  0.00000000000E+00  0.00000000000E+00  0.45593999997E+02  0.45594000000E+02  0.51100000000E-03 0.  1.
         11   -1    0    0    0    0 -0.00000000000E+00 -0.00000000000E+00 -0.45593999997E+02  0.45594000000E+02  0.51100000000E-03 0. -1.
    9900012    2    1    2    0    0  0.28222906346E+02  0.12845926254E+02  0.30365653022E+02  0.47787272502E+02  0.20000006644E+02 0.  0.
         12    1    1    2    0    0 -0.28222906346E+02 -0.12845926254E+02 -0.30365653022E+02  0.43400727498E+02  0.00000000000E+00 0. -1.
         11    1    3    3    0    0  0.92474403382E-01  0.24838593032E+01  0.10138388139E+00  0.24876469818E+01  0.51100000000E-03 0. -1.
        -11    1    3    3    0    0  0.24188233698E+02  0.64506316189E+01  0.30834420780E+02  0.39717034164E+02  0.51100000000E-03 0.  1.
        -12    1    3    3    0    0  0.39421982439E+01  0.39114353318E+01 -0.57015163917E+00  0.55825913554E+01  0.00000000000E+00 0.  1.
</event>
<event>
 7    1  0.2812635E-010  0.4778727E+02  0.7816164E-02  0.1312668E+00
        -11   -1    0    0    0    0  0.00000000000E+00  0.00000000000E+00  0.45593999997E+02  0.45594000000E+02  0.51100000000E-03 0.  1.
         11   -1    0    0    0    0 -0.00000000000E+00 -0.00000000000E+00 -0.45593999997E+02  0.45594000000E+02  0.51100000000E-03 0. -1.
    9900012    2    1    2    0    0  0.29334580074E+02 -0.79081100284E+00  0.31976248153E+02  0.47787269406E+02  0.19999992528E+02 0.  0.
         12    1    1    2    0    0 -0.29334580074E+02  0.79081100284E+00 -0.31976248153E+02  0.43400730594E+02  0.00000000000E+00 0. -1.
         11    1    3    3    0    0  0.10354516741E+02  0.12763629132E+01  0.69784994253E+01  0.12551676131E+02  0.51100000000E-03 0. -1.
        -11    1    3    3    0    0  0.14146411892E+02  0.35283557998E+01  0.23554730907E+02  0.27701906296E+02  0.51100000000E-03 0.  1.
        -12    1    3    3    0    0  0.48336514416E+01 -0.55955297158E+01  0.14430178210E+01  0.75336869786E+01  0.00000000000E+00 0.  1.
</event>
<event>
 7    1  0.2812635E-010  0.4778727E+02  0.7816164E-02  0.1312668E+00
        -11   -1    0    0    0    0  0.00000000000E+00  0.00000000000E+00  0.45593999997E+02  0.45594000000E+02  0.51100000000E-03 0.  1.
         11   -1    0    0    0    0 -0.00000000000E+00 -0.00000000000E+00 -0.45593999997E+02  0.45594000000E+02  0.51100000000E-03 0. -1.
    9900012    2    1    2    0    0 -0.23732266463E+02 -0.19507224041E+02  0.30657318111E+02  0.47787269419E+02  0.19999992587E+02 0.  0.
         12    1    1    2    0    0  0.23732266463E+02  0.19507224041E+02 -0.30657318111E+02  0.43400730581E+02  0.00000000000E+00 0. -1.
         11    1    3    3    0    0 -0.16431422817E+02 -0.11418737337E+02  0.29371878381E+02  0.35539927659E+02  0.51100000000E-03 0. -1.
        -11    1    3    3    0    0 -0.12774488158E+01 -0.51065944033E+01 -0.51556564513E+00  0.52891388781E+01  0.51100000000E-03 0.  1.
         12    1    3    3    0    0 -0.60233948304E+01 -0.29818923000E+01  0.18010053754E+01  0.69582028811E+01  0.00000000000E+00 0. -1.
</event>
<event>
 7    1  0.2812635E-010  0.4778727E+02  0.7816164E-02  0.1312668E+00
        -11   -1    0    0    0    0  0.00000000000E+00  0.00000000000E+00  0.45593999997E+02  0.45594000000E+02  0.51100000000E-03 0.  1.
         11   -1    0    0    0    0 -0.00000000000E+00 -0.00000000000E+00 -0.45593999997E+02  0.45594000000E+02  0.51100000000E-03 0. -1.
    9900012    2    1    2    0    0 -0.36764935150E+02  0.22774762979E+02 -0.36432276917E+01  0.47787269668E+02  0.19999993724E+02 0.  0.
         12    1    1    2    0    0  0.36764935150E+02 -0.22774762979E+02  0.36432276917E+01  0.43400730332E+02  0.00000000000E+00 0. -1.
         11    1    3    3    0    0 -0.38484763268E+01 -0.27719862190E+01 -0.37291006102E+01  0.60333132903E+01  0.51100000000E-03 0. -1.
        -11    1    3    3    0    0 -0.22360291719E+02  0.15906488487E+02 -0.51443003990E+00  0.27445649205E+02  0.51100000000E-03 0.  1.
         12    1    3    3    0    0 -0.10556167104E+02  0.96402607111E+01  0.60030295835E+00  0.14308307173E+02  0.00000000000E+00 0. -1.
</event>
<event>
 7    1  0.2812635E-010  0.4778727E+02  0.7816164E-02  0.1312668E+00
        -11   -1    0    0    0    0  0.00000000000E+00  0.00000000000E+00  0.45593999997E+02  0.45594000000E+02  0.51100000000E-03 0.  1.
         11   -1    0    0    0    0 -0.00000000000E+00 -0.00000000000E+00 -0.45593999997E+02  0.45594000000E+02  0.51100000000E-03 0. -1.
    9900012    2    1    2    0    0 -0.30138048345E+02  0.21562252868E+02  0.22591829307E+02  0.47787268920E+02  0.19999990316E+02 0.  0.
         12    1    1    2    0    0  0.30138048345E+02 -0.21562252868E+02 -0.22591829307E+02  0.43400731080E+02  0.00000000000E+00 0. -1.
         11    1    3    3    0    0 -0.38337654607E+01 -0.27675290125E+01  0.44706761089E+01  0.65072205721E+01  0.51100000000E-03 0. -1.
        -11    1    3    3    0    0 -0.23438199517E+02  0.23077222505E+02  0.19058331631E+02  0.38014831316E+02  0.51100000000E-03 0.  1.
        -12    1    3    3    0    0 -0.28660833670E+01  0.12525593756E+01 -0.93717843211E+00  0.32652170325E+01  0.00000000000E+00 0.  1.
</event>
<event>
 7    1  0.2812635E-010  0.4778727E+02  0.7816164E-02  0.1312668E+00
        -11   -1    0    0    0    0  0.00000000000E+00  0.00000000000E+00  0.45593999997E+02  0.45594000000E+02  0.51100000000E-03 0.  1.
         11   -1    0    0    0    0 -0.00000000000E+00 -0.00000000000E+00 -0.45593999997E+02  0.45594000000E+02  0.51100000000E-03 0. -1.
    9900012    2    1    2    0    0 -0.63263574952E+01  0.54154014820E+01  0.42594293267E+02  0.47787271995E+02  0.20000004336E+02 0.  0.
         12    1    1    2    0    0  0.63263574952E+01 -0.54154014820E+01 -0.42594293267E+02  0.43400728005E+02  0.00000000000E+00 0. -1.
         11    1    3    3    0    0  0.24622664622E+01 -0.52952889171E+01  0.89408919512E+01  0.10679063161E+02  0.51100000000E-03 0. -1.
        -11    1    3    3    0    0 -0.71021654232E+01  0.80163724019E+01  0.31494689450E+02  0.33265875068E+02  0.51100000000E-03 0.  1.
        -12    1    3    3    0    0 -0.16864585342E+01  0.26943179972E+01  0.21587118660E+01  0.38423337671E+01  0.00000000000E+00 0.  1.
</event>
<event>
 7    1  0.2812635E-010  0.4778726E+02  0.7816164E-02  0.1312668E+00
        -11   -1    0    0    0    0  0.00000000000E+00  0.00000000000E+00  0.45593999997E+02  0.45594000000E+02  0.51100000000E-03 0.  1.
         11   -1    0    0    0    0 -0.00000000000E+00 -0.00000000000E+00 -0.45593999997E+02  0.45594000000E+02  0.51100000000E-03 0. -1.
    9900012    2    1    2    0    0  0.26402637146E+02 -0.24263682416E+02  0.24449916232E+02  0.47787263412E+02  0.19999965202E+02 0.  0.
         12    1    1    2    0    0 -0.26402637146E+02  0.24263682416E+02 -0.24449916232E+02  0.43400736588E+02  0.00000000000E+00 0. -1.
         11    1    3    3    0    0  0.20649635113E+01  0.28204386791E+01 -0.33385139636E-01  0.34957207375E+01  0.51100000000E-03 0. -1.
        -11    1    3    3    0    0  0.15798987143E+02 -0.21154125176E+02  0.15989245359E+02  0.30866826434E+02  0.51100000000E-03 0.  1.
        -12    1    3    3    0    0  0.85386864917E+01 -0.59299959192E+01  0.84940560130E+01  0.13424716241E+02  0.00000000000E+00 0.  1.
</event>
<event>
 7    1  0.2812635E-010  0.4778727E+02  0.7816164E-02  0.1312668E+00
        -11   -1    0    0    0    0  0.00000000000E+00  0.00000000000E+00  0.45593999997E+02  0.45594000000E+02  0.51100000000E-03 0. -1.
         11   -1    0    0    0    0 -0.00000000000E+00 -0.00000000000E+00 -0.45593999997E+02  0.45594000000E+02  0.51100000000E-03 0.  1.
    9900012    2    1    2    0    0 -0.17480821961E+02 -0.38673913284E+02 -0.90759284953E+01  0.47787272089E+02  0.20000004763E+02 0.  0.
         12    1    1    2    0    0  0.17480821961E+02  0.38673913284E+02  0.90759284953E+01  0.43400727911E+02  0.00000000000E+00 0. -1.
         11    1    3    3    0    0 -0.47684012103E+01 -0.25845023629E+02 -0.59730543402E+00  0.26288013819E+02  0.51100000000E-03 0. -1.
        -11    1    3    3    0    0 -0.79570117625E+01 -0.30134760363E+01 -0.17581244058E+01  0.86882723079E+01  0.51100000000E-03 0.  1.
        -12    1    3    3    0    0 -0.47554089883E+01 -0.98154136186E+01 -0.67204986555E+01  0.12810985962E+02  0.00000000000E+00 0.  1.
</event>
<event>
 7    1  0.2812635E-010  0.4778728E+02  0.7816164E-02  0.1312668E+00
        -11   -1    0    0    0    0  0.00000000000E+00  0.00000000000E+00  0.45593999997E+02  0.45594000000E+02  0.51100000000E-03 0.  1.
         11   -1    0    0    0    0 -0.00000000000E+00 -0.00000000000E+00 -0.45593999997E+02  0.45594000000E+02  0.51100000000E-03 0. -1.
    9900012    2    1    2    0    0  0.66694665151E+01  0.28247762734E+02  0.32267707811E+02  0.47787275922E+02  0.20000022239E+02 0.  0.
         12    1    1    2    0    0 -0.66694665151E+01 -0.28247762734E+02 -0.32267707811E+02  0.43400724078E+02  0.00000000000E+00 0. -1.
         11    1    3    3    0    0  0.79055615159E+01  0.21560139678E+02  0.28747797431E+02  0.36793659552E+02  0.51100000000E-03 0. -1.
        -11    1    3    3    0    0  0.11089253917E+01 -0.16921906478E+00  0.35747853142E+01  0.37466572995E+01  0.51100000000E-03 0.  1.
         12    1    3    3    0    0 -0.23450203925E+01  0.68568421209E+01 -0.54874934105E-01  0.72469590706E+01  0.00000000000E+00 0. -1.
</event>
<event>
 7    1  0.2812635E-010  0.4778727E+02  0.7816164E-02  0.1312668E+00
        -11   -1    0    0    0    0  0.00000000000E+00  0.00000000000E+00  0.45593999997E+02  0.45594000000E+02  0.51100000000E-03 0.  1.
         11   -1    0    0    0    0 -0.00000000000E+00 -0.00000000000E+00 -0.45593999997E+02  0.45594000000E+02  0.51100000000E-03 0. -1.
    9900012    2    1    2    0    0 -0.71337839477E+01 -0.37393606981E+02 -0.20843479645E+02  0.47787270050E+02  0.19999995466E+02 0.  0.
         12    1    1    2    0    0  0.71337839477E+01  0.37393606981E+02  0.20843479645E+02  0.43400729950E+02  0.00000000000E+00 0. -1.
         11    1    3    3    0    0 -0.99002818567E+00 -0.13950145515E+02 -0.10032829466E+02  0.17211751307E+02  0.51100000000E-03 0.  1.
        -11    1    3    3    0    0  0.41534527635E+01 -0.13250338617E+02 -0.33768784626E+01  0.14290764561E+02  0.51100000000E-03 0. -1.
        -12    1    3    3    0    0 -0.10297208526E+02 -0.10193122849E+02 -0.74337717167E+01  0.16284754182E+02  0.00000000000E+00 0.  1.
</event>
<event>
 7    1  0.2812635E-010  0.4778727E+02  0.7816164E-02  0.1312668E+00
        -11   -1    0    0    0    0  0.00000000000E+00  0.00000000000E+00  0.45593999997E+02  0.45594000000E+02  0.51100000000E-03 0. -1.
         11   -1    0    0    0    0 -0.00000000000E+00 -0.00000000000E+00 -0.45593999997E+02  0.45594000000E+02  0.51100000000E-03 0.  1.
    9900012    2    1    2    0    0  0.24267984216E+02  0.33594147086E+02 -0.12888801642E+02  0.47787274382E+02  0.20000015219E+02 0.  0.
         12    1    1    2    0    0 -0.24267984216E+02 -0.33594147086E+02  0.12888801642E+02  0.43400725618E+02  0.00000000000E+00 0. -1.
         11    1    3    3    0    0  0.77497069544E+01  0.16782008933E+02 -0.11946100337E+02  0.22009159348E+02  0.51100000000E-03 0. -1.
        -11    1    3    3    0    0  0.78219355398E+01  0.12334113131E+01 -0.37598988961E+00  0.79275057688E+01  0.51100000000E-03 0.  1.
        -12    1    3    3    0    0  0.86963417220E+01  0.15578726841E+02 -0.56671141584E+00  0.17850609266E+02  0.00000000000E+00 0.  1.
</event>
<event>
 7    1  0.2812635E-010  0.4778727E+02  0.7816164E-02  0.1312668E+00
        -11   -1    0    0    0    0  0.00000000000E+00  0.00000000000E+00  0.45593999997E+02  0.45594000000E+02  0.51100000000E-03 0.  1.
         11   -1    0    0    0    0 -0.00000000000E+00 -0.00000000000E+00 -0.45593999997E+02  0.45594000000E+02  0.51100000000E-03 0. -1.
    9900012    2    1    2    0    0  0.41343888430E+02  0.56193686466E+01  0.11946920063E+02  0.47787270588E+02  0.19999997920E+02 0.  0.
         12    1    1    2    0    0 -0.41343888430E+02 -0.56193686466E+01 -0.11946920063E+02  0.43400729412E+02  0.00000000000E+00 0. -1.
         11    1    3    3    0    0  0.67818932936E+01 -0.48684577071E+00 -0.38246378689E+00  0.68100935573E+01  0.51100000000E-03 0. -1.
        -11    1    3    3    0    0  0.16698468789E+02  0.93216726952E+01  0.16051490781E+00  0.19124806065E+02  0.51100000000E-03 0.  1.
        -12    1    3    3    0    0  0.17863526348E+02 -0.32154582778E+01  0.12168868942E+02  0.21852370966E+02  0.00000000000E+00 0.  1.
</event>
<event>
 7    1  0.2812635E-010  0.4778728E+02  0.7816164E-02  0.1312668E+00
        -11   -1    0    0    0    0  0.00000000000E+00  0.00000000000E+00  0.45593999997E+02  0.45594000000E+02  0.51100000000E-03 0.  1.
         11   -1    0    0    0    0 -0.00000000000E+00 -0.00000000000E+00 -0.45593999997E+02  0.45594000000E+02  0.51100000000E-03 0. -1.
    9900012    2    1    2    0    0  0.33177314948E+01 -0.52014396519E+01  0.42959985468E+02  0.47787278023E+02  0.20000031817E+02 0.  0.
         12    1    1    2    0    0 -0.33177314948E+01  0.52014396519E+01 -0.42959985468E+02  0.43400721977E+02  0.00000000000E+00 0. -1.
         11    1    3    3    0    0 -0.39486806357E+01 -0.70746009437E+01  0.20964519530E+02  0.22475612042E+02  0.51100000000E-03 0. -1.
        -11    1    3    3    0    0  0.89324537818E+01  0.74773714321E+00  0.11273204692E+02  0.14402534002E+02  0.51100000000E-03 0.  1.
        -12    1    3    3    0    0 -0.16660416513E+01  0.11254241486E+01  0.10722261246E+02  0.10909131979E+02  0.00000000000E+00 0.  1.
</event>
<event>
 7    1  0.2812635E-010  0.4778726E+02  0.7816164E-02  0.1312668E+00
        -11   -1    0    0    0    0  0.00000000000E+00  0.00000000000E+00  0.45593999997E+02  0.45594000000E+02  0.51100000000E-03 0. -1.
         11   -1    0    0    0    0 -0.00000000000E+00 -0.00000000000E+00 -0.45593999997E+02  0.45594000000E+02  0.51100000000E-03 0.  1.
    9900012    2    1    2    0    0 -0.10889238614E+02 -0.40246176886E+02 -0.12053777668E+02  0.47787264665E+02  0.19999970915E+02 0.  0.
         12    1    1    2    0    0  0.10889238614E+02  0.40246176886E+02  0.12053777668E+02  0.43400735335E+02  0.00000000000E+00 0. -1.
         11    1    3    3    0    0 -0.90531228631E+01 -0.12301069456E+02 -0.93667455756E+01  0.17916787275E+02  0.51100000000E-03 0. -1.
        -11    1    3    3    0    0  0.14373024039E+01 -0.25639606267E+02 -0.29996862920E+01  0.25854465104E+02  0.51100000000E-03 0.  1.
        -12    1    3    3    0    0 -0.32734181551E+01 -0.23055011635E+01  0.31265419959E+00  0.40160122860E+01  0.00000000000E+00 0.  1.
</event>
<event>
 7    1  0.2812635E-010  0.4778727E+02  0.7816164E-02  0.1312668E+00
        -11   -1    0    0    0    0  0.00000000000E+00  0.00000000000E+00  0.45593999997E+02  0.45594000000E+02  0.51100000000E-03 0. -1.
         11   -1    0    0    0    0 -0.00000000000E+00 -0.00000000000E+00 -0.45593999997E+02  0.45594000000E+02  0.51100000000E-03 0.  1.
    9900012    2    1    2    0    0 -0.43322599476E+02  0.19222743572E+01  0.17550726955E+01  0.47787273691E+02  0.20000012065E+02 0.  0.
         12    1    1    2    0    0  0.43322599476E+02 -0.19222743572E+01 -0.17550726955E+01  0.43400726309E+02  0.00000000000E+00 0. -1.
         11    1    3    3    0    0 -0.64019379990E+01  0.82434060560E+00 -0.44614404335E+01  0.78465787818E+01  0.51100000000E-03 0. -1.
        -11    1    3    3    0    0 -0.17272118769E+02 -0.35106416498E+01 -0.27823587588E+01  0.17843548192E+02  0.51100000000E-03 0.  1.
         12    1    3    3    0    0 -0.19648542708E+02  0.46085754013E+01  0.89988718878E+01  0.22097146717E+02  0.00000000000E+00 0. -1.
</event>
<event>
 7    1  0.2812635E-010  0.4778727E+02  0.7816164E-02  0.1312668E+00
        -11   -1    0    0    0    0  0.00000000000E+00  0.00000000000E+00  0.45593999997E+02  0.45594000000E+02  0.51100000000E-03 0.  1.
         11   -1    0    0    0    0 -0.00000000000E+00 -0.00000000000E+00 -0.45593999997E+02  0.45594000000E+02  0.51100000000E-03 0. -1.
    9900012    2    1    2    0    0 -0.72188519660E+01 -0.22031873052E+02  0.36689343930E+02  0.47787271759E+02  0.20000003257E+02 0.  0.
         12    1    1    2    0    0  0.72188519660E+01  0.22031873052E+02 -0.36689343930E+02  0.43400728241E+02  0.00000000000E+00 0. -1.
         11    1    3    3    0    0 -0.21939879829E+01  0.17477966138E+01  0.87696899314E+01  0.92073795418E+01  0.51100000000E-03 0. -1.
        -11    1    3    3    0    0 -0.50455129347E+01 -0.22495743438E+02  0.28896468328E+02  0.36966492337E+02  0.51100000000E-03 0.  1.
         12    1    3    3    0    0  0.20648951552E-01 -0.12839262277E+01 -0.97681432993E+00  0.16133998799E+01  0.00000000000E+00 0. -1.
</event>
<event>
 7    1  0.2812635E-010  0.4778727E+02  0.7816164E-02  0.1312668E+00
        -11   -1    0    0    0    0  0.00000000000E+00  0.00000000000E+00  0.45593999997E+02  0.45594000000E+02  0.51100000000E-03 0.  1.
         11   -1    0    0    0    0 -0.00000000000E+00 -0.00000000000E+00 -0.45593999997E+02  0.45594000000E+02  0.51100000000E-03 0. -1.
    9900012    2    1    2    0    0 -0.38183837089E+02 -0.10144460744E+01  0.20605555214E+02  0.47787269346E+02  0.19999992255E+02 0.  0.
         12    1    1    2    0    0  0.38183837089E+02  0.10144460744E+01 -0.20605555214E+02  0.43400730654E+02  0.00000000000E+00 0. -1.
         11    1    3    3    0    0 -0.42984555053E+01 -0.53310986401E+00  0.10741709265E+02  0.11582108792E+02  0.51100000000E-03 0. -1.
        -11    1    3    3    0    0 -0.11820078174E+02 -0.35107617657E+00 -0.48059994473E+00  0.11835052982E+02  0.51100000000E-03 0.  1.
         12    1    3    3    0    0 -0.22065303410E+02 -0.13026003384E+00  0.10344445893E+02  0.24370107572E+02  0.00000000000E+00 0. -1.
</event>
<event>
 7    1  0.2812635E-010  0.4778727E+02  0.7816164E-02  0.1312668E+00
        -11   -1    0    0    0    0  0.00000000000E+00  0.00000000000E+00  0.45593999997E+02  0.45594000000E+02  0.51100000000E-03 0.  1.
         11   -1    0    0    0    0 -0.00000000000E+00 -0.00000000000E+00 -0.45593999997E+02  0.45594000000E+02  0.51100000000E-03 0. -1.
    9900012    2    1    2    0    0 -0.24999531684E+02 -0.31911315403E+02  0.15502081083E+02  0.47787272436E+02  0.20000006344E+02 0.  0.
         12    1    1    2    0    0  0.24999531684E+02  0.31911315403E+02 -0.15502081083E+02  0.43400727564E+02  0.00000000000E+00 0. -1.
         11    1    3    3    0    0 -0.95750741512E+01 -0.17213084780E+02  0.13959268611E+02  0.24141945097E+02  0.51100000000E-03 0. -1.
        -11    1    3    3    0    0 -0.16508802094E+02 -0.11246494281E+02  0.12166877282E+01  0.20012608763E+02  0.51100000000E-03 0.  1.
         12    1    3    3    0    0  0.10843445616E+01 -0.34517363424E+01  0.32612474390E+00  0.36327185763E+01  0.00000000000E+00 0. -1.
</event>
<event>
 7    1  0.2812635E-010  0.4778727E+02  0.7816164E-02  0.1312668E+00
        -11   -1    0    0    0    0  0.00000000000E+00  0.00000000000E+00  0.45593999997E+02  0.45594000000E+02  0.51100000000E-03 0.  1.
         11   -1    0    0    0    0 -0.00000000000E+00 -0.00000000000E+00 -0.45593999997E+02  0.45594000000E+02  0.51100000000E-03 0. -1.
    9900012    2    1    2    0    0  0.96919852899E+01  0.36049094467E+02  0.22139363941E+02  0.47787271590E+02  0.20000002489E+02 0.  0.
         12    1    1    2    0    0 -0.96919852899E+01 -0.36049094467E+02 -0.22139363941E+02  0.43400728410E+02  0.00000000000E+00 0. -1.
         11    1    3    3    0    0 -0.17115163743E+01  0.13961219748E+01  0.31861374701E+01  0.38768437043E+01  0.51100000000E-03 0. -1.
        -11    1    3    3    0    0 -0.60311872771E+00  0.20882541401E+01 -0.23382886906E+01  0.31925149670E+01  0.51100000000E-03 0.  1.
        -12    1    3    3    0    0  0.12006620392E+02  0.32564718353E+02  0.21291515161E+02  0.40717912919E+02  0.00000000000E+00 0.  1.
</event>
<event>
 7    1  0.2812635E-010  0.4778727E+02  0.7816164E-02  0.1312668E+00
        -11   -1    0    0    0    0  0.00000000000E+00  0.00000000000E+00  0.45593999997E+02  0.45594000000E+02  0.51100000000E-03 0. -1.
         11   -1    0    0    0    0 -0.00000000000E+00 -0.00000000000E+00 -0.45593999997E+02  0.45594000000E+02  0.51100000000E-03 0.  1.
    9900012    2    1    2    0    0  0.15774426764E+02  0.38986635046E+02  0.10716012324E+02  0.47787272217E+02  0.20000005348E+02 0.  0.
         12    1    1    2    0    0 -0.15774426764E+02 -0.38986635046E+02 -0.10716012324E+02  0.43400727783E+02  0.00000000000E+00 0. -1.
         11    1    3    3    0    0  0.43733605780E+01  0.23465303322E+01 -0.29814478851E+01  0.57897771199E+01  0.51100000000E-03 0. -1.
        -11    1    3    3    0    0  0.12064404577E+02  0.26135733624E+02  0.73613638642E+01  0.29712221527E+02  0.51100000000E-03 0.  1.
         12    1    3    3    0    0 -0.66333839083E+00  0.10504371090E+02  0.63360963450E+01  0.12285273571E+02  0.00000000000E+00 0. -1.
</event>
<event>
 7    1  0.2812635E-010  0.4778727E+02  0.7816164E-02  0.1312668E+00
        -11   -1    0    0    0    0  0.00000000000E+00  0.00000000000E+00  0.45593999997E+02  0.45594000000E+02  0.51100000000E-03 0. -1.
         11   -1    0    0    0    0 -0.00000000000E+00 -0.00000000000E+00 -0.45593999997E+02  0.45594000000E+02  0.51100000000E-03 0.  1.
    9900012    2    1    2    0    0  0.34245403969E+02  0.24237678505E+02  0.11109024424E+02  0.47787272172E+02  0.20000005143E+02 0.  0.
         12    1    1    2    0    0 -0.34245403969E+02 -0.24237678505E+02 -0.11109024424E+02  0.43400727828E+02  0.00000000000E+00 0. -1.
         11    1    3    3    0    0  0.34581407999E+01 -0.24459655453E+01  0.25694208145E+01  0.49541304812E+01  0.51100000000E-03 0. -1.
        -11    1    3    3    0    0  0.18464423284E+02  0.19532132797E+02  0.14456150414E+01  0.26917075285E+02  0.51100000000E-03 0.  1.
        -12    1    3    3    0    0  0.12322839885E+02  0.71515112539E+01  0.70939885680E+01  0.15916066406E+02  0.00000000000E+00 0.  1.
</event>
<event>
 7    1  0.2812635E-010  0.4778727E+02  0.7816164E-02  0.1312668E+00
        -11   -1    0    0    0    0  0.00000000000E+00  0.00000000000E+00  0.45593999997E+02  0.45594000000E+02  0.51100000000E-03 0. -1.
         11   -1    0    0    0    0 -0.00000000000E+00 -0.00000000000E+00 -0.45593999997E+02  0.45594000000E+02  0.51100000000E-03 0.  1.
    9900012    2    1    2    0    0  0.28273731681E+02 -0.32386003528E+02  0.59469587525E+01  0.47787269060E+02  0.19999990953E+02 0.  0.
         12    1    1    2    0    0 -0.28273731681E+02  0.32386003528E+02 -0.59469587525E+01  0.43400730940E+02  0.00000000000E+00 0. -1.
         11    1    3    3    0    0  0.13945185785E+02 -0.13284364640E+02 -0.53025615281E+01  0.19976478906E+02  0.51100000000E-03 0. -1.
        -11    1    3    3    0    0  0.10869617310E+01 -0.76738097855E+01  0.50647283817E+01  0.92585266793E+01  0.51100000000E-03 0.  1.
        -12    1    3    3    0    0  0.13241584165E+02 -0.11427829102E+02  0.61847918989E+01  0.18552263475E+02  0.00000000000E+00 0.  1.
</event>
<event>
 7    1  0.2812635E-010  0.4778727E+02  0.7816164E-02  0.1312668E+00
        -11   -1    0    0    0    0  0.00000000000E+00  0.00000000000E+00  0.45593999997E+02  0.45594000000E+02  0.51100000000E-03 0. -1.
         11   -1    0    0    0    0 -0.00000000000E+00 -0.00000000000E+00 -0.45593999997E+02  0.45594000000E+02  0.51100000000E-03 0.  1.
    9900012    2    1    2    0    0 -0.39348833151E+02 -0.18043799333E+02 -0.31167226545E+01  0.47787270458E+02  0.19999997325E+02 0.  0.
         12    1    1    2    0    0  0.39348833151E+02  0.18043799333E+02  0.31167226545E+01  0.43400729542E+02  0.00000000000E+00 0. -1.
         11    1    3    3    0    0 -0.21703883823E+02 -0.20374499487E+02 -0.17403981697E+01  0.29819587328E+02  0.51100000000E-03 0. -1.
        -11    1    3    3    0    0 -0.12356563702E+02  0.78661736622E+00 -0.13821902030E+01  0.12458486402E+02  0.51100000000E-03 0.  1.
         12    1    3    3    0    0 -0.52883856253E+01  0.15440827879E+01  0.58657182323E-02  0.55091967277E+01  0.00000000000E+00 0. -1.
</event>
<event>
 7    1  0.2812635E-010  0.4778727E+02  0.7816164E-02  0.1312668E+00
        -11   -1    0    0    0    0  0.00000000000E+00  0.00000000000E+00  0.45593999997E+02  0.45594000000E+02  0.51100000000E-03 0.  1.
         11   -1    0    0    0    0 -0.00000000000E+00 -0.00000000000E+00 -0.45593999997E+02  0.45594000000E+02  0.51100000000E-03 0. -1.
    9900012    2    1    2    0    0 -0.34768523882E+02 -0.25618043182E+02 -0.42998567590E+01  0.47787272385E+02  0.20000006112E+02 0.  0.
         12    1    1    2    0    0  0.34768523882E+02  0.25618043182E+02  0.42998567590E+01  0.43400727615E+02  0.00000000000E+00 0. -1.
         11    1    3    3    0    0 -0.75464740400E+01 -0.10726387581E+02 -0.14982153469E+01  0.13200352664E+02  0.51100000000E-03 0. -1.
        -11    1    3    3    0    0 -0.24743705923E+02 -0.17821767105E+02 -0.34734124265E+01  0.30690893759E+02  0.51100000000E-03 0.  1.
        -12    1    3    3    0    0 -0.24783439183E+01  0.29301115039E+01  0.67177101441E+00  0.38960259623E+01  0.00000000000E+00 0.  1.
</event>
<event>
 7    1  0.2812635E-010  0.4778727E+02  0.7816164E-02  0.1312668E+00
        -11   -1    0    0    0    0  0.00000000000E+00  0.00000000000E+00  0.45593999997E+02  0.45594000000E+02  0.51100000000E-03 0. -1.
         11   -1    0    0    0    0 -0.00000000000E+00 -0.00000000000E+00 -0.45593999997E+02  0.45594000000E+02  0.51100000000E-03 0.  1.
    9900012    2    1    2    0    0  0.29340207331E+02 -0.30056615682E+02  0.10925915534E+02  0.47787267947E+02  0.19999985876E+02 0.  0.
         12    1    1    2    0    0 -0.29340207331E+02  0.30056615682E+02 -0.10925915534E+02  0.43400732053E+02  0.00000000000E+00 0. -1.
         11    1    3    3    0    0 -0.57378799765E-01 -0.33686233234E+01 -0.29844258167E+01  0.45008569338E+01  0.51100000000E-03 0. -1.
        -11    1    3    3    0    0  0.14331884619E+02 -0.16455667393E+02  0.29228548710E+01  0.22016697912E+02  0.51100000000E-03 0.  1.
         12    1    3    3    0    0  0.15065701512E+02 -0.10232324966E+02  0.10987486480E+02  0.21269713101E+02  0.00000000000E+00 0. -1.
</event>
<event>
 7    1  0.2812635E-010  0.4778728E+02  0.7816164E-02  0.1312668E+00
        -11   -1    0    0    0    0  0.00000000000E+00  0.00000000000E+00  0.45593999997E+02  0.45594000000E+02  0.51100000000E-03 0. -1.
         11   -1    0    0    0    0 -0.00000000000E+00 -0.00000000000E+00 -0.45593999997E+02  0.45594000000E+02  0.51100000000E-03 0.  1.
    9900012    2    1    2    0    0  0.31493085528E+02  0.28712565295E+02 -0.82095391311E+01  0.47787281404E+02  0.20000047234E+02 0.  0.
         12    1    1    2    0    0 -0.31493085528E+02 -0.28712565295E+02  0.82095391311E+01  0.43400718596E+02  0.00000000000E+00 0. -1.
         11    1    3    3    0    0  0.45643810822E+01 -0.26688215737E+01 -0.18635910258E+01  0.56061711558E+01  0.51100000000E-03 0. -1.
        -11    1    3    3    0    0  0.79960167374E+01  0.13251239959E+02 -0.28175401112E+01  0.15731184846E+02  0.51100000000E-03 0.  1.
         12    1    3    3    0    0  0.18932687708E+02  0.18130146910E+02 -0.35284079941E+01  0.26449925403E+02  0.00000000000E+00 0. -1.
</event>
<event>
 7    1  0.2812635E-010  0.4778727E+02  0.7816164E-02  0.1312668E+00
        -11   -1    0    0    0    0  0.00000000000E+00  0.00000000000E+00  0.45593999997E+02  0.45594000000E+02  0.51100000000E-03 0. -1.
         11   -1    0    0    0    0 -0.00000000000E+00 -0.00000000000E+00 -0.45593999997E+02  0.45594000000E+02  0.51100000000E-03 0.  1.
    9900012    2    1    2    0    0  0.38275297596E+02 -0.12993824765E+02  0.15804606100E+02  0.47787268877E+02  0.19999990116E+02 0.  0.
         12    1    1    2    0    0 -0.38275297596E+02  0.12993824765E+02 -0.15804606100E+02  0.43400731123E+02  0.00000000000E+00 0. -1.
         11    1    3    3    0    0  0.17632824980E+02 -0.11718887038E+01  0.61376029739E+01  0.18707218137E+02  0.51100000000E-03 0. -1.
        -11    1    3    3    0    0  0.18505458491E+02 -0.61897806941E+01  0.24299138166E+01  0.19663922814E+02  0.51100000000E-03 0.  1.
         12    1    3    3    0    0  0.21370141254E+01 -0.56321553671E+01  0.72370893093E+01  0.94161279262E+01  0.00000000000E+00 0. -1.
</event>
<event>
 7    1  0.2812635E-010  0.4778727E+02  0.7816164E-02  0.1312668E+00
        -11   -1    0    0    0    0  0.00000000000E+00  0.00000000000E+00  0.45593999997E+02  0.45594000000E+02  0.51100000000E-03 0.  1.
         11   -1    0    0    0    0 -0.00000000000E+00 -0.00000000000E+00 -0.45593999997E+02  0.45594000000E+02  0.51100000000E-03 0. -1.
    9900012    2    1    2    0    0  0.18309969501E+02  0.36605028614E+02  0.14437462634E+02  0.47787269243E+02  0.19999991786E+02 0.  0.
         12    1    1    2    0    0 -0.18309969501E+02 -0.36605028614E+02 -0.14437462634E+02  0.43400730757E+02  0.00000000000E+00 0. -1.
         11    1    3    3    0    0  0.10356882307E+02  0.23421587333E+02 -0.29717403228E+00  0.25611014760E+02  0.51100000000E-03 0. -1.
        -11    1    3    3    0    0  0.45223300246E+01  0.22323478418E+01  0.53426982638E+01  0.73470586453E+01  0.51100000000E-03 0.  1.
         12    1    3    3    0    0  0.34307571689E+01  0.10951093439E+02  0.93919384023E+01  0.14829195838E+02  0.00000000000E+00 0. -1.
</event>
<event>
 7    1  0.2812635E-010  0.4778728E+02  0.7816164E-02  0.1312668E+00
        -11   -1    0    0    0    0  0.00000000000E+00  0.00000000000E+00  0.45593999997E+02  0.45594000000E+02  0.51100000000E-03 0.  1.
         11   -1    0    0    0    0 -0.00000000000E+00 -0.00000000000E+00 -0.45593999997E+02  0.45594000000E+02  0.51100000000E-03 0. -1.
    9900012    2    1    2    0    0 -0.24239068581E+02  0.34786051078E+02 -0.92747290486E+01  0.47787281179E+02  0.20000046206E+02 0.  0.
         12    1    1    2    0    0  0.24239068581E+02 -0.34786051078E+02  0.92747290486E+01  0.43400718821E+02  0.00000000000E+00 0. -1.
         11    1    3    3    0    0 -0.20506461389E+02  0.23588870812E+02 -0.14390242599E+02  0.34409720534E+02  0.51100000000E-03 0. -1.
        -11    1    3    3    0    0 -0.44465916888E+01  0.10083246056E+02  0.47825743064E+01  0.12013202984E+02  0.51100000000E-03 0.  1.
         12    1    3    3    0    0  0.71398449720E+00  0.11139342101E+01  0.33293924377E+00  0.13643576608E+01  0.00000000000E+00 0. -1.
</event>
<event>
 7    1  0.2812635E-010  0.4778727E+02  0.7816164E-02  0.1312668E+00
        -11   -1    0    0    0    0  0.00000000000E+00  0.00000000000E+00  0.45593999997E+02  0.45594000000E+02  0.51100000000E-03 0.  1.
         11   -1    0    0    0    0 -0.00000000000E+00 -0.00000000000E+00 -0.45593999997E+02  0.45594000000E+02  0.51100000000E-03 0. -1.
    9900012    2    1    2    0    0  0.49802924209E+01 -0.38051542942E+02  0.20270672239E+02  0.47787269753E+02  0.19999994114E+02 0.  0.
         12    1    1    2    0    0 -0.49802924209E+01  0.38051542942E+02 -0.20270672239E+02  0.43400730247E+02  0.00000000000E+00 0. -1.
         11    1    3    3    0    0  0.24946026998E+01 -0.24685681050E+01  0.45137745978E+01  0.57176072356E+01  0.51100000000E-03 0. -1.
        -11    1    3    3    0    0 -0.43182013286E+00  0.55735053356E+00 -0.16909756668E+01  0.18320772940E+01  0.51100000000E-03 0.  1.
        -12    1    3    3    0    0  0.29175098539E+01 -0.36140325371E+02  0.17447873308E+02  0.40237585224E+02  0.00000000000E+00 0.  1.
</event>
<event>
 7    1  0.2812635E-010  0.4778727E+02  0.7816164E-02  0.1312668E+00
        -11   -1    0    0    0    0  0.00000000000E+00  0.00000000000E+00  0.45593999997E+02  0.45594000000E+02  0.51100000000E-03 0.  1.
         11   -1    0    0    0    0 -0.00000000000E+00 -0.00000000000E+00 -0.45593999997E+02  0.45594000000E+02  0.51100000000E-03 0. -1.
    9900012    2    1    2    0    0  0.42455564428E+02  0.39026821211E+01  0.81189779749E+01  0.47787266343E+02  0.19999978564E+02 0.  0.
         12    1    1    2    0    0 -0.42455564428E+02 -0.39026821211E+01 -0.81189779749E+01  0.43400733657E+02  0.00000000000E+00 0. -1.
         11    1    3    3    0    0  0.12143918340E+02  0.55628915289E+01 -0.11148491864E+01  0.13403857795E+02  0.51100000000E-03 0. -1.
        -11    1    3    3    0    0  0.31082852291E+02 -0.20326717889E+01  0.69095782890E+01  0.31906390168E+02  0.51100000000E-03 0.  1.
        -12    1    3    3    0    0 -0.77120620378E+00  0.37246238113E+00  0.23242488723E+01  0.24770183799E+01  0.00000000000E+00 0.  1.
</event>
<event>
 7    1  0.2812635E-010  0.4778727E+02  0.7816164E-02  0.1312668E+00
        -11   -1    0    0    0    0  0.00000000000E+00  0.00000000000E+00  0.45593999997E+02  0.45594000000E+02  0.51100000000E-03 0.  1.
         11   -1    0    0    0    0 -0.00000000000E+00 -0.00000000000E+00 -0.45593999997E+02  0.45594000000E+02  0.51100000000E-03 0. -1.
    9900012    2    1    2    0    0 -0.36187962879E+01 -0.45274761489E+01  0.43011969283E+02  0.47787271567E+02  0.20000002384E+02 0.  0.
         12    1    1    2    0    0  0.36187962879E+01  0.45274761489E+01 -0.43011969283E+02  0.43400728433E+02  0.00000000000E+00 0. -1.
         11    1    3    3    0    0  0.27076553417E+01 -0.63947480092E+01  0.28559222825E+02  0.29391383230E+02  0.51100000000E-03 0. -1.
        -11    1    3    3    0    0 -0.34692748637E+01  0.50173935706E+01  0.12062969166E+02  0.13517593413E+02  0.51100000000E-03 0.  1.
         12    1    3    3    0    0 -0.28571767659E+01 -0.31501217104E+01  0.23897772927E+01  0.48782949245E+01  0.00000000000E+00 0. -1.
</event>
<event>
 7    1  0.2812635E-010  0.4778727E+02  0.7816164E-02  0.1312668E+00
        -11   -1    0    0    0    0  0.00000000000E+00  0.00000000000E+00  0.45593999997E+02  0.45594000000E+02  0.51100000000E-03 0. -1.
         11   -1    0    0    0    0 -0.00000000000E+00 -0.00000000000E+00 -0.45593999997E+02  0.45594000000E+02  0.51100000000E-03 0.  1.
    9900012    2    1    2    0    0 -0.25348604224E+01 -0.12405479048E+02 -0.41512671136E+02  0.47787270828E+02  0.19999999014E+02 0.  0.
         12    1    1    2    0    0  0.25348604224E+01  0.12405479048E+02  0.41512671136E+02  0.43400729172E+02  0.00000000000E+00 0. -1.
         11    1    3    3    0    0 -0.10440630239E+02 -0.52953900788E+01 -0.28127793184E+02  0.30466714058E+02  0.51100000000E-03 0. -1.
        -11    1    3    3    0    0  0.32175855591E+01 -0.34154206508E+01 -0.38417429962E+01  0.60643997693E+01  0.51100000000E-03 0.  1.
         12    1    3    3    0    0  0.46881842576E+01 -0.36946683185E+01 -0.95431349567E+01  0.11256157000E+02  0.00000000000E+00 0. -1.
</event>
<event>
 7    1  0.2812635E-010  0.4778727E+02  0.7816164E-02  0.1312668E+00
        -11   -1    0    0    0    0  0.00000000000E+00  0.00000000000E+00  0.45593999997E+02  0.45594000000E+02  0.51100000000E-03 0. -1.
         11   -1    0    0    0    0 -0.00000000000E+00 -0.00000000000E+00 -0.45593999997E+02  0.45594000000E+02  0.51100000000E-03 0.  1.
    9900012    2    1    2    0    0  0.42427413404E+02  0.58186257934E+01 -0.70484930159E+01  0.47787273416E+02  0.20000010811E+02 0.  0.
         12    1    1    2    0    0 -0.42427413404E+02 -0.58186257934E+01  0.70484930159E+01  0.43400726584E+02  0.00000000000E+00 0. -1.
         11    1    3    3    0    0  0.62751044655E+01 -0.14399745055E+01 -0.54023858057E+00  0.64608297157E+01  0.51100000000E-03 0. -1.
        -11    1    3    3    0    0  0.23222938495E+02  0.21266287060E+01  0.42964666594E+01  0.23712592604E+02  0.51100000000E-03 0.  1.
        -12    1    3    3    0    0  0.12929370443E+02  0.51319715929E+01 -0.10804721095E+02  0.17613851096E+02  0.00000000000E+00 0.  1.
</event>
<event>
 7    1  0.2812635E-010  0.4778727E+02  0.7816164E-02  0.1312668E+00
        -11   -1    0    0    0    0  0.00000000000E+00  0.00000000000E+00  0.45593999997E+02  0.45594000000E+02  0.51100000000E-03 0.  1.
         11   -1    0    0    0    0 -0.00000000000E+00 -0.00000000000E+00 -0.45593999997E+02  0.45594000000E+02  0.51100000000E-03 0. -1.
    9900012    2    1    2    0    0  0.11071148426E+01  0.31892752943E+02  0.29415130159E+02  0.47787271022E+02  0.19999999897E+02 0.  0.
         12    1    1    2    0    0 -0.11071148426E+01 -0.31892752943E+02 -0.29415130159E+02  0.43400728978E+02  0.00000000000E+00 0. -1.
         11    1    3    3    0    0  0.52256331171E+01  0.12863039935E+02  0.19378493455E+02  0.23838855817E+02  0.51100000000E-03 0. -1.
        -11    1    3    3    0    0  0.81465506243E+00  0.98462848628E+01  0.91837118246E+01  0.13489015961E+02  0.51100000000E-03 0.  1.
         12    1    3    3    0    0 -0.49331733369E+01  0.91834281452E+01  0.85292487967E+00  0.10459399243E+02  0.00000000000E+00 0. -1.
</event>
<event>
 7    1  0.2812635E-010  0.4778727E+02  0.7816164E-02  0.1312668E+00
        -11   -1    0    0    0    0  0.00000000000E+00  0.00000000000E+00  0.45593999997E+02  0.45594000000E+02  0.51100000000E-03 0.  1.
         11   -1    0    0    0    0 -0.00000000000E+00 -0.00000000000E+00 -0.45593999997E+02  0.45594000000E+02  0.51100000000E-03 0. -1.
    9900012    2    1    2    0    0 -0.31667369962E+02  0.48164483388E+01  0.29284852185E+02  0.47787273481E+02  0.20000011107E+02 0.  0.
         12    1    1    2    0    0  0.31667369962E+02 -0.48164483388E+01 -0.29284852185E+02  0.43400726519E+02  0.00000000000E+00 0. -1.
         11    1    3    3    0    0 -0.41912835089E+01  0.43068093765E+01  0.10452600766E+02  0.12057044725E+02  0.51100000000E-03 0. -1.
        -11    1    3    3    0    0 -0.14191515867E+02 -0.61903264403E+01  0.93514758407E+01  0.18087823658E+02  0.51100000000E-03 0.  1.
        -12    1    3    3    0    0 -0.13284570586E+02  0.66999654026E+01  0.94807755784E+01  0.17642405098E+02  0.00000000000E+00 0.  1.
</event>
<event>
 7    1  0.2812635E-010  0.4778726E+02  0.7816164E-02  0.1312668E+00
        -11   -1    0    0    0    0  0.00000000000E+00  0.00000000000E+00  0.45593999997E+02  0.45594000000E+02  0.51100000000E-03 0.  1.
         11   -1    0    0    0    0 -0.00000000000E+00 -0.00000000000E+00 -0.45593999997E+02  0.45594000000E+02  0.51100000000E-03 0. -1.
    9900012    2    1    2    0    0  0.50368201265E+01 -0.26885977144E+02  0.33695675889E+02  0.47787263858E+02  0.19999967236E+02 0.  0.
         12    1    1    2    0    0 -0.50368201265E+01  0.26885977144E+02 -0.33695675889E+02  0.43400736142E+02  0.00000000000E+00 0. -1.
         11    1    3    3    0    0  0.10420564740E+02 -0.17532667547E+02  0.21433249586E+02  0.29586598130E+02  0.51100000000E-03 0. -1.
        -11    1    3    3    0    0 -0.39842453076E+01 -0.44669695221E+00  0.60266987782E+01  0.72384285078E+01  0.51100000000E-03 0.  1.
        -12    1    3    3    0    0 -0.13994993060E+01 -0.89066126451E+01  0.62357275246E+01  0.10962237220E+02  0.00000000000E+00 0.  1.
</event>
<event>
 7    1  0.2812635E-010  0.4778726E+02  0.7816164E-02  0.1312668E+00
        -11   -1    0    0    0    0  0.00000000000E+00  0.00000000000E+00  0.45593999997E+02  0.45594000000E+02  0.51100000000E-03 0. -1.
         11   -1    0    0    0    0 -0.00000000000E+00 -0.00000000000E+00 -0.45593999997E+02  0.45594000000E+02  0.51100000000E-03 0.  1.
    9900012    2    1    2    0    0  0.80341291313E+01 -0.37122988991E+02 -0.20999057713E+02  0.47787263056E+02  0.19999963576E+02 0.  0.
         12    1    1    2    0    0 -0.80341291313E+01  0.37122988991E+02  0.20999057713E+02  0.43400736944E+02  0.00000000000E+00 0. -1.
         11    1    3    3    0    0  0.11984948913E+01 -0.19075634838E+01  0.32605287292E+01  0.39631094237E+01  0.51100000000E-03 0. -1.
        -11    1    3    3    0    0  0.17339241845E+01 -0.21259833916E+02 -0.17056726724E+02  0.27311516948E+02  0.51100000000E-03 0.  1.
        -12    1    3    3    0    0  0.51017100554E+01 -0.13955591591E+02 -0.72028597183E+01  0.16512636684E+02  0.00000000000E+00 0.  1.
</event>
<event>
 7    1  0.2812635E-010  0.4778727E+02  0.7816164E-02  0.1312668E+00
        -11   -1    0    0    0    0  0.00000000000E+00  0.00000000000E+00  0.45593999997E+02  0.45594000000E+02  0.51100000000E-03 0.  1.
         11   -1    0    0    0    0 -0.00000000000E+00 -0.00000000000E+00 -0.45593999997E+02  0.45594000000E+02  0.51100000000E-03 0. -1.
    9900012    2    1    2    0    0 -0.83691717923E+01  0.37876958110E+02  0.19465775231E+02  0.47787269620E+02  0.19999993506E+02 0.  0.
         12    1    1    2    0    0  0.83691717923E+01 -0.37876958110E+02 -0.19465775231E+02  0.43400730380E+02  0.00000000000E+00 0. -1.
         11    1    3    3    0    0 -0.10627628298E+02  0.29090296496E+02  0.65552550306E+01  0.31656961355E+02  0.51100000000E-03 0.  1.
        -11    1    3    3    0    0 -0.75905447694E-01  0.54442014166E+01  0.87466642671E+01  0.10302874685E+02  0.51100000000E-03 0. -1.
        -12    1    3    3    0    0  0.23343619532E+01  0.33424601967E+01  0.41638559337E+01  0.58274335803E+01  0.00000000000E+00 0.  1.
</event>
<event>
 7    1  0.2812635E-010  0.4778727E+02  0.7816164E-02  0.1312668E+00
        -11   -1    0    0    0    0  0.00000000000E+00  0.00000000000E+00  0.45593999997E+02  0.45594000000E+02  0.51100000000E-03 0.  1.
         11   -1    0    0    0    0 -0.00000000000E+00 -0.00000000000E+00 -0.45593999997E+02  0.45594000000E+02  0.51100000000E-03 0. -1.
    9900012    2    1    2    0    0 -0.26242100826E+02 -0.24484876607E+02  0.24402187611E+02  0.47787265002E+02  0.19999972448E+02 0.  0.
         12    1    1    2    0    0  0.26242100826E+02  0.24484876607E+02 -0.24402187611E+02  0.43400734998E+02  0.00000000000E+00 0. -1.
         11    1    3    3    0    0 -0.41295762233E+00 -0.45210481535E+01  0.80394219285E+01  0.92326981761E+01  0.51100000000E-03 0. -1.
        -11    1    3    3    0    0 -0.21746268845E+02 -0.16902137407E+02  0.18330992180E+02  0.33084856538E+02  0.51100000000E-03 0.  1.
        -12    1    3    3    0    0 -0.40828743585E+01 -0.30616910457E+01 -0.19682264966E+01  0.54697102874E+01  0.00000000000E+00 0.  1.
</event>
<event>
 7    1  0.2812635E-010  0.4778727E+02  0.7816164E-02  0.1312668E+00
        -11   -1    0    0    0    0  0.00000000000E+00  0.00000000000E+00  0.45593999997E+02  0.45594000000E+02  0.51100000000E-03 0.  1.
         11   -1    0    0    0    0 -0.00000000000E+00 -0.00000000000E+00 -0.45593999997E+02  0.45594000000E+02  0.51100000000E-03 0. -1.
    9900012    2    1    2    0    0 -0.15583992747E+01 -0.73402338786E+01  0.42747114477E+02  0.47787269156E+02  0.19999991389E+02 0.  0.
         12    1    1    2    0    0  0.15583992747E+01  0.73402338786E+01 -0.42747114477E+02  0.43400730844E+02  0.00000000000E+00 0. -1.
         11    1    3    3    0    0  0.73381933622E+00  0.66262967951E-01  0.68706613144E+01  0.69100556263E+01  0.51100000000E-03 0. -1.
        -11    1    3    3    0    0  0.19653529727E+01 -0.26244362855E+01  0.34066018491E+02  0.34223440713E+02  0.51100000000E-03 0.  1.
        -12    1    3    3    0    0 -0.42575715836E+01 -0.47820605611E+01  0.18104346715E+01  0.66537728169E+01  0.00000000000E+00 0.  1.
</event>
<event>
 7    1  0.3399182E-010  0.4778727E+02  0.7816164E-02  0.1312668E+00
        -11   -1    0    0    0    0  0.00000000000E+00  0.00000000000E+00  0.45593999997E+02  0.45594000000E+02  0.51100000000E-03 0. -1.
         11   -1    0    0    0    0 -0.00000000000E+00 -0.00000000000E+00 -0.45593999997E+02  0.45594000000E+02  0.51100000000E-03 0.  1.
    9900012    2    1    2    0    0 -0.15448646768E+02 -0.37798231890E+02  0.14705658111E+02  0.47787269575E+02  0.19999993301E+02 0.  0.
         12    1    1    2    0    0  0.15448646768E+02  0.37798231890E+02 -0.14705658111E+02  0.43400730425E+02  0.00000000000E+00 0. -1.
         11    1    3    3    0    0 -0.36632183853E+01 -0.95620247642E+01 -0.30708788322E+01  0.10690265834E+02  0.51100000000E-03 0.  1.
        -11    1    3    3    0    0 -0.13482449009E+02 -0.27633365018E+02  0.17022254600E+02  0.35144508041E+02  0.51100000000E-03 0. -1.
         12    1    3    3    0    0  0.16970206255E+01 -0.60284210756E+00  0.75428234246E+00  0.19524957009E+01  0.00000000000E+00 0. -1.
</event>
<event>
 7    1  0.2812635E-010  0.4778727E+02  0.7816164E-02  0.1312668E+00
        -11   -1    0    0    0    0  0.00000000000E+00  0.00000000000E+00  0.45593999997E+02  0.45594000000E+02  0.51100000000E-03 0.  1.
         11   -1    0    0    0    0 -0.00000000000E+00 -0.00000000000E+00 -0.45593999997E+02  0.45594000000E+02  0.51100000000E-03 0. -1.
    9900012    2    1    2    0    0 -0.88020706762E+01 -0.13990520697E+02  0.40129941468E+02  0.47787270515E+02  0.19999997588E+02 0.  0.
         12    1    1    2    0    0  0.88020706762E+01  0.13990520697E+02 -0.40129941468E+02  0.43400729485E+02  0.00000000000E+00 0. -1.
         11    1    3    3    0    0  0.29599524015E+01  0.11189108288E+01  0.49279302350E+01  0.58564303397E+01  0.51100000000E-03 0. -1.
        -11    1    3    3    0    0 -0.11771852248E+02 -0.16423536183E+02  0.35233182443E+02  0.40616329123E+02  0.51100000000E-03 0.  1.
        -12    1    3    3    0    0  0.98291701755E-02  0.13141046574E+01 -0.31171210026E-01  0.13145110526E+01  0.00000000000E+00 0.  1.
</event>
<event>
 7    1  0.2812635E-010  0.4778727E+02  0.7816164E-02  0.1312668E+00
        -11   -1    0    0    0    0  0.00000000000E+00  0.00000000000E+00  0.45593999997E+02  0.45594000000E+02  0.51100000000E-03 0.  1.
         11   -1    0    0    0    0 -0.00000000000E+00 -0.00000000000E+00 -0.45593999997E+02  0.45594000000E+02  0.51100000000E-03 0. -1.
    9900012    2    1    2    0    0  0.23218899643E+02  0.20290918375E+02  0.30541519251E+02  0.47787273424E+02  0.20000010850E+02 0.  0.
         12    1    1    2    0    0 -0.23218899643E+02 -0.20290918375E+02 -0.30541519251E+02  0.43400726576E+02  0.00000000000E+00 0. -1.
         11    1    3    3    0    0  0.14896395090E+02  0.50413582225E+01  0.80499958344E+01  0.17666927084E+02  0.51100000000E-03 0. -1.
        -11    1    3    3    0    0  0.97119348689E+01  0.15267775927E+02  0.18431791702E+02  0.25829394229E+02  0.51100000000E-03 0.  1.
         12    1    3    3    0    0 -0.13894303155E+01 -0.18215774720E-01  0.40597317152E+01  0.42909521106E+01  0.00000000000E+00 0. -1.
</event>
<event>
 7    1  0.2812635E-010  0.4778727E+02  0.7816164E-02  0.1312668E+00
        -11   -1    0    0    0    0  0.00000000000E+00  0.00000000000E+00  0.45593999997E+02  0.45594000000E+02  0.51100000000E-03 0.  1.
         11   -1    0    0    0    0 -0.00000000000E+00 -0.00000000000E+00 -0.45593999997E+02  0.45594000000E+02  0.51100000000E-03 0. -1.
    9900012    2    1    2    0    0  0.26917231417E+02 -0.20571890686E+02  0.27127171386E+02  0.47787268889E+02  0.19999990173E+02 0.  0.
         12    1    1    2    0    0 -0.26917231417E+02  0.20571890686E+02 -0.27127171386E+02  0.43400731111E+02  0.00000000000E+00 0. -1.
         11    1    3    3    0    0  0.45655625425E+00  0.19503502913E+01  0.13765827087E+01  0.24304917377E+01  0.51100000000E-03 0. -1.
        -11    1    3    3    0    0  0.18951879293E+02 -0.22724066833E+02  0.18383184266E+02  0.34835304020E+02  0.51100000000E-03 0.  1.
        -12    1    3    3    0    0  0.75087958693E+01  0.20182585523E+00  0.73674044118E+01  0.10521473131E+02  0.00000000000E+00 0.  1.
</event>
<event>
 7    1  0.2812635E-010  0.4778727E+02  0.7816164E-02  0.1312668E+00
        -11   -1    0    0    0    0  0.00000000000E+00  0.00000000000E+00  0.45593999997E+02  0.45594000000E+02  0.51100000000E-03 0.  1.
         11   -1    0    0    0    0 -0.00000000000E+00 -0.00000000000E+00 -0.45593999997E+02  0.45594000000E+02  0.51100000000E-03 0. -1.
    9900012    2    1    2    0    0  0.32491624421E+02 -0.24086434852E+01  0.28672560715E+02  0.47787274673E+02  0.20000016544E+02 0.  0.
         12    1    1    2    0    0 -0.32491624421E+02  0.24086434852E+01 -0.28672560715E+02  0.43400725327E+02  0.00000000000E+00 0. -1.
         11    1    3    3    0    0  0.50459396584E+01 -0.77755437259E+00  0.13137198238E+02  0.14094398733E+02  0.51100000000E-03 0.  1.
        -11    1    3    3    0    0  0.19412448892E+02 -0.10379550494E+01  0.43702301809E+01  0.19925346541E+02  0.51100000000E-03 0. -1.
         12    1    3    3    0    0  0.80332358699E+01 -0.59313406314E+00  0.11165132296E+02  0.13767529399E+02  0.00000000000E+00 0. -1.
</event>
<event>
 7    1  0.2812635E-010  0.4778729E+02  0.7816164E-02  0.1312668E+00
        -11   -1    0    0    0    0  0.00000000000E+00  0.00000000000E+00  0.45593999997E+02  0.45594000000E+02  0.51100000000E-03 0.  1.
         11   -1    0    0    0    0 -0.00000000000E+00 -0.00000000000E+00 -0.45593999997E+02  0.45594000000E+02  0.51100000000E-03 0. -1.
    9900012    2    1    2    0    0  0.47505358730E+01  0.36946884455E+02  0.22270644900E+02  0.47787291638E+02  0.20000093896E+02 0.  0.
         12    1    1    2    0    0 -0.47505358730E+01 -0.36946884455E+02 -0.22270644900E+02  0.43400708362E+02  0.00000000000E+00 0. -1.
         11    1    3    3    0    0  0.14275423091E+01  0.14706294982E+02  0.47055893181E+00  0.14782909562E+02  0.51100000000E-03 0. -1.
        -11    1    3    3    0    0  0.14252266826E+01  0.93697343227E+01  0.16351311821E+02  0.18899433614E+02  0.51100000000E-03 0.  1.
         12    1    3    3    0    0  0.18977668813E+01  0.12870855151E+02  0.54487741465E+01  0.14104948463E+02  0.00000000000E+00 0. -1.
</event>
<event>
 7    1  0.2812635E-010  0.4778727E+02  0.7816164E-02  0.1312668E+00
        -11   -1    0    0    0    0  0.00000000000E+00  0.00000000000E+00  0.45593999997E+02  0.45594000000E+02  0.51100000000E-03 0. -1.
         11   -1    0    0    0    0 -0.00000000000E+00 -0.00000000000E+00 -0.45593999997E+02  0.45594000000E+02  0.51100000000E-03 0.  1.
    9900012    2    1    2    0    0  0.33637645476E+02 -0.21170538310E+02 -0.17433890547E+02  0.47787269302E+02  0.19999992056E+02 0.  0.
         12    1    1    2    0    0 -0.33637645476E+02  0.21170538310E+02  0.17433890547E+02  0.43400730698E+02  0.00000000000E+00 0. -1.
         11    1    3    3    0    0  0.54232248090E+00 -0.12967001546E+01  0.15774186584E+01  0.21127694738E+01  0.51100000000E-03 0. -1.
        -11    1    3    3    0    0  0.43121747147E+01 -0.10157974921E+02 -0.65984207798E+01  0.12857622731E+02  0.51100000000E-03 0.  1.
        -12    1    3    3    0    0  0.28783148281E+02 -0.97158632348E+01 -0.12412888425E+02  0.32816877097E+02  0.00000000000E+00 0.  1.
</event>
<event>
 7    1  0.2812635E-010  0.4778727E+02  0.7816164E-02  0.1312668E+00
        -11   -1    0    0    0    0  0.00000000000E+00  0.00000000000E+00  0.45593999997E+02  0.45594000000E+02  0.51100000000E-03 0. -1.
         11   -1    0    0    0    0 -0.00000000000E+00 -0.00000000000E+00 -0.45593999997E+02  0.45594000000E+02  0.51100000000E-03 0.  1.
    9900012    2    1    2    0    0  0.12213119870E+02 -0.39586423362E+02 -0.12937462699E+02  0.47787272441E+02  0.20000006367E+02 0.  0.
         12    1    1    2    0    0 -0.12213119870E+02  0.39586423362E+02  0.12937462699E+02  0.43400727559E+02  0.00000000000E+00 0. -1.
         11    1    3    3    0    0  0.99375149004E+01 -0.33514508541E+02 -0.75872516520E+01  0.35770698526E+02  0.51100000000E-03 0.  1.
        -11    1    3    3    0    0  0.36719152263E+01 -0.51026158289E+01 -0.71637759766E+01  0.95309672243E+01  0.51100000000E-03 0. -1.
         12    1    3    3    0    0 -0.13963102562E+01 -0.96929899179E+00  0.18135649293E+01  0.24856066905E+01  0.00000000000E+00 0. -1.
</event>
<event>
 7    1  0.2812635E-010  0.4778728E+02  0.7816164E-02  0.1312668E+00
        -11   -1    0    0    0    0  0.00000000000E+00  0.00000000000E+00  0.45593999997E+02  0.45594000000E+02  0.51100000000E-03 0. -1.
         11   -1    0    0    0    0 -0.00000000000E+00 -0.00000000000E+00 -0.45593999997E+02  0.45594000000E+02  0.51100000000E-03 0.  1.
    9900012    2    1    2    0    0  0.33409542529E+02  0.14122726852E+02 -0.23832203975E+02  0.47787275443E+02  0.20000020056E+02 0.  0.
         12    1    1    2    0    0 -0.33409542529E+02 -0.14122726852E+02  0.23832203975E+02  0.43400724557E+02  0.00000000000E+00 0. -1.
         11    1    3    3    0    0  0.24418735453E+02  0.10720801010E+02 -0.23656445626E+02  0.35648809733E+02  0.51100000000E-03 0. -1.
        -11    1    3    3    0    0  0.29568576042E+01  0.12548131007E+00 -0.34383378572E+01  0.45366198796E+01  0.51100000000E-03 0.  1.
         12    1    3    3    0    0  0.60339494715E+01  0.32764445316E+01  0.32625795078E+01  0.76018458310E+01  0.00000000000E+00 0. -1.
</event>
<event>
 7    1  0.2812635E-010  0.4778727E+02  0.7816164E-02  0.1312668E+00
        -11   -1    0    0    0    0  0.00000000000E+00  0.00000000000E+00  0.45593999997E+02  0.45594000000E+02  0.51100000000E-03 0.  1.
         11   -1    0    0    0    0 -0.00000000000E+00 -0.00000000000E+00 -0.45593999997E+02  0.45594000000E+02  0.51100000000E-03 0. -1.
    9900012    2    1    2    0    0 -0.56966755111E+01 -0.31763612176E+02  0.29021439447E+02  0.47787272841E+02  0.20000008193E+02 0.  0.
         12    1    1    2    0    0  0.56966755111E+01  0.31763612176E+02 -0.29021439447E+02  0.43400727159E+02  0.00000000000E+00 0. -1.
         11    1    3    3    0    0  0.48686337140E+01 -0.15771758303E+02  0.14765372264E+02  0.22146516036E+02  0.51100000000E-03 0. -1.
        -11    1    3    3    0    0 -0.21667054614E+01 -0.62166098019E+01  0.10181144882E+02  0.12124213845E+02  0.51100000000E-03 0.  1.
         12    1    3    3    0    0 -0.83986037637E+01 -0.97752440713E+01  0.40749223011E+01  0.13516542960E+02  0.00000000000E+00 0. -1.
</event>
<event>
 7    1  0.2812635E-010  0.4778727E+02  0.7816164E-02  0.1312668E+00
        -11   -1    0    0    0    0  0.00000000000E+00  0.00000000000E+00  0.45593999997E+02  0.45594000000E+02  0.51100000000E-03 0. -1.
         11   -1    0    0    0    0 -0.00000000000E+00 -0.00000000000E+00 -0.45593999997E+02  0.45594000000E+02  0.51100000000E-03 0.  1.
    9900012    2    1    2    0    0 -0.20956411089E+02 -0.37851559136E+02 -0.34222116210E+01  0.47787271583E+02  0.20000002455E+02 0.  0.
         12    1    1    2    0    0  0.20956411089E+02  0.37851559136E+02  0.34222116210E+01  0.43400728417E+02  0.00000000000E+00 0. -1.
         11    1    3    3    0    0 -0.17091516319E+02 -0.31579332796E+02 -0.55697075800E+01  0.36337251309E+02  0.51100000000E-03 0. -1.
        -11    1    3    3    0    0 -0.41259853748E+01 -0.59803119005E+00  0.36862862936E+01  0.55650789318E+01  0.51100000000E-03 0.  1.
         12    1    3    3    0    0  0.26109060435E+00 -0.56741951501E+01 -0.15387903346E+01  0.58849413420E+01  0.00000000000E+00 0. -1.
</event>
<event>
 7    1  0.2812635E-010  0.4778727E+02  0.7816164E-02  0.1312668E+00
        -11   -1    0    0    0    0  0.00000000000E+00  0.00000000000E+00  0.45593999997E+02  0.45594000000E+02  0.51100000000E-03 0.  1.
         11   -1    0    0    0    0 -0.00000000000E+00 -0.00000000000E+00 -0.45593999997E+02  0.45594000000E+02  0.51100000000E-03 0. -1.
    9900012    2    1    2    0    0  0.16499094787E+02  0.39902596570E+02  0.43801938138E+01  0.47787269134E+02  0.19999991291E+02 0.  0.
         12    1    1    2    0    0 -0.16499094787E+02 -0.39902596570E+02 -0.43801938138E+01  0.43400730866E+02  0.00000000000E+00 0. -1.
         11    1    3    3    0    0  0.11375499788E+02  0.69805149216E+01  0.37620437615E+01  0.13866598628E+02  0.51100000000E-03 0. -1.
        -11    1    3    3    0    0  0.37500015334E+01  0.23198387992E+02 -0.24634219248E+01  0.23628291618E+02  0.51100000000E-03 0.  1.
         12    1    3    3    0    0  0.13735934660E+01  0.97236936561E+01  0.30815719771E+01  0.10292378888E+02  0.00000000000E+00 0. -1.
</event>
<event>
 7    1  0.2812635E-010  0.4778727E+02  0.7816164E-02  0.1312668E+00
        -11   -1    0    0    0    0  0.00000000000E+00  0.00000000000E+00  0.45593999997E+02  0.45594000000E+02  0.51100000000E-03 0.  1.
         11   -1    0    0    0    0 -0.00000000000E+00 -0.00000000000E+00 -0.45593999997E+02  0.45594000000E+02  0.51100000000E-03 0. -1.
    9900012    2    1    2    0    0 -0.18593137769E+02 -0.32031998238E+02  0.22624538135E+02  0.47787269487E+02  0.19999992901E+02 0.  0.
         12    1    1    2    0    0  0.18593137769E+02  0.32031998238E+02 -0.22624538135E+02  0.43400730513E+02  0.00000000000E+00 0. -1.
         11    1    3    3    0    0 -0.86622667528E+01 -0.22509335587E+02  0.84049476085E+01  0.25541108011E+02  0.51100000000E-03 0. -1.
        -11    1    3    3    0    0 -0.31807262273E+01 -0.59185074702E+01  0.12810192781E+02  0.14465365165E+02  0.51100000000E-03 0.  1.
         12    1    3    3    0    0 -0.67501447888E+01 -0.36041551803E+01  0.14093977459E+01  0.77807963114E+01  0.00000000000E+00 0. -1.
</event>
<event>
 7    1  0.4951790E-010  0.4778727E+02  0.7816164E-02  0.1312668E+00
        -11   -1    0    0    0    0  0.00000000000E+00  0.00000000000E+00  0.45593999997E+02  0.45594000000E+02  0.51100000000E-03 0. -1.
         11   -1    0    0    0    0 -0.00000000000E+00 -0.00000000000E+00 -0.45593999997E+02  0.45594000000E+02  0.51100000000E-03 0.  1.
    9900012    2    1    2    0    0  0.18030713155E+02 -0.32752124252E+02 -0.22041207202E+02  0.47787273338E+02  0.20000010456E+02 0.  0.
         12    1    1    2    0    0 -0.18030713155E+02  0.32752124252E+02  0.22041207202E+02  0.43400726662E+02  0.00000000000E+00 0. -1.
         11    1    3    3    0    0  0.11367256595E+02 -0.57574461904E+01 -0.35487508506E+01  0.13227106335E+02  0.51100000000E-03 0. -1.
        -11    1    3    3    0    0 -0.10157308695E+01 -0.71010696233E+01 -0.15848552876E+01  0.73463368789E+01  0.51100000000E-03 0.  1.
         12    1    3    3    0    0  0.76791874288E+01 -0.19893608438E+02 -0.16907601064E+02  0.27213830124E+02  0.00000000000E+00 0. -1.
</event>
<event>
 7    1  0.2812635E-010  0.4778727E+02  0.7816164E-02  0.1312668E+00
        -11   -1    0    0    0    0  0.00000000000E+00  0.00000000000E+00  0.45593999997E+02  0.45594000000E+02  0.51100000000E-03 0. -1.
         11   -1    0    0    0    0 -0.00000000000E+00 -0.00000000000E+00 -0.45593999997E+02  0.45594000000E+02  0.51100000000E-03 0.  1.
    9900012    2    1    2    0    0  0.43232299720E+02 -0.28525046481E+01 -0.25406289963E+01  0.47787270541E+02  0.19999997705E+02 0.  0.
         12    1    1    2    0    0 -0.43232299720E+02  0.28525046481E+01  0.25406289963E+01  0.43400729459E+02  0.00000000000E+00 0. -1.
         11    1    3    3    0    0  0.18677321274E+02  0.59479906145E+01 -0.39270439277E+01  0.19991062918E+02  0.51100000000E-03 0. -1.
        -11    1    3    3    0    0  0.24821854204E+02 -0.70318856893E+01  0.20695606790E+01  0.25881556061E+02  0.51100000000E-03 0.  1.
        -12    1    3    3    0    0 -0.26687575742E+00 -0.17686095733E+01 -0.68314574759E+00  0.19146515624E+01  0.00000000000E+00 0.  1.
</event>
<event>
 7    1  0.2812635E-010  0.4778727E+02  0.7816164E-02  0.1312668E+00
        -11   -1    0    0    0    0  0.00000000000E+00  0.00000000000E+00  0.45593999997E+02  0.45594000000E+02  0.51100000000E-03 0.  1.
         11   -1    0    0    0    0 -0.00000000000E+00 -0.00000000000E+00 -0.45593999997E+02  0.45594000000E+02  0.51100000000E-03 0. -1.
    9900012    2    1    2    0    0  0.21473708850E+02  0.37192259995E+02  0.62641015972E+01  0.47787270235E+02  0.19999996311E+02 0.  0.
         12    1    1    2    0    0 -0.21473708850E+02 -0.37192259995E+02 -0.62641015972E+01  0.43400729765E+02  0.00000000000E+00 0. -1.
         11    1    3    3    0    0  0.16347276276E+02  0.23578010198E+02  0.53596166386E+01  0.29187009051E+02  0.51100000000E-03 0. -1.
        -11    1    3    3    0    0 -0.24319317381E+01  0.60219136630E+01 -0.30571903472E+01  0.71780324061E+01  0.51100000000E-03 0.  1.
         12    1    3    3    0    0  0.75583643120E+01  0.75923361339E+01  0.39616753058E+01  0.11422228779E+02  0.00000000000E+00 0. -1.
</event>
<event>
 7    1  0.2812635E-010  0.4778727E+02  0.7816164E-02  0.1312668E+00
        -11   -1    0    0    0    0  0.00000000000E+00  0.00000000000E+00  0.45593999997E+02  0.45594000000E+02  0.51100000000E-03 0.  1.
         11   -1    0    0    0    0 -0.00000000000E+00 -0.00000000000E+00 -0.45593999997E+02  0.45594000000E+02  0.51100000000E-03 0. -1.
    9900012    2    1    2    0    0  0.17347555355E+02  0.21136799174E+02  0.33703431376E+02  0.47787271404E+02  0.20000001640E+02 0.  0.
         12    1    1    2    0    0 -0.17347555355E+02 -0.21136799174E+02 -0.33703431376E+02  0.43400728596E+02  0.00000000000E+00 0. -1.
         11    1    3    3    0    0  0.11415998487E+02  0.22331993499E+00  0.10327441221E+02  0.15395809029E+02  0.51100000000E-03 0. -1.
        -11    1    3    3    0    0  0.23913086560E+01  0.14671840110E+02  0.18422027758E+02  0.23671762847E+02  0.51100000000E-03 0.  1.
         12    1    3    3    0    0  0.35402482128E+01  0.62416391284E+01  0.49539623972E+01  0.87196995275E+01  0.00000000000E+00 0. -1.
</event>
<event>
 7    1  0.2812635E-010  0.4778727E+02  0.7816164E-02  0.1312668E+00
        -11   -1    0    0    0    0  0.00000000000E+00  0.00000000000E+00  0.45593999997E+02  0.45594000000E+02  0.51100000000E-03 0.  1.
         11   -1    0    0    0    0 -0.00000000000E+00 -0.00000000000E+00 -0.45593999997E+02  0.45594000000E+02  0.51100000000E-03 0. -1.
    9900012    2    1    2    0    0  0.30707283179E+02  0.26507483226E+02  0.15428525395E+02  0.47787270708E+02  0.19999998466E+02 0.  0.
         12    1    1    2    0    0 -0.30707283179E+02 -0.26507483226E+02 -0.15428525395E+02  0.43400729292E+02  0.00000000000E+00 0. -1.
         11    1    3    3    0    0  0.84677198832E+01  0.45880415577E+01  0.45654377096E+01  0.10658124933E+02  0.51100000000E-03 0. -1.
        -11    1    3    3    0    0  0.38952969444E+00  0.42600323665E+00  0.60815821573E+01  0.61089159380E+01  0.51100000000E-03 0.  1.
        -12    1    3    3    0    0  0.21850033601E+02  0.21493438431E+02  0.47815055284E+01  0.31020229836E+02  0.00000000000E+00 0.  1.
</event>
<event>
 7    1  0.2812635E-010  0.4778727E+02  0.7816164E-02  0.1312668E+00
        -11   -1    0    0    0    0  0.00000000000E+00  0.00000000000E+00  0.45593999997E+02  0.45594000000E+02  0.51100000000E-03 0. -1.
         11   -1    0    0    0    0 -0.00000000000E+00 -0.00000000000E+00 -0.45593999997E+02  0.45594000000E+02  0.51100000000E-03 0.  1.
    9900012    2    1    2    0    0 -0.99841055862E+01  0.34456957877E+02 -0.24426606073E+02  0.47787269652E+02  0.19999993651E+02 0.  0.
         12    1    1    2    0    0  0.99841055862E+01 -0.34456957877E+02  0.24426606073E+02  0.43400730348E+02  0.00000000000E+00 0. -1.
         11    1    3    3    0    0  0.61999358113E+00  0.48675937368E+01 -0.12172962516E+02  0.13124742950E+02  0.51100000000E-03 0. -1.
        -11    1    3    3    0    0 -0.10924195354E+02  0.22846283497E+02 -0.75168664197E+01  0.26415790634E+02  0.51100000000E-03 0.  1.
         12    1    3    3    0    0  0.32009618709E+00  0.67430806431E+01 -0.47367771371E+01  0.82467360679E+01  0.00000000000E+00 0. -1.
</event>
<event>
 7    1  0.2812635E-010  0.4778727E+02  0.7816164E-02  0.1312668E+00
        -11   -1    0    0    0    0  0.00000000000E+00  0.00000000000E+00  0.45593999997E+02  0.45594000000E+02  0.51100000000E-03 0.  1.
         11   -1    0    0    0    0 -0.00000000000E+00 -0.00000000000E+00 -0.45593999997E+02  0.45594000000E+02  0.51100000000E-03 0. -1.
    9900012    2    1    2    0    0 -0.20859484207E+02  0.55908232813E+01  0.37646356142E+02  0.47787268242E+02  0.19999987223E+02 0.  0.
         12    1    1    2    0    0  0.20859484207E+02 -0.55908232813E+01 -0.37646356142E+02  0.43400731758E+02  0.00000000000E+00 0. -1.
         11    1    3    3    0    0 -0.14200876326E+02  0.79053230943E+01  0.11565950733E+02  0.19948188847E+02  0.51100000000E-03 0. -1.
        -11    1    3    3    0    0 -0.32365674163E+01  0.20332426949E+01  0.70353501872E+01  0.80065970932E+01  0.51100000000E-03 0.  1.
         12    1    3    3    0    0 -0.34220404645E+01 -0.43477425079E+01  0.19045055222E+02  0.19832482302E+02  0.00000000000E+00 0. -1.
</event>
<event>
 7    1  0.2812635E-010  0.4778727E+02  0.7816164E-02  0.1312668E+00
        -11   -1    0    0    0    0  0.00000000000E+00  0.00000000000E+00  0.45593999997E+02  0.45594000000E+02  0.51100000000E-03 0.  1.
         11   -1    0    0    0    0 -0.00000000000E+00 -0.00000000000E+00 -0.45593999997E+02  0.45594000000E+02  0.51100000000E-03 0. -1.
    9900012    2    1    2    0    0  0.31416911764E+02  0.61858988430E+01  0.29297363787E+02  0.47787271733E+02  0.20000003138E+02 0.  0.
         12    1    1    2    0    0 -0.31416911764E+02 -0.61858988430E+01 -0.29297363787E+02  0.43400728267E+02  0.00000000000E+00 0. -1.
         11    1    3    3    0    0  0.24097955825E+02  0.96127007376E+01  0.12526802807E+02  0.28810350210E+02  0.51100000000E-03 0. -1.
        -11    1    3    3    0    0  0.45816953111E+01 -0.33855759692E+00  0.10609584179E+02  0.11561566930E+02  0.51100000000E-03 0.  1.
         12    1    3    3    0    0  0.27372606277E+01 -0.30882442977E+01  0.61609768006E+01  0.74153545919E+01  0.00000000000E+00 0. -1.
</event>
<event>
 7    1  0.2812635E-010  0.4778727E+02  0.7816164E-02  0.1312668E+00
        -11   -1    0    0    0    0  0.00000000000E+00  0.00000000000E+00  0.45593999997E+02  0.45594000000E+02  0.51100000000E-03 0.  1.
         11   -1    0    0    0    0 -0.00000000000E+00 -0.00000000000E+00 -0.45593999997E+02  0.45594000000E+02  0.51100000000E-03 0. -1.
    9900012    2    1    2    0    0 -0.22973467821E+01 -0.31621947956E+01  0.43224368099E+02  0.47787271023E+02  0.19999999904E+02 0.  0.
         12    1    1    2    0    0  0.22973467821E+01  0.31621947956E+01 -0.43224368099E+02  0.43400728977E+02  0.00000000000E+00 0. -1.
         11    1    3    3    0    0 -0.44264450964E+01  0.70333750293E+01  0.18345367138E+02  0.20139867830E+02  0.51100000000E-03 0.  1.
        -11    1    3    3    0    0  0.29664247093E+01 -0.98651764782E+01  0.18242915470E+02  0.20950545282E+02  0.51100000000E-03 0. -1.
         12    1    3    3    0    0 -0.83732639503E+00 -0.33039334664E+00  0.66360854901E+01  0.66968579115E+01  0.00000000000E+00 0. -1.
</event>
<event>
 7    1  0.2812635E-010  0.4778727E+02  0.7816164E-02  0.1312668E+00
        -11   -1    0    0    0    0  0.00000000000E+00  0.00000000000E+00  0.45593999997E+02  0.45594000000E+02  0.51100000000E-03 0.  1.
         11   -1    0    0    0    0 -0.00000000000E+00 -0.00000000000E+00 -0.45593999997E+02  0.45594000000E+02  0.51100000000E-03 0. -1.
    9900012    2    1    2    0    0 -0.25099169251E+02  0.16243403462E+02 -0.31461196721E+02  0.47787270141E+02  0.19999995883E+02 0.  0.
         12    1    1    2    0    0  0.25099169251E+02 -0.16243403462E+02  0.31461196721E+02  0.43400729859E+02  0.00000000000E+00 0. -1.
         11    1    3    3    0    0 -0.24277152392E+02  0.18444375794E+02 -0.29792347368E+02  0.42628149018E+02  0.51100000000E-03 0. -1.
        -11    1    3    3    0    0 -0.22606925263E+01 -0.24489138185E+01 -0.69590409688E+00  0.34047308796E+01  0.51100000000E-03 0.  1.
         12    1    3    3    0    0  0.14386756676E+01  0.24794148717E+00 -0.97294525602E+00  0.17543902442E+01  0.00000000000E+00 0. -1.
</event>
<event>
 7    1  0.2812635E-010  0.4778731E+02  0.7816164E-02  0.1312668E+00
        -11   -1    0    0    0    0  0.00000000000E+00  0.00000000000E+00  0.45593999997E+02  0.45594000000E+02  0.51100000000E-03 0.  1.
         11   -1    0    0    0    0 -0.00000000000E+00 -0.00000000000E+00 -0.45593999997E+02  0.45594000000E+02  0.51100000000E-03 0. -1.
    9900012    2    1    2    0    0  0.23436843704E+01 -0.42506678473E+02  0.84445014260E+01  0.47787306738E+02  0.20000162742E+02 0.  0.
         12    1    1    2    0    0 -0.23436843704E+01  0.42506678473E+02 -0.84445014260E+01  0.43400693262E+02  0.00000000000E+00 0. -1.
         11    1    3    3    0    0  0.52819881111E+00 -0.28977392286E+01  0.34180960623E+01  0.45121245077E+01  0.51100000000E-03 0. -1.
        -11    1    3    3    0    0 -0.43624174672E+01 -0.19732851492E+01  0.12558294111E+01  0.49499139597E+01  0.51100000000E-03 0.  1.
        -12    1    3    3    0    0  0.61779030265E+01 -0.37635654096E+02  0.37705759525E+01  0.38325268271E+02  0.00000000000E+00 0.  1.
</event>
<event>
 7    1  0.2812635E-010  0.4778727E+02  0.7816164E-02  0.1312668E+00
        -11   -1    0    0    0    0  0.00000000000E+00  0.00000000000E+00  0.45593999997E+02  0.45594000000E+02  0.51100000000E-03 0.  1.
         11   -1    0    0    0    0 -0.00000000000E+00 -0.00000000000E+00 -0.45593999997E+02  0.45594000000E+02  0.51100000000E-03 0. -1.
    9900012    2    1    2    0    0  0.20277745094E+02  0.19349935246E+01  0.38323518591E+02  0.47787271628E+02  0.20000002659E+02 0.  0.
         12    1    1    2    0    0 -0.20277745094E+02 -0.19349935246E+01 -0.38323518591E+02  0.43400728372E+02  0.00000000000E+00 0. -1.
         11    1    3    3    0    0  0.10152474657E+02  0.45172942576E+01  0.21937538817E+02  0.24591346011E+02  0.51100000000E-03 0. -1.
        -11    1    3    3    0    0  0.52808632865E+01 -0.30946787395E+00  0.17005338369E+02  0.17809121841E+02  0.51100000000E-03 0.  1.
         12    1    3    3    0    0  0.48444071507E+01 -0.22728328590E+01 -0.61935859460E+00  0.53868037755E+01  0.00000000000E+00 0. -1.
</event>
<event>
 7    1  0.2812635E-010  0.4778727E+02  0.7816164E-02  0.1312668E+00
        -11   -1    0    0    0    0  0.00000000000E+00  0.00000000000E+00  0.45593999997E+02  0.45594000000E+02  0.51100000000E-03 0.  1.
         11   -1    0    0    0    0 -0.00000000000E+00 -0.00000000000E+00 -0.45593999997E+02  0.45594000000E+02  0.51100000000E-03 0. -1.
    9900012    2    1    2    0    0  0.40243727763E+02  0.15588241525E+02  0.45904502325E+01  0.47787272685E+02  0.20000007482E+02 0.  0.
         12    1    1    2    0    0 -0.40243727763E+02 -0.15588241525E+02 -0.45904502325E+01  0.43400727315E+02  0.00000000000E+00 0. -1.
         11    1    3    3    0    0  0.20233066277E+01 -0.14800048629E+01  0.29319539914E+01  0.38575301130E+01  0.51100000000E-03 0. -1.
        -11    1    3    3    0    0  0.24663591834E+02  0.93234118427E+01 -0.52029299230E+01  0.26875439542E+02  0.51100000000E-03 0.  1.
        -12    1    3    3    0    0  0.13556829302E+02  0.77448345455E+01  0.68614261641E+01  0.17054303031E+02  0.00000000000E+00 0.  1.
</event>
<event>
 7    1  0.2812635E-010  0.4778726E+02  0.7816164E-02  0.1312668E+00
        -11   -1    0    0    0    0  0.00000000000E+00  0.00000000000E+00  0.45593999997E+02  0.45594000000E+02  0.51100000000E-03 0. -1.
         11   -1    0    0    0    0 -0.00000000000E+00 -0.00000000000E+00 -0.45593999997E+02  0.45594000000E+02  0.51100000000E-03 0.  1.
    9900012    2    1    2    0    0 -0.24112547746E+02 -0.66208982788E+01 -0.35473548830E+02  0.47787263607E+02  0.19999966089E+02 0.  0.
         12    1    1    2    0    0  0.24112547746E+02  0.66208982788E+01  0.35473548830E+02  0.43400736393E+02  0.00000000000E+00 0. -1.
         11    1    3    3    0    0 -0.40395697757E+01 -0.50623018714E+01 -0.18597447638E+02  0.19692894229E+02  0.51100000000E-03 0.  1.
        -11    1    3    3    0    0 -0.20821116143E+02 -0.27985298835E+01 -0.15648706357E+02  0.26196042791E+02  0.51100000000E-03 0. -1.
         12    1    3    3    0    0  0.74813817269E+00  0.12399334761E+01 -0.12273948354E+01  0.18983265875E+01  0.00000000000E+00 0. -1.
</event>
<event>
 7    1  0.2812635E-010  0.4778727E+02  0.7816164E-02  0.1312668E+00
        -11   -1    0    0    0    0  0.00000000000E+00  0.00000000000E+00  0.45593999997E+02  0.45594000000E+02  0.51100000000E-03 0. -1.
         11   -1    0    0    0    0 -0.00000000000E+00 -0.00000000000E+00 -0.45593999997E+02  0.45594000000E+02  0.51100000000E-03 0.  1.
    9900012    2    1    2    0    0  0.31500430391E+01 -0.49106081332E+01 -0.43006818386E+02  0.47787271077E+02  0.20000000148E+02 0.  0.
         12    1    1    2    0    0 -0.31500430391E+01  0.49106081332E+01  0.43006818386E+02  0.43400728923E+02  0.00000000000E+00 0. -1.
         11    1    3    3    0    0 -0.49946187058E+01  0.25427266232E+01 -0.21104620357E+02  0.21836132335E+02  0.51100000000E-03 0. -1.
        -11    1    3    3    0    0 -0.15960348913E+01 -0.17385906663E+01 -0.59940455738E+01  0.64419412820E+01  0.51100000000E-03 0.  1.
         12    1    3    3    0    0  0.97406966361E+01 -0.57147440901E+01 -0.15908152455E+02  0.19509197459E+02  0.00000000000E+00 0. -1.
</event>
<event>
 7    1  0.2812635E-010  0.4778727E+02  0.7816164E-02  0.1312668E+00
        -11   -1    0    0    0    0  0.00000000000E+00  0.00000000000E+00  0.45593999997E+02  0.45594000000E+02  0.51100000000E-03 0. -1.
         11   -1    0    0    0    0 -0.00000000000E+00 -0.00000000000E+00 -0.45593999997E+02  0.45594000000E+02  0.51100000000E-03 0.  1.
    9900012    2    1    2    0    0 -0.32345148010E+02 -0.12012260898E+02 -0.26327182441E+02  0.47787267899E+02  0.19999985657E+02 0.  0.
         12    1    1    2    0    0  0.32345148010E+02  0.12012260898E+02  0.26327182441E+02  0.43400732101E+02  0.00000000000E+00 0. -1.
         11    1    3    3    0    0 -0.66477880708E+00 -0.17629047780E+01  0.28234237618E+01  0.33943314686E+01  0.51100000000E-03 0. -1.
        -11    1    3    3    0    0 -0.16261523476E+02 -0.60815886234E+01 -0.13099922761E+02  0.21749272230E+02  0.51100000000E-03 0.  1.
         12    1    3    3    0    0 -0.15418845726E+02 -0.41677674968E+01 -0.16050683442E+02  0.22643664200E+02  0.00000000000E+00 0. -1.
</event>
<event>
 7    1  0.2812635E-010  0.4778727E+02  0.7816164E-02  0.1312668E+00
        -11   -1    0    0    0    0  0.00000000000E+00  0.00000000000E+00  0.45593999997E+02  0.45594000000E+02  0.51100000000E-03 0.  1.
         11   -1    0    0    0    0 -0.00000000000E+00 -0.00000000000E+00 -0.45593999997E+02  0.45594000000E+02  0.51100000000E-03 0. -1.
    9900012    2    1    2    0    0 -0.20735410987E+02 -0.23377784441E+02  0.30118855998E+02  0.47787267739E+02  0.19999984931E+02 0.  0.
         12    1    1    2    0    0  0.20735410987E+02  0.23377784441E+02 -0.30118855998E+02  0.43400732261E+02  0.00000000000E+00 0. -1.
         11    1    3    3    0    0 -0.11437703989E+02 -0.45744221260E+01  0.61035514707E+01  0.13747718034E+02  0.51100000000E-03 0. -1.
        -11    1    3    3    0    0 -0.86171164580E+00 -0.14654561666E+02  0.13640530545E+02  0.20039031873E+02  0.51100000000E-03 0.  1.
        -12    1    3    3    0    0 -0.84359953515E+01 -0.41488006492E+01  0.10374773982E+02  0.14000517832E+02  0.00000000000E+00 0.  1.
</event>
<event>
 7    1  0.2812635E-010  0.4778727E+02  0.7816164E-02  0.1312668E+00
        -11   -1    0    0    0    0  0.00000000000E+00  0.00000000000E+00  0.45593999997E+02  0.45594000000E+02  0.51100000000E-03 0.  1.
         11   -1    0    0    0    0 -0.00000000000E+00 -0.00000000000E+00 -0.45593999997E+02  0.45594000000E+02  0.51100000000E-03 0. -1.
    9900012    2    1    2    0    0 -0.22098911618E+02 -0.25014665928E+02  0.27740364556E+02  0.47787271528E+02  0.20000002205E+02 0.  0.
         12    1    1    2    0    0  0.22098911618E+02  0.25014665928E+02 -0.27740364556E+02  0.43400728472E+02  0.00000000000E+00 0. -1.
         11    1    3    3    0    0 -0.14375034311E+02 -0.84111964157E+01  0.13797857155E+02  0.21628007280E+02  0.51100000000E-03 0. -1.
        -11    1    3    3    0    0  0.14193084719E+01 -0.15958954997E+01 -0.16238640141E+01  0.26829561274E+01  0.51100000000E-03 0.  1.
         12    1    3    3    0    0 -0.91431857795E+01 -0.15007574013E+02  0.15566371415E+02  0.23476308121E+02  0.00000000000E+00 0. -1.
</event>
<event>
 7    1  0.2812635E-010  0.4778727E+02  0.7816164E-02  0.1312668E+00
        -11   -1    0    0    0    0  0.00000000000E+00  0.00000000000E+00  0.45593999997E+02  0.45594000000E+02  0.51100000000E-03 0.  1.
         11   -1    0    0    0    0 -0.00000000000E+00 -0.00000000000E+00 -0.45593999997E+02  0.45594000000E+02  0.51100000000E-03 0. -1.
    9900012    2    1    2    0    0  0.36204838532E+02  0.49228420509E+01  0.23422179996E+02  0.47787271633E+02  0.20000002685E+02 0.  0.
         12    1    1    2    0    0 -0.36204838532E+02 -0.49228420509E+01 -0.23422179996E+02  0.43400728367E+02  0.00000000000E+00 0. -1.
         11    1    3    3    0    0  0.23844736707E+02  0.38316613353E+01  0.44588625198E+01  0.24558797862E+02  0.51100000000E-03 0. -1.
        -11    1    3    3    0    0  0.31971985028E+01 -0.15465433443E+01  0.30709939167E+01  0.46951973845E+01  0.51100000000E-03 0.  1.
         12    1    3    3    0    0  0.91629033226E+01  0.26377240599E+01  0.15892323559E+02  0.18533276387E+02  0.00000000000E+00 0. -1.
</event>
<event>
 7    1  0.2812635E-010  0.4778727E+02  0.7816164E-02  0.1312668E+00
        -11   -1    0    0    0    0  0.00000000000E+00  0.00000000000E+00  0.45593999997E+02  0.45594000000E+02  0.51100000000E-03 0.  1.
         11   -1    0    0    0    0 -0.00000000000E+00 -0.00000000000E+00 -0.45593999997E+02  0.45594000000E+02  0.51100000000E-03 0. -1.
    9900012    2    1    2    0    0  0.35021025936E+02 -0.24034329341E+02  0.89163879380E+01  0.47787271684E+02  0.20000002916E+02 0.  0.
         12    1    1    2    0    0 -0.35021025936E+02  0.24034329341E+02 -0.89163879380E+01  0.43400728316E+02  0.00000000000E+00 0. -1.
         11    1    3    3    0    0  0.38462152061E+00  0.12439547230E+01 -0.22287089973E+00  0.13209953694E+01  0.51100000000E-03 0. -1.
        -11    1    3    3    0    0  0.21135728865E+02 -0.11312282470E+02 -0.20316135443E+01  0.24058558211E+02  0.51100000000E-03 0.  1.
        -12    1    3    3    0    0  0.13500675551E+02 -0.13966001594E+02  0.11170872382E+02  0.22407718104E+02  0.00000000000E+00 0.  1.
</event>
<event>
 7    1  0.2812635E-010  0.4778727E+02  0.7816164E-02  0.1312668E+00
        -11   -1    0    0    0    0  0.00000000000E+00  0.00000000000E+00  0.45593999997E+02  0.45594000000E+02  0.51100000000E-03 0. -1.
         11   -1    0    0    0    0 -0.00000000000E+00 -0.00000000000E+00 -0.45593999997E+02  0.45594000000E+02  0.51100000000E-03 0.  1.
    9900012    2    1    2    0    0  0.15205401676E+02  0.38898715492E+02  0.11802917270E+02  0.47787272320E+02  0.20000005816E+02 0.  0.
         12    1    1    2    0    0 -0.15205401676E+02 -0.38898715492E+02 -0.11802917270E+02  0.43400727680E+02  0.00000000000E+00 0. -1.
         11    1    3    3    0    0  0.39197605295E+01  0.24663490162E+01  0.62824353484E+01  0.78048955308E+01  0.51100000000E-03 0. -1.
        -11    1    3    3    0    0  0.80903259887E+00  0.20086338211E+02  0.15259021470E+01  0.20160453717E+02  0.51100000000E-03 0.  1.
         12    1    3    3    0    0  0.10476608547E+02  0.16346028265E+02  0.39945797742E+01  0.19821923072E+02  0.00000000000E+00 0. -1.
</event>
<event>
 7    1  0.2812635E-010  0.4778727E+02  0.7816164E-02  0.1312668E+00
        -11   -1    0    0    0    0  0.00000000000E+00  0.00000000000E+00  0.45593999997E+02  0.45594000000E+02  0.51100000000E-03 0.  1.
         11   -1    0    0    0    0 -0.00000000000E+00 -0.00000000000E+00 -0.45593999997E+02  0.45594000000E+02  0.51100000000E-03 0. -1.
    9900012    2    1    2    0    0 -0.10067698920E+02 -0.17852910907E+02  0.38256219009E+02  0.47787270948E+02  0.19999999559E+02 0.  0.
         12    1    1    2    0    0  0.10067698920E+02  0.17852910907E+02 -0.38256219009E+02  0.43400729052E+02  0.00000000000E+00 0. -1.
         11    1    3    3    0    0 -0.12854384826E+02 -0.12020732658E+02  0.26531670205E+02  0.31838070717E+02  0.51100000000E-03 0. -1.
        -11    1    3    3    0    0  0.14056234130E+01  0.22267001576E+01  0.26970506181E+01  0.37693571161E+01  0.51100000000E-03 0.  1.
         12    1    3    3    0    0  0.13810624936E+01 -0.80588784062E+01  0.90274981866E+01  0.12179843114E+02  0.00000000000E+00 0. -1.
</event>
<event>
 7    1  0.2812635E-010  0.4778727E+02  0.7816164E-02  0.1312668E+00
        -11   -1    0    0    0    0  0.00000000000E+00  0.00000000000E+00  0.45593999997E+02  0.45594000000E+02  0.51100000000E-03 0.  1.
         11   -1    0    0    0    0 -0.00000000000E+00 -0.00000000000E+00 -0.45593999997E+02  0.45594000000E+02  0.51100000000E-03 0. -1.
    9900012    2    1    2    0    0 -0.17176440864E+02 -0.27541459617E+02  0.28810785551E+02  0.47787268639E+02  0.19999989033E+02 0.  0.
         12    1    1    2    0    0  0.17176440864E+02  0.27541459617E+02 -0.28810785551E+02  0.43400731361E+02  0.00000000000E+00 0. -1.
         11    1    3    3    0    0 -0.11358792465E+02 -0.53750525792E+01  0.13765438771E+02  0.18638687221E+02  0.51100000000E-03 0. -1.
        -11    1    3    3    0    0 -0.16418231814E+01 -0.14268601191E+02  0.39352466179E+01  0.14892102924E+02  0.51100000000E-03 0.  1.
        -12    1    3    3    0    0 -0.41758252176E+01 -0.78978058473E+01  0.11110100162E+02  0.14256478494E+02  0.00000000000E+00 0.  1.
</event>
<event>
 7    1  0.2812635E-010  0.4778728E+02  0.7816164E-02  0.1312668E+00
        -11   -1    0    0    0    0  0.00000000000E+00  0.00000000000E+00  0.45593999997E+02  0.45594000000E+02  0.51100000000E-03 0.  1.
         11   -1    0    0    0    0 -0.00000000000E+00 -0.00000000000E+00 -0.45593999997E+02  0.45594000000E+02  0.51100000000E-03 0. -1.
    9900012    2    1    2    0    0  0.38134821812E+02 -0.20719825105E+02  0.21664932562E+00  0.47787277380E+02  0.20000028887E+02 0.  0.
         12    1    1    2    0    0 -0.38134821812E+02  0.20719825105E+02 -0.21664932562E+00  0.43400722620E+02  0.00000000000E+00 0. -1.
         11    1    3    3    0    0  0.24724575819E+01 -0.76314840291E-01  0.40364040228E+01  0.47340709907E+01  0.51100000000E-03 0. -1.
        -11    1    3    3    0    0  0.14426554194E+02 -0.13420730813E+02 -0.57883508246E+01  0.20536467247E+02  0.51100000000E-03 0.  1.
        -12    1    3    3    0    0  0.21235810036E+02 -0.72227794517E+01  0.19685961274E+01  0.22516739142E+02  0.00000000000E+00 0.  1.
</event>
<event>
 7    1  0.2812635E-010  0.4778727E+02  0.7816164E-02  0.1312668E+00
        -11   -1    0    0    0    0  0.00000000000E+00  0.00000000000E+00  0.45593999997E+02  0.45594000000E+02  0.51100000000E-03 0. -1.
         11   -1    0    0    0    0 -0.00000000000E+00 -0.00000000000E+00 -0.45593999997E+02  0.45594000000E+02  0.51100000000E-03 0.  1.
    9900012    2    1    2    0    0  0.19535318603E+02 -0.29378528145E+02 -0.25276410663E+02  0.47787268153E+02  0.19999986817E+02 0.  0.
         12    1    1    2    0    0 -0.19535318603E+02  0.29378528145E+02  0.25276410663E+02  0.43400731847E+02  0.00000000000E+00 0. -1.
         11    1    3    3    0    0 -0.31606789793E+01 -0.75264406568E+01 -0.89710600826E+01  0.12129184632E+02  0.51100000000E-03 0. -1.
        -11    1    3    3    0    0  0.22337845091E+02 -0.21949228705E+02 -0.16253196790E+02  0.35283344090E+02  0.51100000000E-03 0.  1.
         12    1    3    3    0    0  0.35815249104E+00  0.97141217484E-01 -0.52153790845E-01  0.37473943064E+00  0.00000000000E+00 0. -1.
</event>
<event>
 7    1  0.2812635E-010  0.4778727E+02  0.7816164E-02  0.1312668E+00
        -11   -1    0    0    0    0  0.00000000000E+00  0.00000000000E+00  0.45593999997E+02  0.45594000000E+02  0.51100000000E-03 0.  1.
         11   -1    0    0    0    0 -0.00000000000E+00 -0.00000000000E+00 -0.45593999997E+02  0.45594000000E+02  0.51100000000E-03 0. -1.
    9900012    2    1    2    0    0 -0.42490364022E+02 -0.83355909424E+01  0.29513039371E+01  0.47787270674E+02  0.19999998311E+02 0.  0.
         12    1    1    2    0    0  0.42490364022E+02  0.83355909424E+01 -0.29513039371E+01  0.43400729326E+02  0.00000000000E+00 0. -1.
         11    1    3    3    0    0 -0.22561896614E+02  0.12504694087E+01  0.65122865142E+01  0.23516222666E+02  0.51100000000E-03 0. -1.
        -11    1    3    3    0    0 -0.15976121206E+02 -0.92494810552E+01  0.66842938821E+00  0.18472578236E+02  0.51100000000E-03 0.  1.
         12    1    3    3    0    0 -0.39523462022E+01 -0.33657929581E+00 -0.42294119653E+01  0.57984697720E+01  0.00000000000E+00 0. -1.
</event>
<event>
 7    1  0.2812635E-010  0.4778727E+02  0.7816164E-02  0.1312668E+00
        -11   -1    0    0    0    0  0.00000000000E+00  0.00000000000E+00  0.45593999997E+02  0.45594000000E+02  0.51100000000E-03 0. -1.
         11   -1    0    0    0    0 -0.00000000000E+00 -0.00000000000E+00 -0.45593999997E+02  0.45594000000E+02  0.51100000000E-03 0.  1.
    9900012    2    1    2    0    0 -0.42363583348E+02  0.91095914131E+01  0.24424023686E+01  0.47787272136E+02  0.20000004975E+02 0.  0.
         12    1    1    2    0    0  0.42363583348E+02 -0.91095914131E+01 -0.24424023686E+01  0.43400727864E+02  0.00000000000E+00 0. -1.
         11    1    3    3    0    0 -0.18202640887E+02 -0.34368072960E+01  0.48709875691E+01  0.19153963032E+02  0.51100000000E-03 0. -1.
        -11    1    3    3    0    0 -0.13243855099E+02  0.11450041177E+02 -0.65987223147E+00  0.17519662453E+02  0.51100000000E-03 0.  1.
         12    1    3    3    0    0 -0.10917087362E+02  0.10963575319E+01 -0.17687129690E+01  0.11113646651E+02  0.00000000000E+00 0. -1.
</event>
<event>
 7    1  0.2812635E-010  0.4778727E+02  0.7816164E-02  0.1312668E+00
        -11   -1    0    0    0    0  0.00000000000E+00  0.00000000000E+00  0.45593999997E+02  0.45594000000E+02  0.51100000000E-03 0.  1.
         11   -1    0    0    0    0 -0.00000000000E+00 -0.00000000000E+00 -0.45593999997E+02  0.45594000000E+02  0.51100000000E-03 0. -1.
    9900012    2    1    2    0    0 -0.17883759497E+02  0.39315223447E+02 -0.42553033999E+01  0.47787271256E+02  0.20000000965E+02 0.  0.
         12    1    1    2    0    0  0.17883759497E+02 -0.39315223447E+02  0.42553033999E+01  0.43400728744E+02  0.00000000000E+00 0. -1.
         11    1    3    3    0    0 -0.25780293612E+00  0.45096297516E+01 -0.17455104349E+01  0.48425230809E+01  0.51100000000E-03 0. -1.
        -11    1    3    3    0    0 -0.12419517796E+02  0.84048846555E+01 -0.52679286843E+01  0.15894577102E+02  0.51100000000E-03 0.  1.
        -12    1    3    3    0    0 -0.52064387650E+01  0.26400709040E+02  0.27581357193E+01  0.27050171073E+02  0.00000000000E+00 0.  1.
</event>
<event>
 7    1  0.2812635E-010  0.4778727E+02  0.7816164E-02  0.1312668E+00
        -11   -1    0    0    0    0  0.00000000000E+00  0.00000000000E+00  0.45593999997E+02  0.45594000000E+02  0.51100000000E-03 0. -1.
         11   -1    0    0    0    0 -0.00000000000E+00 -0.00000000000E+00 -0.45593999997E+02  0.45594000000E+02  0.51100000000E-03 0.  1.
    9900012    2    1    2    0    0  0.27949260396E+02 -0.33195335655E+02 -0.72927100853E+00  0.47787270719E+02  0.19999998515E+02 0.  0.
         12    1    1    2    0    0 -0.27949260396E+02  0.33195335655E+02  0.72927100853E+00  0.43400729281E+02  0.00000000000E+00 0. -1.
         11    1    3    3    0    0  0.42091445570E+01  0.11301861074E+01  0.34327913689E+01  0.55478171728E+01  0.51100000000E-03 0. -1.
        -11    1    3    3    0    0  0.13465910163E+02 -0.20308202231E+02  0.65971371902E-02  0.24367065030E+02  0.51100000000E-03 0.  1.
         12    1    3    3    0    0  0.10274205675E+02 -0.14017319532E+02 -0.41686595147E+01  0.17872388516E+02  0.00000000000E+00 0. -1.
</event>
<event>
 7    1  0.2812635E-010  0.4778727E+02  0.7816164E-02  0.1312668E+00
        -11   -1    0    0    0    0  0.00000000000E+00  0.00000000000E+00  0.45593999997E+02  0.45594000000E+02  0.51100000000E-03 0.  1.
         11   -1    0    0    0    0 -0.00000000000E+00 -0.00000000000E+00 -0.45593999997E+02  0.45594000000E+02  0.51100000000E-03 0. -1.
    9900012    2    1    2    0    0 -0.20960020839E+02 -0.11174004441E+02  0.36324130108E+02  0.47787271009E+02  0.19999999838E+02 0.  0.
         12    1    1    2    0    0  0.20960020839E+02  0.11174004441E+02 -0.36324130108E+02  0.43400728991E+02  0.00000000000E+00 0. -1.
         11    1    3    3    0    0 -0.31104437885E+01 -0.10576886691E+02  0.10012354917E+02  0.14892704385E+02  0.51100000000E-03 0. -1.
        -11    1    3    3    0    0 -0.33422716824E+01  0.23247935907E+01  0.10381208200E+02  0.11151005748E+02  0.51100000000E-03 0.  1.
         12    1    3    3    0    0 -0.14507305368E+02 -0.29219113410E+01  0.15930566991E+02  0.21743560876E+02  0.00000000000E+00 0. -1.
</event>
<event>
 7    1  0.2812635E-010  0.4778727E+02  0.7816164E-02  0.1312668E+00
        -11   -1    0    0    0    0  0.00000000000E+00  0.00000000000E+00  0.45593999997E+02  0.45594000000E+02  0.51100000000E-03 0. -1.
         11   -1    0    0    0    0 -0.00000000000E+00 -0.00000000000E+00 -0.45593999997E+02  0.45594000000E+02  0.51100000000E-03 0.  1.
    9900012    2    1    2    0    0  0.15534991249E+02  0.31829759455E+02 -0.25082939992E+02  0.47787269376E+02  0.19999992392E+02 0.  0.
         12    1    1    2    0    0 -0.15534991249E+02 -0.31829759455E+02  0.25082939992E+02  0.43400730624E+02  0.00000000000E+00 0. -1.
         11    1    3    3    0    0  0.10373705064E+02  0.75764247961E+01 -0.11371309247E+02  0.17155834100E+02  0.51100000000E-03 0. -1.
        -11    1    3    3    0    0 -0.22615683523E+01  0.16313511216E+02 -0.91820740887E+01  0.18856187962E+02  0.51100000000E-03 0.  1.
        -12    1    3    3    0    0  0.74228545382E+01  0.79398234422E+01 -0.45295566570E+01  0.11775247314E+02  0.00000000000E+00 0.  1.
</event>
<event>
 7    1  0.2812635E-010  0.4778727E+02  0.7816164E-02  0.1312668E+00
        -11   -1    0    0    0    0  0.00000000000E+00  0.00000000000E+00  0.45593999997E+02  0.45594000000E+02  0.51100000000E-03 0. -1.
         11   -1    0    0    0    0 -0.00000000000E+00 -0.00000000000E+00 -0.45593999997E+02  0.45594000000E+02  0.51100000000E-03 0.  1.
    9900012    2    1    2    0    0  0.29978655098E+02  0.86847281090E+01  0.30157575466E+02  0.47787267036E+02  0.19999981723E+02 0.  0.
         12    1    1    2    0    0 -0.29978655098E+02 -0.86847281090E+01 -0.30157575466E+02  0.43400732964E+02  0.00000000000E+00 0. -1.
         11    1    3    3    0    0 -0.11254409509E+01  0.18403962051E+01  0.49418330402E+00  0.22131183712E+01  0.51100000000E-03 0. -1.
        -11    1    3    3    0    0  0.30433142822E+02  0.94283522831E+01  0.28092482700E+02  0.42476553453E+02  0.51100000000E-03 0.  1.
        -12    1    3    3    0    0  0.67095322743E+00 -0.25840203792E+01  0.15709094624E+01  0.30975952112E+01  0.00000000000E+00 0.  1.
</event>
<event>
 7    1  0.2812635E-010  0.4778726E+02  0.7816164E-02  0.1312668E+00
        -11   -1    0    0    0    0  0.00000000000E+00  0.00000000000E+00  0.45593999997E+02  0.45594000000E+02  0.51100000000E-03 0. -1.
         11   -1    0    0    0    0 -0.00000000000E+00 -0.00000000000E+00 -0.45593999997E+02  0.45594000000E+02  0.51100000000E-03 0.  1.
    9900012    2    1    2    0    0  0.11003884639E+02  0.34325532192E+02 -0.24172220598E+02  0.47787263992E+02  0.19999967844E+02 0.  0.
         12    1    1    2    0    0 -0.11003884639E+02 -0.34325532192E+02  0.24172220598E+02  0.43400736008E+02  0.00000000000E+00 0. -1.
         11    1    3    3    0    0  0.56338781613E+01  0.23244617108E+01 -0.79966045641E+01  0.10054321966E+02  0.51100000000E-03 0. -1.
        -11    1    3    3    0    0  0.85584614013E+00  0.26270746021E+02 -0.15226932583E+02  0.30376702343E+02  0.51100000000E-03 0.  1.
        -12    1    3    3    0    0  0.45141603375E+01  0.57303244605E+01 -0.94868345054E+00  0.73562396824E+01  0.00000000000E+00 0.  1.
</event>
<event>
 7    1  0.2812635E-010  0.4778728E+02  0.7816164E-02  0.1312668E+00
        -11   -1    0    0    0    0  0.00000000000E+00  0.00000000000E+00  0.45593999997E+02  0.45594000000E+02  0.51100000000E-03 0.  1.
         11   -1    0    0    0    0 -0.00000000000E+00 -0.00000000000E+00 -0.45593999997E+02  0.45594000000E+02  0.51100000000E-03 0. -1.
    9900012    2    1    2    0    0 -0.33901662295E+02 -0.43228161870E+01  0.26750940287E+02  0.47787282812E+02  0.20000053655E+02 0.  0.
         12    1    1    2    0    0  0.33901662295E+02  0.43228161870E+01 -0.26750940287E+02  0.43400717188E+02  0.00000000000E+00 0. -1.
         11    1    3    3    0    0 -0.17469491648E+02 -0.27852883682E+00  0.58276019489E+01  0.18417971155E+02  0.51100000000E-03 0. -1.
        -11    1    3    3    0    0 -0.10107643376E+02 -0.50574473728E+00  0.19520067562E+02  0.21987570812E+02  0.51100000000E-03 0.  1.
        -12    1    3    3    0    0 -0.63245272712E+01 -0.35385426129E+01  0.14032707766E+01  0.73817408448E+01  0.00000000000E+00 0.  1.
</event>
<event>
 7    1  0.2812635E-010  0.4778727E+02  0.7816164E-02  0.1312668E+00
        -11   -1    0    0    0    0  0.00000000000E+00  0.00000000000E+00  0.45593999997E+02  0.45594000000E+02  0.51100000000E-03 0. -1.
         11   -1    0    0    0    0 -0.00000000000E+00 -0.00000000000E+00 -0.45593999997E+02  0.45594000000E+02  0.51100000000E-03 0.  1.
    9900012    2    1    2    0    0  0.46564904528E+00 -0.40541717339E+02  0.15484698310E+02  0.47787267799E+02  0.19999985201E+02 0.  0.
         12    1    1    2    0    0 -0.46564904528E+00  0.40541717339E+02 -0.15484698310E+02  0.43400732201E+02  0.00000000000E+00 0. -1.
         11    1    3    3    0    0 -0.26250872167E+01 -0.38831674282E+02  0.17858556253E+02  0.42821934124E+02  0.51100000000E-03 0. -1.
        -11    1    3    3    0    0  0.35121857359E+01 -0.12903458353E+01 -0.22209411396E+01  0.43512091222E+01  0.51100000000E-03 0.  1.
         12    1    3    3    0    0 -0.42144947391E+00 -0.41969722173E+00 -0.15291680285E+00  0.61412455217E+00  0.00000000000E+00 0. -1.
</event>
<event>
 7    1  0.2812635E-010  0.4778727E+02  0.7816164E-02  0.1312668E+00
        -11   -1    0    0    0    0  0.00000000000E+00  0.00000000000E+00  0.45593999997E+02  0.45594000000E+02  0.51100000000E-03 0.  1.
         11   -1    0    0    0    0 -0.00000000000E+00 -0.00000000000E+00 -0.45593999997E+02  0.45594000000E+02  0.51100000000E-03 0. -1.
    9900012    2    1    2    0    0  0.14123099569E+02 -0.28474694890E+02  0.29552553114E+02  0.47787267448E+02  0.19999983602E+02 0.  0.
         12    1    1    2    0    0 -0.14123099569E+02  0.28474694890E+02 -0.29552553114E+02  0.43400732552E+02  0.00000000000E+00 0. -1.
         11    1    3    3    0    0  0.36919576120E+01 -0.13097609742E+02  0.29051552674E+01  0.13914663465E+02  0.51100000000E-03 0. -1.
        -11    1    3    3    0    0  0.43599143391E+01 -0.11601518046E+02  0.22278802234E+02  0.25494099381E+02  0.51100000000E-03 0.  1.
         12    1    3    3    0    0  0.60712276178E+01 -0.37755671021E+01  0.43685956124E+01  0.83785046013E+01  0.00000000000E+00 0. -1.
</event>
<event>
 7    1  0.2812635E-010  0.4778727E+02  0.7816164E-02  0.1312668E+00
        -11   -1    0    0    0    0  0.00000000000E+00  0.00000000000E+00  0.45593999997E+02  0.45594000000E+02  0.51100000000E-03 0.  1.
         11   -1    0    0    0    0 -0.00000000000E+00 -0.00000000000E+00 -0.45593999997E+02  0.45594000000E+02  0.51100000000E-03 0. -1.
    9900012    2    1    2    0    0  0.10670480176E+01 -0.43095300962E+02  0.50279357671E+01  0.47787266198E+02  0.19999977901E+02 0.  0.
         12    1    1    2    0    0 -0.10670480176E+01  0.43095300962E+02 -0.50279357671E+01  0.43400733802E+02  0.00000000000E+00 0. -1.
         11    1    3    3    0    0  0.45701982484E+01 -0.75022492671E+01 -0.46247084913E+01  0.99276575780E+01  0.51100000000E-03 0. -1.
        -11    1    3    3    0    0 -0.38503652882E+01 -0.22884547803E+02  0.26817482681E+01  0.23360642437E+02  0.51100000000E-03 0.  1.
         12    1    3    3    0    0  0.34721505743E+00 -0.12708503892E+02  0.69708959903E+01  0.14498966183E+02  0.00000000000E+00 0. -1.
</event>
<event>
 7    1  0.2812635E-010  0.4778727E+02  0.7816164E-02  0.1312668E+00
        -11   -1    0    0    0    0  0.00000000000E+00  0.00000000000E+00  0.45593999997E+02  0.45594000000E+02  0.51100000000E-03 0.  1.
         11   -1    0    0    0    0 -0.00000000000E+00 -0.00000000000E+00 -0.45593999997E+02  0.45594000000E+02  0.51100000000E-03 0. -1.
    9900012    2    1    2    0    0 -0.17413846516E+01 -0.19593152288E+02  0.38687203169E+02  0.47787265835E+02  0.19999976247E+02 0.  0.
         12    1    1    2    0    0  0.17413846516E+01  0.19593152288E+02 -0.38687203169E+02  0.43400734165E+02  0.00000000000E+00 0. -1.
         11    1    3    3    0    0 -0.20560125410E+01 -0.12048605042E+02  0.25154756448E+02  0.27967084998E+02  0.51100000000E-03 0.  1.
        -11    1    3    3    0    0  0.40742088464E+01 -0.12333965565E+01 -0.18360978227E+00  0.42607696022E+01  0.51100000000E-03 0. -1.
         12    1    3    3    0    0 -0.37595809570E+01 -0.63111506889E+01  0.13716056503E+02  0.15559411235E+02  0.00000000000E+00 0. -1.
</event>
<event>
 7    1  0.2812635E-010  0.4778727E+02  0.7816164E-02  0.1312668E+00
        -11   -1    0    0    0    0  0.00000000000E+00  0.00000000000E+00  0.45593999997E+02  0.45594000000E+02  0.51100000000E-03 0.  1.
         11   -1    0    0    0    0 -0.00000000000E+00 -0.00000000000E+00 -0.45593999997E+02  0.45594000000E+02  0.51100000000E-03 0. -1.
    9900012    2    1    2    0    0 -0.40760554791E+01  0.21806237908E+02  0.37302778898E+02  0.47787267823E+02  0.19999985313E+02 0.  0.
         12    1    1    2    0    0  0.40760554791E+01 -0.21806237908E+02 -0.37302778898E+02  0.43400732177E+02  0.00000000000E+00 0. -1.
         11    1    3    3    0    0 -0.60982500034E+01  0.75027778776E+01  0.21904211523E+02  0.23943157931E+02  0.51100000000E-03 0. -1.
        -11    1    3    3    0    0 -0.25086431209E+01  0.89497582687E+01  0.13820346666E+02  0.16655132710E+02  0.51100000000E-03 0.  1.
         12    1    3    3    0    0  0.45308376453E+01  0.53537017615E+01  0.15782207093E+01  0.71889771822E+01  0.00000000000E+00 0. -1.
</event>
<event>
 7    1  0.2812635E-010  0.4778728E+02  0.7816164E-02  0.1312668E+00
        -11   -1    0    0    0    0  0.00000000000E+00  0.00000000000E+00  0.45593999997E+02  0.45594000000E+02  0.51100000000E-03 0.  1.
         11   -1    0    0    0    0 -0.00000000000E+00 -0.00000000000E+00 -0.45593999997E+02  0.45594000000E+02  0.51100000000E-03 0. -1.
    9900012    2    1    2    0    0 -0.40382632587E+02 -0.15901671511E+02  0.44632644768E-01  0.47787283836E+02  0.20000058321E+02 0.  0.
         12    1    1    2    0    0  0.40382632587E+02  0.15901671511E+02 -0.44632644768E-01  0.43400716164E+02  0.00000000000E+00 0. -1.
         11    1    3    3    0    0 -0.13320932976E+01  0.26384199445E+01  0.18033416741E+01  0.34623364671E+01  0.51100000000E-03 0. -1.
        -11    1    3    3    0    0 -0.32939963593E+02 -0.11435132634E+02 -0.52022711473E+00  0.34872253962E+02  0.51100000000E-03 0.  1.
         12    1    3    3    0    0 -0.61105756965E+01 -0.71049588214E+01 -0.12384819146E+01  0.94526934071E+01  0.00000000000E+00 0. -1.
</event>
<event>
 7    1  0.2812635E-010  0.4778728E+02  0.7816164E-02  0.1312668E+00
        -11   -1    0    0    0    0  0.00000000000E+00  0.00000000000E+00  0.45593999997E+02  0.45594000000E+02  0.51100000000E-03 0. -1.
         11   -1    0    0    0    0 -0.00000000000E+00 -0.00000000000E+00 -0.45593999997E+02  0.45594000000E+02  0.51100000000E-03 0.  1.
    9900012    2    1    2    0    0 -0.36445682978E+02  0.19239397258E+02 -0.13608105075E+02  0.47787277215E+02  0.20000028134E+02 0.  0.
         12    1    1    2    0    0  0.36445682978E+02 -0.19239397258E+02  0.13608105075E+02  0.43400722785E+02  0.00000000000E+00 0. -1.
         11    1    3    3    0    0 -0.96320054128E+01  0.13584705877E+02 -0.84476556001E+01  0.18673046014E+02  0.51100000000E-03 0. -1.
        -11    1    3    3    0    0 -0.20594134139E+02  0.82521322990E+00 -0.23097348280E+01  0.20739677265E+02  0.51100000000E-03 0.  1.
        -12    1    3    3    0    0 -0.62195434260E+01  0.48294781503E+01 -0.28507146465E+01  0.83745539360E+01  0.00000000000E+00 0.  1.
</event>
<event>
 7    1  0.2812635E-010  0.4778727E+02  0.7816164E-02  0.1312668E+00
        -11   -1    0    0    0    0  0.00000000000E+00  0.00000000000E+00  0.45593999997E+02  0.45594000000E+02  0.51100000000E-03 0.  1.
         11   -1    0    0    0    0 -0.00000000000E+00 -0.00000000000E+00 -0.45593999997E+02  0.45594000000E+02  0.51100000000E-03 0. -1.
    9900012    2    1    2    0    0  0.19872317539E+02  0.38382047760E+02  0.39412175425E+01  0.47787265095E+02  0.19999972872E+02 0.  0.
         12    1    1    2    0    0 -0.19872317539E+02 -0.38382047760E+02 -0.39412175425E+01  0.43400734905E+02  0.00000000000E+00 0. -1.
         11    1    3    3    0    0  0.92346339852E+01  0.30258978324E+01  0.22797496484E+01  0.99815720832E+01  0.51100000000E-03 0. -1.
        -11    1    3    3    0    0  0.10372441007E+02  0.23701977307E+02  0.31116016097E+01  0.26058651644E+02  0.51100000000E-03 0.  1.
         12    1    3    3    0    0  0.26524254751E+00  0.11654172621E+02 -0.14501337156E+01  0.11747041367E+02  0.00000000000E+00 0. -1.
</event>
<event>
 7    1  0.2812635E-010  0.4778726E+02  0.7816164E-02  0.1312668E+00
        -11   -1    0    0    0    0  0.00000000000E+00  0.00000000000E+00  0.45593999997E+02  0.45594000000E+02  0.51100000000E-03 0.  1.
         11   -1    0    0    0    0 -0.00000000000E+00 -0.00000000000E+00 -0.45593999997E+02  0.45594000000E+02  0.51100000000E-03 0. -1.
    9900012    2    1    2    0    0  0.34869536617E+02 -0.15727696337E+02  0.20503141034E+02  0.47787264888E+02  0.19999971931E+02 0.  0.
         12    1    1    2    0    0 -0.34869536617E+02  0.15727696337E+02 -0.20503141034E+02  0.43400735112E+02  0.00000000000E+00 0. -1.
         11    1    3    3    0    0  0.14740067572E+02 -0.16328553571E+01 -0.12617781471E+00  0.14830769695E+02  0.51100000000E-03 0. -1.
        -11    1    3    3    0    0  0.19460898676E+02 -0.12701402966E+02  0.16371131558E+02  0.28426504592E+02  0.51100000000E-03 0.  1.
        -12    1    3    3    0    0  0.66857036916E+00 -0.13934380142E+01  0.42581872910E+01  0.45299906008E+01  0.00000000000E+00 0.  1.
</event>
<event>
 7    1  0.2812635E-010  0.4778727E+02  0.7816164E-02  0.1312668E+00
        -11   -1    0    0    0    0  0.00000000000E+00  0.00000000000E+00  0.45593999997E+02  0.45594000000E+02  0.51100000000E-03 0.  1.
         11   -1    0    0    0    0 -0.00000000000E+00 -0.00000000000E+00 -0.45593999997E+02  0.45594000000E+02  0.51100000000E-03 0. -1.
    9900012    2    1    2    0    0 -0.31542513958E+02  0.29113737295E+02  0.64096493229E+01  0.47787268548E+02  0.19999988619E+02 0.  0.
         12    1    1    2    0    0  0.31542513958E+02 -0.29113737295E+02 -0.64096493229E+01  0.43400731452E+02  0.00000000000E+00 0. -1.
         11    1    3    3    0    0 -0.18272361474E+02  0.14774489359E+02  0.36235972894E+01  0.23775937148E+02  0.51100000000E-03 0.  1.
        -11    1    3    3    0    0 -0.63408408438E+00  0.76365872402E+01 -0.34545142093E+01  0.84055455496E+01  0.51100000000E-03 0. -1.
         12    1    3    3    0    0 -0.12636068399E+02  0.67026606958E+01  0.62405662428E+01  0.15605785851E+02  0.00000000000E+00 0. -1.
</event>
<event>
 7    1  0.2812635E-010  0.4778726E+02  0.7816164E-02  0.1312668E+00
        -11   -1    0    0    0    0  0.00000000000E+00  0.00000000000E+00  0.45593999997E+02  0.45594000000E+02  0.51100000000E-03 0.  1.
         11   -1    0    0    0    0 -0.00000000000E+00 -0.00000000000E+00 -0.45593999997E+02  0.45594000000E+02  0.51100000000E-03 0. -1.
    9900012    2    1    2    0    0  0.40071467615E+02  0.31365953825E+01  0.16372649896E+02  0.47787257933E+02  0.19999940217E+02 0.  0.
         12    1    1    2    0    0 -0.40071467615E+02 -0.31365953825E+01 -0.16372649896E+02  0.43400742067E+02  0.00000000000E+00 0. -1.
         11    1    3    3    0    0  0.30011266015E+01  0.10880496904E+01 -0.79895670270E+00  0.32907362521E+01  0.51100000000E-03 0. -1.
        -11    1    3    3    0    0  0.31556420052E+02  0.35133312053E+01  0.65209812069E+01  0.32414107095E+02  0.51100000000E-03 0.  1.
        -12    1    3    3    0    0  0.55139209616E+01 -0.14647855131E+01  0.10650625392E+02  0.12082414585E+02  0.00000000000E+00 0.  1.
</event>
<event>
 7    1  0.2812635E-010  0.4778728E+02  0.7816164E-02  0.1312668E+00
        -11   -1    0    0    0    0  0.00000000000E+00  0.00000000000E+00  0.45593999997E+02  0.45594000000E+02  0.51100000000E-03 0.  1.
         11   -1    0    0    0    0 -0.00000000000E+00 -0.00000000000E+00 -0.45593999997E+02  0.45594000000E+02  0.51100000000E-03 0. -1.
    9900012    2    1    2    0    0 -0.17607253936E+02  0.52555574077E+01  0.39319035327E+02  0.47787276344E+02  0.20000024162E+02 0.  0.
         12    1    1    2    0    0  0.17607253936E+02 -0.52555574077E+01 -0.39319035327E+02  0.43400723656E+02  0.00000000000E+00 0. -1.
         11    1    3    3    0    0 -0.64174111953E+00 -0.34894608865E+01  0.80317110679E+01  0.87804642179E+01  0.51100000000E-03 0. -1.
        -11    1    3    3    0    0 -0.11011372152E+02  0.10974211668E+02  0.15346370508E+02  0.21844787168E+02  0.51100000000E-03 0.  1.
        -12    1    3    3    0    0 -0.59541406642E+01 -0.22291933733E+01  0.15940953752E+02  0.17162024958E+02  0.00000000000E+00 0.  1.
</event>
<event>
 7    1  0.2812635E-010  0.4778727E+02  0.7816164E-02  0.1312668E+00
        -11   -1    0    0    0    0  0.00000000000E+00  0.00000000000E+00  0.45593999997E+02  0.45594000000E+02  0.51100000000E-03 0.  1.
         11   -1    0    0    0    0 -0.00000000000E+00 -0.00000000000E+00 -0.45593999997E+02  0.45594000000E+02  0.51100000000E-03 0. -1.
    9900012    2    1    2    0    0  0.35010098045E+02 -0.28940906329E+01  0.25486088585E+02  0.47787269164E+02  0.19999991427E+02 0.  0.
         12    1    1    2    0    0 -0.35010098045E+02  0.28940906329E+01 -0.25486088585E+02  0.43400730836E+02  0.00000000000E+00 0. -1.
         11    1    3    3    0    0  0.20675881966E+02 -0.51833803627E+01  0.21412908828E+02  0.30213774868E+02  0.51100000000E-03 0. -1.
        -11    1    3    3    0    0  0.93216468916E+01 -0.23659334242E+01  0.46995616096E+01  0.10704046960E+02  0.51100000000E-03 0.  1.
         12    1    3    3    0    0  0.50125691877E+01  0.46552231540E+01 -0.62638185249E+00  0.68694473359E+01  0.00000000000E+00 0. -1.
</event>
<event>
 7    1  0.2812635E-010  0.4778727E+02  0.7816164E-02  0.1312668E+00
        -11   -1    0    0    0    0  0.00000000000E+00  0.00000000000E+00  0.45593999997E+02  0.45594000000E+02  0.51100000000E-03 0.  1.
         11   -1    0    0    0    0 -0.00000000000E+00 -0.00000000000E+00 -0.45593999997E+02  0.45594000000E+02  0.51100000000E-03 0. -1.
    9900012    2    1    2    0    0  0.22110163331E+02  0.29103697639E+01  0.37232965666E+02  0.47787270663E+02  0.19999998262E+02 0.  0.
         12    1    1    2    0    0 -0.22110163331E+02 -0.29103697639E+01 -0.37232965666E+02  0.43400729337E+02  0.00000000000E+00 0. -1.
         11    1    3    3    0    0  0.13216712036E+02 -0.36633538958E+01  0.12938227242E+02  0.18854690749E+02  0.51100000000E-03 0. -1.
        -11    1    3    3    0    0  0.17307564495E+01  0.13367028704E+01  0.17806814461E+02  0.17940594582E+02  0.51100000000E-03 0.  1.
         12    1    3    3    0    0  0.71626948450E+01  0.52370207893E+01  0.64879239622E+01  0.10991985332E+02  0.00000000000E+00 0. -1.
</event>
<event>
 7    1  0.2812635E-010  0.4778727E+02  0.7816164E-02  0.1312668E+00
        -11   -1    0    0    0    0  0.00000000000E+00  0.00000000000E+00  0.45593999997E+02  0.45594000000E+02  0.51100000000E-03 0.  1.
         11   -1    0    0    0    0 -0.00000000000E+00 -0.00000000000E+00 -0.45593999997E+02  0.45594000000E+02  0.51100000000E-03 0. -1.
    9900012    2    1    2    0    0 -0.17747678093E+02 -0.24387678359E+02  0.31207119155E+02  0.47787271672E+02  0.20000002862E+02 0.  0.
         12    1    1    2    0    0  0.17747678093E+02  0.24387678359E+02 -0.31207119155E+02  0.43400728328E+02  0.00000000000E+00 0. -1.
         11    1    3    3    0    0 -0.48135015206E+01 -0.10232992933E+01  0.43404179268E+00  0.49401751863E+01  0.51100000000E-03 0. -1.
        -11    1    3    3    0    0 -0.13694947728E+02 -0.21128258315E+02  0.20981498148E+02  0.32774657244E+02  0.51100000000E-03 0.  1.
        -12    1    3    3    0    0  0.76077115634E+00 -0.22361207515E+01  0.97915792145E+01  0.10072439242E+02  0.00000000000E+00 0.  1.
</event>
<event>
 7    1  0.2812635E-010  0.4778728E+02  0.7816164E-02  0.1312668E+00
        -11   -1    0    0    0    0  0.00000000000E+00  0.00000000000E+00  0.45593999997E+02  0.45594000000E+02  0.51100000000E-03 0.  1.
         11   -1    0    0    0    0 -0.00000000000E+00 -0.00000000000E+00 -0.45593999997E+02  0.45594000000E+02  0.51100000000E-03 0. -1.
    9900012    2    1    2    0    0 -0.40251663878E+02 -0.72391455646E+01  0.14526544473E+02  0.47787283787E+02  0.20000058099E+02 0.  0.
         12    1    1    2    0    0  0.40251663878E+02  0.72391455646E+01 -0.14526544473E+02  0.43400716213E+02  0.00000000000E+00 0. -1.
         11    1    3    3    0    0 -0.19954088802E+02 -0.19053663874E+01  0.16510348605E+02  0.25968975573E+02  0.51100000000E-03 0. -1.
        -11    1    3    3    0    0 -0.10650828600E+02 -0.27506644071E+01  0.17851038502E+01  0.11144186850E+02  0.51100000000E-03 0.  1.
         12    1    3    3    0    0 -0.96467464769E+01 -0.25831147701E+01 -0.37689079830E+01  0.10674121364E+02  0.00000000000E+00 0. -1.
</event>
<event>
 7    1  0.2812635E-010  0.4778727E+02  0.7816164E-02  0.1312668E+00
        -11   -1    0    0    0    0  0.00000000000E+00  0.00000000000E+00  0.45593999997E+02  0.45594000000E+02  0.51100000000E-03 0.  1.
         11   -1    0    0    0    0 -0.00000000000E+00 -0.00000000000E+00 -0.45593999997E+02  0.45594000000E+02  0.51100000000E-03 0. -1.
    9900012    2    1    2    0    0  0.38997602680E+02 -0.18358496719E+02  0.50769912589E+01  0.47787271240E+02  0.20000000894E+02 0.  0.
         12    1    1    2    0    0 -0.38997602680E+02  0.18358496719E+02 -0.50769912589E+01  0.43400728760E+02  0.00000000000E+00 0. -1.
         11    1    3    3    0    0  0.19845674600E+02 -0.35511303657E+01  0.90600125460E+01  0.22103057589E+02  0.51100000000E-03 0. -1.
        -11    1    3    3    0    0  0.12968205963E+02 -0.11478765583E+02  0.54687081898E+00  0.17327304845E+02  0.51100000000E-03 0.  1.
         12    1    3    3    0    0  0.61837221173E+01 -0.33286007706E+01 -0.45298921060E+01  0.83569088068E+01  0.00000000000E+00 0. -1.
</event>
<event>
 7    1  0.2812635E-010  0.4778727E+02  0.7816164E-02  0.1312668E+00
        -11   -1    0    0    0    0  0.00000000000E+00  0.00000000000E+00  0.45593999997E+02  0.45594000000E+02  0.51100000000E-03 0.  1.
         11   -1    0    0    0    0 -0.00000000000E+00 -0.00000000000E+00 -0.45593999997E+02  0.45594000000E+02  0.51100000000E-03 0. -1.
    9900012    2    1    2    0    0 -0.11114508565E+02 -0.25899053995E+02  0.33004996406E+02  0.47787273206E+02  0.20000009854E+02 0.  0.
         12    1    1    2    0    0  0.11114508565E+02  0.25899053995E+02 -0.33004996406E+02  0.43400726794E+02  0.00000000000E+00 0. -1.
         11    1    3    3    0    0  0.75668603205E+00  0.15882164619E+01  0.47366941840E+00  0.18219133514E+01  0.51100000000E-03 0. -1.
        -11    1    3    3    0    0 -0.87060589229E+01 -0.26789392911E+02  0.24603316065E+02  0.37400403690E+02  0.51100000000E-03 0.  1.
        -12    1    3    3    0    0 -0.31651356741E+01 -0.69787754619E+00  0.79280109230E+01  0.85649561645E+01  0.00000000000E+00 0.  1.
</event>
<event>
 7    1  0.2812635E-010  0.4778727E+02  0.7816164E-02  0.1312668E+00
        -11   -1    0    0    0    0  0.00000000000E+00  0.00000000000E+00  0.45593999997E+02  0.45594000000E+02  0.51100000000E-03 0. -1.
         11   -1    0    0    0    0 -0.00000000000E+00 -0.00000000000E+00 -0.45593999997E+02  0.45594000000E+02  0.51100000000E-03 0.  1.
    9900012    2    1    2    0    0 -0.26943604125E+02 -0.21870695479E+02 -0.26064121563E+02  0.47787267784E+02  0.19999985136E+02 0.  0.
         12    1    1    2    0    0  0.26943604125E+02  0.21870695479E+02  0.26064121563E+02  0.43400732216E+02  0.00000000000E+00 0. -1.
         11    1    3    3    0    0 -0.12490117653E+02 -0.76425404208E+00 -0.15159701968E+02  0.19657153589E+02  0.51100000000E-03 0. -1.
        -11    1    3    3    0    0 -0.12051846169E+02 -0.15503839467E+02 -0.97566511298E+01  0.21927340829E+02  0.51100000000E-03 0.  1.
         12    1    3    3    0    0 -0.24016403034E+01 -0.56026019696E+01 -0.11477684654E+01  0.62027733658E+01  0.00000000000E+00 0. -1.
</event>
<event>
 7    1  0.2812635E-010  0.4778726E+02  0.7816164E-02  0.1312668E+00
        -11   -1    0    0    0    0  0.00000000000E+00  0.00000000000E+00  0.45593999997E+02  0.45594000000E+02  0.51100000000E-03 0.  1.
         11   -1    0    0    0    0 -0.00000000000E+00 -0.00000000000E+00 -0.45593999997E+02  0.45594000000E+02  0.51100000000E-03 0. -1.
    9900012    2    1    2    0    0 -0.96557512681E+01 -0.36517454198E+02  0.21374427981E+02  0.47787260776E+02  0.19999953184E+02 0.  0.
         12    1    1    2    0    0  0.96557512681E+01  0.36517454198E+02 -0.21374427981E+02  0.43400739224E+02  0.00000000000E+00 0. -1.
         11    1    3    3    0    0 -0.14047971076E+02 -0.26103400131E+02  0.10051370651E+02  0.31301166783E+02  0.51100000000E-03 0. -1.
        -11    1    3    3    0    0  0.29318396023E+01 -0.42477649647E+01  0.28199397457E+01  0.58814327404E+01  0.51100000000E-03 0.  1.
         12    1    3    3    0    0  0.14603802056E+01 -0.61662891016E+01  0.85031175845E+01  0.10604661253E+02  0.00000000000E+00 0. -1.
</event>
<event>
 7    1  0.2812635E-010  0.4778727E+02  0.7816164E-02  0.1312668E+00
        -11   -1    0    0    0    0  0.00000000000E+00  0.00000000000E+00  0.45593999997E+02  0.45594000000E+02  0.51100000000E-03 0. -1.
         11   -1    0    0    0    0 -0.00000000000E+00 -0.00000000000E+00 -0.45593999997E+02  0.45594000000E+02  0.51100000000E-03 0.  1.
    9900012    2    1    2    0    0  0.32816796787E+02  0.17589358013E+02 -0.22300127096E+02  0.47787270338E+02  0.19999996780E+02 0.  0.
         12    1    1    2    0    0 -0.32816796787E+02 -0.17589358013E+02  0.22300127096E+02  0.43400729662E+02  0.00000000000E+00 0. -1.
         11    1    3    3    0    0 -0.16775048477E+00  0.19745026060E+01 -0.58674702263E+01  0.61930612692E+01  0.51100000000E-03 0. -1.
        -11    1    3    3    0    0  0.14892771094E+02  0.54564517241E+01 -0.13012693078E+01  0.15914169735E+02  0.51100000000E-03 0.  1.
        -12    1    3    3    0    0  0.18091776178E+02  0.10158403683E+02 -0.15131387562E+02  0.25680039334E+02  0.00000000000E+00 0.  1.
</event>
<event>
 7    1  0.2812635E-010  0.4778727E+02  0.7816164E-02  0.1312668E+00
        -11   -1    0    0    0    0  0.00000000000E+00  0.00000000000E+00  0.45593999997E+02  0.45594000000E+02  0.51100000000E-03 0.  1.
         11   -1    0    0    0    0 -0.00000000000E+00 -0.00000000000E+00 -0.45593999997E+02  0.45594000000E+02  0.51100000000E-03 0. -1.
    9900012    2    1    2    0    0  0.15442465828E+02  0.15674508083E+02  0.37409401221E+02  0.47787271271E+02  0.20000001033E+02 0.  0.
         12    1    1    2    0    0 -0.15442465828E+02 -0.15674508083E+02 -0.37409401221E+02  0.43400728729E+02  0.00000000000E+00 0. -1.
         11    1    3    3    0    0  0.29771239298E+01  0.11006213360E+02  0.29458332238E+02  0.31587866942E+02  0.51100000000E-03 0. -1.
        -11    1    3    3    0    0  0.90100810706E+01  0.54998419495E+01  0.57815761738E+01  0.12035632334E+02  0.51100000000E-03 0.  1.
         12    1    3    3    0    0  0.34552608274E+01 -0.83154722693E+00  0.21694928094E+01  0.41637719950E+01  0.00000000000E+00 0. -1.
</event>
<event>
 7    1  0.2812635E-010  0.4778727E+02  0.7816164E-02  0.1312668E+00
        -11   -1    0    0    0    0  0.00000000000E+00  0.00000000000E+00  0.45593999997E+02  0.45594000000E+02  0.51100000000E-03 0. -1.
         11   -1    0    0    0    0 -0.00000000000E+00 -0.00000000000E+00 -0.45593999997E+02  0.45594000000E+02  0.51100000000E-03 0.  1.
    9900012    2    1    2    0    0 -0.23426988959E+02  0.14132963605E+02  0.33690632299E+02  0.47787272165E+02  0.20000005107E+02 0.  0.
         12    1    1    2    0    0  0.23426988959E+02 -0.14132963605E+02 -0.33690632299E+02  0.43400727835E+02  0.00000000000E+00 0. -1.
         11    1    3    3    0    0 -0.12130773704E+02  0.11734525970E+02  0.69445809668E+01  0.18250533567E+02  0.51100000000E-03 0. -1.
        -11    1    3    3    0    0 -0.76076263629E+01  0.32161357335E+01  0.21803951190E+02  0.23315912928E+02  0.51100000000E-03 0.  1.
        -12    1    3    3    0    0 -0.36885888916E+01 -0.81769809861E+00  0.49421001427E+01  0.62208256697E+01  0.00000000000E+00 0.  1.
</event>
<event>
 7    1  0.2812635E-010  0.4778727E+02  0.7816164E-02  0.1312668E+00
        -11   -1    0    0    0    0  0.00000000000E+00  0.00000000000E+00  0.45593999997E+02  0.45594000000E+02  0.51100000000E-03 0.  1.
         11   -1    0    0    0    0 -0.00000000000E+00 -0.00000000000E+00 -0.45593999997E+02  0.45594000000E+02  0.51100000000E-03 0. -1.
    9900012    2    1    2    0    0 -0.17654456644E+02  0.33086401168E+02  0.21845671734E+02  0.47787272412E+02  0.20000006237E+02 0.  0.
         12    1    1    2    0    0  0.17654456644E+02 -0.33086401168E+02 -0.21845671734E+02  0.43400727588E+02  0.00000000000E+00 0. -1.
         11    1    3    3    0    0  0.31146658557E+00  0.15709711336E+01 -0.21014237812E+01  0.26421475935E+01  0.51100000000E-03 0. -1.
        -11    1    3    3    0    0 -0.34877505470E+01  0.92450739272E+01  0.13204381113E+02  0.16492164098E+02  0.51100000000E-03 0.  1.
        -12    1    3    3    0    0 -0.14478172682E+02  0.22270356107E+02  0.10742714403E+02  0.28652960721E+02  0.00000000000E+00 0.  1.
</event>
<event>
 7    1  0.2812635E-010  0.4778727E+02  0.7816164E-02  0.1312668E+00
        -11   -1    0    0    0    0  0.00000000000E+00  0.00000000000E+00  0.45593999997E+02  0.45594000000E+02  0.51100000000E-03 0.  1.
         11   -1    0    0    0    0 -0.00000000000E+00 -0.00000000000E+00 -0.45593999997E+02  0.45594000000E+02  0.51100000000E-03 0. -1.
    9900012    2    1    2    0    0 -0.71419515583E+01 -0.45807065062E+01  0.42563278651E+02  0.47787273812E+02  0.20000012617E+02 0.  0.
         12    1    1    2    0    0  0.71419515583E+01  0.45807065062E+01 -0.42563278651E+02  0.43400726188E+02  0.00000000000E+00 0. -1.
         11    1    3    3    0    0  0.19832140787E+00  0.39680301893E+01  0.57130968709E+00  0.40138497709E+01  0.51100000000E-03 0. -1.
        -11    1    3    3    0    0 -0.54995166421E+01 -0.77935742237E+01  0.39207752104E+02  0.40351360669E+02  0.51100000000E-03 0.  1.
        -12    1    3    3    0    0 -0.18407563240E+01 -0.75516247170E+00  0.27842168595E+01  0.34220633722E+01  0.00000000000E+00 0.  1.
</event>
<event>
 7    1  0.2812635E-010  0.4778726E+02  0.7816164E-02  0.1312668E+00
        -11   -1    0    0    0    0  0.00000000000E+00  0.00000000000E+00  0.45593999997E+02  0.45594000000E+02  0.51100000000E-03 0. -1.
         11   -1    0    0    0    0 -0.00000000000E+00 -0.00000000000E+00 -0.45593999997E+02  0.45594000000E+02  0.51100000000E-03 0.  1.
    9900012    2    1    2    0    0 -0.33599842109E+02 -0.27446586094E+02  0.11660744965E+01  0.47787260286E+02  0.19999950949E+02 0.  0.
         12    1    1    2    0    0  0.33599842109E+02  0.27446586094E+02 -0.11660744965E+01  0.43400739714E+02  0.00000000000E+00 0. -1.
         11    1    3    3    0    0 -0.19592200001E+01  0.10648593501E+01 -0.24045525189E+01  0.32793812711E+01  0.51100000000E-03 0. -1.
        -11    1    3    3    0    0 -0.30962094495E+02 -0.25417642003E+02  0.60138548372E+01  0.40507706313E+02  0.51100000000E-03 0.  1.
        -12    1    3    3    0    0 -0.67852761396E+00 -0.30938034409E+01 -0.24432278218E+01  0.40001727017E+01  0.00000000000E+00 0.  1.
</event>
<event>
 7    1  0.2812635E-010  0.4778727E+02  0.7816164E-02  0.1312668E+00
        -11   -1    0    0    0    0  0.00000000000E+00  0.00000000000E+00  0.45593999997E+02  0.45594000000E+02  0.51100000000E-03 0. -1.
         11   -1    0    0    0    0 -0.00000000000E+00 -0.00000000000E+00 -0.45593999997E+02  0.45594000000E+02  0.51100000000E-03 0.  1.
    9900012    2    1    2    0    0  0.20438007485E+02  0.38039741826E+02  0.43461859898E+01  0.47787269121E+02  0.19999991231E+02 0.  0.
         12    1    1    2    0    0 -0.20438007485E+02 -0.38039741826E+02 -0.43461859898E+01  0.43400730879E+02  0.00000000000E+00 0. -1.
         11    1    3    3    0    0  0.43829142984E+01  0.16085911857E+02 -0.37036566656E+01  0.17078746177E+02  0.51100000000E-03 0. -1.
        -11    1    3    3    0    0  0.52637392420E+01  0.55784433401E+01  0.80199675395E+01  0.11097110457E+02  0.51100000000E-03 0.  1.
        -12    1    3    3    0    0  0.10791353944E+02  0.16375386629E+02  0.29875115952E-01  0.19611412487E+02  0.00000000000E+00 0.  1.
</event>
<event>
 7    1  0.2812635E-010  0.4778727E+02  0.7816164E-02  0.1312668E+00
        -11   -1    0    0    0    0  0.00000000000E+00  0.00000000000E+00  0.45593999997E+02  0.45594000000E+02  0.51100000000E-03 0. -1.
         11   -1    0    0    0    0 -0.00000000000E+00 -0.00000000000E+00 -0.45593999997E+02  0.45594000000E+02  0.51100000000E-03 0.  1.
    9900012    2    1    2    0    0  0.21799858250E+02 -0.36256738308E+02 -0.96870248123E+01  0.47787270258E+02  0.19999996412E+02 0.  0.
         12    1    1    2    0    0 -0.21799858250E+02  0.36256738308E+02  0.96870248123E+01  0.43400729742E+02  0.00000000000E+00 0. -1.
         11    1    3    3    0    0  0.49138749691E+01 -0.11826695073E+02  0.33503327282E+01  0.13237885527E+02  0.51100000000E-03 0. -1.
        -11    1    3    3    0    0  0.15175101391E+02 -0.24509397591E+02 -0.14526119158E+02  0.32280062121E+02  0.51100000000E-03 0.  1.
        -12    1    3    3    0    0  0.17108818899E+01  0.79354355533E-01  0.14887616174E+01  0.22693226100E+01  0.00000000000E+00 0.  1.
</event>
<event>
 7    1  0.2812635E-010  0.4778727E+02  0.7816164E-02  0.1312668E+00
        -11   -1    0    0    0    0  0.00000000000E+00  0.00000000000E+00  0.45593999997E+02  0.45594000000E+02  0.51100000000E-03 0.  1.
         11   -1    0    0    0    0 -0.00000000000E+00 -0.00000000000E+00 -0.45593999997E+02  0.45594000000E+02  0.51100000000E-03 0. -1.
    9900012    2    1    2    0    0  0.10338416526E+02  0.38807372521E+02  0.16453824684E+02  0.47787269995E+02  0.19999995213E+02 0.  0.
         12    1    1    2    0    0 -0.10338416526E+02 -0.38807372521E+02 -0.16453824684E+02  0.43400730005E+02  0.00000000000E+00 0. -1.
         11    1    3    3    0    0  0.61071328476E+01  0.50813795527E+01  0.34685752812E-01  0.79447273798E+01  0.51100000000E-03 0. -1.
        -11    1    3    3    0    0  0.40595085117E+01  0.28776199414E+02  0.81137944973E+01  0.30172552485E+02  0.51100000000E-03 0.  1.
        -12    1    3    3    0    0  0.17177516702E+00  0.49497935548E+01  0.83053444341E+01  0.96699901299E+01  0.00000000000E+00 0.  1.
</event>
<event>
 7    1  0.2812635E-010  0.4778728E+02  0.7816164E-02  0.1312668E+00
        -11   -1    0    0    0    0  0.00000000000E+00  0.00000000000E+00  0.45593999997E+02  0.45594000000E+02  0.51100000000E-03 0. -1.
         11   -1    0    0    0    0 -0.00000000000E+00 -0.00000000000E+00 -0.45593999997E+02  0.45594000000E+02  0.51100000000E-03 0.  1.
    9900012    2    1    2    0    0  0.33569932330E+02 -0.83082545105E+01 -0.26223184048E+02  0.47787276144E+02  0.20000023250E+02 0.  0.
         12    1    1    2    0    0 -0.33569932330E+02  0.83082545105E+01  0.26223184048E+02  0.43400723856E+02  0.00000000000E+00 0. -1.
         11    1    3    3    0    0  0.12437964358E+02 -0.56426697374E+01 -0.19894987979E+02  0.24131995899E+02  0.51100000000E-03 0. -1.
        -11    1    3    3    0    0  0.17739415491E+02  0.30574705881E+00 -0.70436491251E+01  0.19089089462E+02  0.51100000000E-03 0.  1.
        -12    1    3    3    0    0  0.33925524805E+01 -0.29713318318E+01  0.71545305574E+00  0.45661907826E+01  0.00000000000E+00 0.  1.
</event>
<event>
 7    1  0.2812635E-010  0.4778727E+02  0.7816164E-02  0.1312668E+00
        -11   -1    0    0    0    0  0.00000000000E+00  0.00000000000E+00  0.45593999997E+02  0.45594000000E+02  0.51100000000E-03 0.  1.
         11   -1    0    0    0    0 -0.00000000000E+00 -0.00000000000E+00 -0.45593999997E+02  0.45594000000E+02  0.51100000000E-03 0. -1.
    9900012    2    1    2    0    0 -0.37704707105E+02 -0.11414121707E+02  0.18212528010E+02  0.47787270873E+02  0.19999999219E+02 0.  0.
         12    1    1    2    0    0  0.37704707105E+02  0.11414121707E+02 -0.18212528010E+02  0.43400729127E+02  0.00000000000E+00 0. -1.
         11    1    3    3    0    0 -0.30834683168E+02 -0.43277680532E+01  0.13303786495E+02  0.33859976340E+02  0.51100000000E-03 0. -1.
        -11    1    3    3    0    0  0.13669577824E+01 -0.29228433486E+01  0.31934802615E+01  0.45398131306E+01  0.51100000000E-03 0.  1.
         12    1    3    3    0    0 -0.82369817196E+01 -0.41635103051E+01  0.17152612538E+01  0.93874814023E+01  0.00000000000E+00 0. -1.
</event>
<event>
 7    1  0.2812635E-010  0.4778730E+02  0.7816164E-02  0.1312668E+00
        -11   -1    0    0    0    0  0.00000000000E+00  0.00000000000E+00  0.45593999997E+02  0.45594000000E+02  0.51100000000E-03 0. -1.
         11   -1    0    0    0    0 -0.00000000000E+00 -0.00000000000E+00 -0.45593999997E+02  0.45594000000E+02  0.51100000000E-03 0.  1.
    9900012    2    1    2    0    0 -0.39047316111E+02 -0.77532792810E+01 -0.17286250668E+02  0.47787300729E+02  0.20000135343E+02 0.  0.
         12    1    1    2    0    0  0.39047316111E+02  0.77532792810E+01  0.17286250668E+02  0.43400699271E+02  0.00000000000E+00 0. -1.
         11    1    3    3    0    0 -0.89748226914E+00 -0.14234316951E+01  0.32545546921E+01  0.36638448001E+01  0.51100000000E-03 0. -1.
        -11    1    3    3    0    0 -0.17007447306E+02 -0.37147783931E+01 -0.12140023561E+02  0.21223407236E+02  0.51100000000E-03 0.  1.
         12    1    3    3    0    0 -0.21142386536E+02 -0.26150691927E+01 -0.84007817991E+01  0.22900048693E+02  0.00000000000E+00 0. -1.
</event>
<event>
 7    1  0.2812635E-010  0.4778727E+02  0.7816164E-02  0.1312668E+00
        -11   -1    0    0    0    0  0.00000000000E+00  0.00000000000E+00  0.45593999997E+02  0.45594000000E+02  0.51100000000E-03 0.  1.
         11   -1    0    0    0    0 -0.00000000000E+00 -0.00000000000E+00 -0.45593999997E+02  0.45594000000E+02  0.51100000000E-03 0. -1.
    9900012    2    1    2    0    0  0.12167910789E+02  0.37539319177E+02  0.18065569477E+02  0.47787270309E+02  0.19999996645E+02 0.  0.
         12    1    1    2    0    0 -0.12167910789E+02 -0.37539319177E+02 -0.18065569477E+02  0.43400729691E+02  0.00000000000E+00 0. -1.
         11    1    3    3    0    0  0.11500296475E+01  0.42307075110E+01 -0.40590232498E+01  0.59747070420E+01  0.51100000000E-03 0. -1.
        -11    1    3    3    0    0  0.80910587846E+01  0.19526462561E+02  0.15689051202E+02  0.26322885486E+02  0.51100000000E-03 0.  1.
         12    1    3    3    0    0  0.29268223566E+01  0.13782149104E+02  0.64355415248E+01  0.15489677781E+02  0.00000000000E+00 0. -1.
</event>
<event>
 7    1  0.2812635E-010  0.4778727E+02  0.7816164E-02  0.1312668E+00
        -11   -1    0    0    0    0  0.00000000000E+00  0.00000000000E+00  0.45593999997E+02  0.45594000000E+02  0.51100000000E-03 0.  1.
         11   -1    0    0    0    0 -0.00000000000E+00 -0.00000000000E+00 -0.45593999997E+02  0.45594000000E+02  0.51100000000E-03 0. -1.
    9900012    2    1    2    0    0 -0.94548688083E+01 -0.41433895930E+02  0.88011894316E+01  0.47787271763E+02  0.20000003277E+02 0.  0.
         12    1    1    2    0    0  0.94548688083E+01  0.41433895930E+02 -0.88011894316E+01  0.43400728237E+02  0.00000000000E+00 0. -1.
         11    1    3    3    0    0  0.98502295052E+00 -0.27797429618E+02  0.59747232925E+01  0.28449335357E+02  0.51100000000E-03 0. -1.
        -11    1    3    3    0    0 -0.24824613865E+01 -0.27263992130E+01  0.44024181230E+01  0.57425737083E+01  0.51100000000E-03 0.  1.
         12    1    3    3    0    0 -0.79574303724E+01 -0.10910067098E+02 -0.15759519839E+01  0.13595362697E+02  0.00000000000E+00 0. -1.
</event>
<event>
 7    1  0.2812635E-010  0.4778727E+02  0.7816164E-02  0.1312668E+00
        -11   -1    0    0    0    0  0.00000000000E+00  0.00000000000E+00  0.45593999997E+02  0.45594000000E+02  0.51100000000E-03 0.  1.
         11   -1    0    0    0    0 -0.00000000000E+00 -0.00000000000E+00 -0.45593999997E+02  0.45594000000E+02  0.51100000000E-03 0. -1.
    9900012    2    1    2    0    0 -0.87757414542E+01  0.30139104044E+02  0.29970726323E+02  0.47787266515E+02  0.19999979350E+02 0.  0.
         12    1    1    2    0    0  0.87757414542E+01 -0.30139104044E+02 -0.29970726323E+02  0.43400733485E+02  0.00000000000E+00 0. -1.
         11    1    3    3    0    0  0.17947639064E+01  0.63119740071E+01  0.10468206061E+02  0.12354980038E+02  0.51100000000E-03 0. -1.
        -11    1    3    3    0    0 -0.11026343357E+02  0.22872442613E+02  0.12411156629E+02  0.28262443066E+02  0.51100000000E-03 0.  1.
        -12    1    3    3    0    0  0.45583799665E+00  0.95468742389E+00  0.70913636339E+01  0.71698434115E+01  0.00000000000E+00 0.  1.
</event>
<event>
 7    1  0.2812635E-010  0.4778727E+02  0.7816164E-02  0.1312668E+00
        -11   -1    0    0    0    0  0.00000000000E+00  0.00000000000E+00  0.45593999997E+02  0.45594000000E+02  0.51100000000E-03 0. -1.
         11   -1    0    0    0    0 -0.00000000000E+00 -0.00000000000E+00 -0.45593999997E+02  0.45594000000E+02  0.51100000000E-03 0.  1.
    9900012    2    1    2    0    0 -0.30779427070E+02 -0.89864650014E+01 -0.29248819532E+02  0.47787272725E+02  0.20000007661E+02 0.  0.
         12    1    1    2    0    0  0.30779427070E+02  0.89864650014E+01  0.29248819532E+02  0.43400727275E+02  0.00000000000E+00 0. -1.
         11    1    3    3    0    0  0.19102757437E+00  0.14559898289E+01 -0.29879256038E+01  0.33292788395E+01  0.51100000000E-03 0. -1.
        -11    1    3    3    0    0 -0.24208011548E+02 -0.13036692893E+02 -0.24887428016E+02  0.37085944213E+02  0.51100000000E-03 0.  1.
        -12    1    3    3    0    0 -0.67624430961E+01  0.25942380622E+01 -0.13734659129E+01  0.73720496719E+01  0.00000000000E+00 0.  1.
</event>
<event>
 7    1  0.2812635E-010  0.4778728E+02  0.7816164E-02  0.1312668E+00
        -11   -1    0    0    0    0  0.00000000000E+00  0.00000000000E+00  0.45593999997E+02  0.45594000000E+02  0.51100000000E-03 0.  1.
         11   -1    0    0    0    0 -0.00000000000E+00 -0.00000000000E+00 -0.45593999997E+02  0.45594000000E+02  0.51100000000E-03 0. -1.
    9900012    2    1    2    0    0 -0.37039357201E+02 -0.14734099954E+02  0.17164354843E+02  0.47787276959E+02  0.20000026967E+02 0.  0.
         12    1    1    2    0    0  0.37039357201E+02  0.14734099954E+02 -0.17164354843E+02  0.43400723041E+02  0.00000000000E+00 0. -1.
         11    1    3    3    0    0 -0.43575175443E+01  0.30920128387E+01  0.43789218488E+01  0.69082168005E+01  0.51100000000E-03 0. -1.
        -11    1    3    3    0    0 -0.10360376280E+02 -0.34754761826E+01  0.88299030060E+01  0.14049324493E+02  0.51100000000E-03 0.  1.
         12    1    3    3    0    0 -0.22321463377E+02 -0.14350636610E+02  0.39555299884E+01  0.26829735666E+02  0.00000000000E+00 0. -1.
</event>
<event>
 7    1  0.2812635E-010  0.4778726E+02  0.7816164E-02  0.1312668E+00
        -11   -1    0    0    0    0  0.00000000000E+00  0.00000000000E+00  0.45593999997E+02  0.45594000000E+02  0.51100000000E-03 0. -1.
         11   -1    0    0    0    0 -0.00000000000E+00 -0.00000000000E+00 -0.45593999997E+02  0.45594000000E+02  0.51100000000E-03 0.  1.
    9900012    2    1    2    0    0  0.21120385407E+02 -0.27358974735E+02 -0.26249569310E+02  0.47787261904E+02  0.19999958326E+02 0.  0.
         12    1    1    2    0    0 -0.21120385407E+02  0.27358974735E+02  0.26249569310E+02  0.43400738096E+02  0.00000000000E+00 0. -1.
         11    1    3    3    0    0 -0.32659480069E+01 -0.22810175813E+01 -0.54353324890E+01  0.67388646757E+01  0.51100000000E-03 0. -1.
        -11    1    3    3    0    0  0.13683450986E+02 -0.17720552217E+02 -0.13446057193E+02  0.26116111044E+02  0.51100000000E-03 0.  1.
         12    1    3    3    0    0  0.10702882428E+02 -0.73574049366E+01 -0.73681796278E+01  0.14932286185E+02  0.00000000000E+00 0. -1.
</event>
<event>
 7    1  0.2812635E-010  0.4778727E+02  0.7816164E-02  0.1312668E+00
        -11   -1    0    0    0    0  0.00000000000E+00  0.00000000000E+00  0.45593999997E+02  0.45594000000E+02  0.51100000000E-03 0.  1.
         11   -1    0    0    0    0 -0.00000000000E+00 -0.00000000000E+00 -0.45593999997E+02  0.45594000000E+02  0.51100000000E-03 0. -1.
    9900012    2    1    2    0    0  0.36794070010E+02  0.19352268097E+02 -0.12462317218E+02  0.47787271678E+02  0.20000002889E+02 0.  0.
         12    1    1    2    0    0 -0.36794070010E+02 -0.19352268097E+02  0.12462317218E+02  0.43400728322E+02  0.00000000000E+00 0. -1.
         11    1    3    3    0    0  0.95537777497E+01  0.99586329785E-02 -0.10324246081E+02  0.14066443255E+02  0.51100000000E-03 0. -1.
        -11    1    3    3    0    0  0.20527867524E+02  0.12491824870E+02 -0.86229927653E+00  0.24045427714E+02  0.51100000000E-03 0.  1.
         12    1    3    3    0    0  0.67124247368E+01  0.68504845948E+01 -0.12757718614E+01  0.96754007086E+01  0.00000000000E+00 0. -1.
</event>
<event>
 7    1  0.2812635E-010  0.4778727E+02  0.7816164E-02  0.1312668E+00
        -11   -1    0    0    0    0  0.00000000000E+00  0.00000000000E+00  0.45593999997E+02  0.45594000000E+02  0.51100000000E-03 0. -1.
         11   -1    0    0    0    0 -0.00000000000E+00 -0.00000000000E+00 -0.45593999997E+02  0.45594000000E+02  0.51100000000E-03 0.  1.
    9900012    2    1    2    0    0 -0.42189490652E+02 -0.70082286976E+01  0.73861049858E+01  0.47787274916E+02  0.20000017654E+02 0.  0.
         12    1    1    2    0    0  0.42189490652E+02  0.70082286976E+01 -0.73861049858E+01  0.43400725084E+02  0.00000000000E+00 0. -1.
         11    1    3    3    0    0 -0.20279832383E+01  0.27938723183E+01  0.28950359406E+00  0.34644265237E+01  0.51100000000E-03 0. -1.
        -11    1    3    3    0    0 -0.13165014132E+02 -0.89747164837E+01  0.67699303880E+01  0.17311703867E+02  0.51100000000E-03 0.  1.
        -12    1    3    3    0    0 -0.26996493281E+02 -0.82738453227E+00  0.32667100368E+00  0.27011144526E+02  0.00000000000E+00 0.  1.
</event>
<event>
 7    1  0.2812635E-010  0.4778726E+02  0.7816164E-02  0.1312668E+00
        -11   -1    0    0    0    0  0.00000000000E+00  0.00000000000E+00  0.45593999997E+02  0.45594000000E+02  0.51100000000E-03 0.  1.
         11   -1    0    0    0    0 -0.00000000000E+00 -0.00000000000E+00 -0.45593999997E+02  0.45594000000E+02  0.51100000000E-03 0. -1.
    9900012    2    1    2    0    0  0.17313775636E+02 -0.11945954604E+01  0.39779768973E+02  0.47787263777E+02  0.19999966867E+02 0.  0.
         12    1    1    2    0    0 -0.17313775636E+02  0.11945954604E+01 -0.39779768973E+02  0.43400736223E+02  0.00000000000E+00 0. -1.
         11    1    3    3    0    0  0.11643855325E+01 -0.44368467690E+01  0.73641223867E+01  0.86759265619E+01  0.51100000000E-03 0. -1.
        -11    1    3    3    0    0  0.17986211788E+02  0.30420675416E+01  0.32491606802E+02  0.37262078608E+02  0.51100000000E-03 0.  1.
        -12    1    3    3    0    0 -0.18368216847E+01  0.20018376698E+00 -0.75960214857E-01  0.18492586071E+01  0.00000000000E+00 0.  1.
</event>
<event>
 7    1  0.2812635E-010  0.4778727E+02  0.7816164E-02  0.1312668E+00
        -11   -1    0    0    0    0  0.00000000000E+00  0.00000000000E+00  0.45593999997E+02  0.45594000000E+02  0.51100000000E-03 0.  1.
         11   -1    0    0    0    0 -0.00000000000E+00 -0.00000000000E+00 -0.45593999997E+02  0.45594000000E+02  0.51100000000E-03 0. -1.
    9900012    2    1    2    0    0  0.17780175087E+02 -0.73540013540E+01  0.38902532872E+02  0.47787273902E+02  0.20000013027E+02 0.  0.
         12    1    1    2    0    0 -0.17780175087E+02  0.73540013540E+01 -0.38902532872E+02  0.43400726098E+02  0.00000000000E+00 0. -1.
         11    1    3    3    0    0  0.42576253859E+01  0.62649832380E+01  0.13917877722E+02  0.15845652698E+02  0.51100000000E-03 0. -1.
        -11    1    3    3    0    0  0.10212074634E+02 -0.12807739637E+02  0.21870435760E+02  0.27324725497E+02  0.51100000000E-03 0.  1.
        -12    1    3    3    0    0  0.33104750673E+01 -0.81124495499E+00  0.31142193902E+01  0.46168957059E+01  0.00000000000E+00 0.  1.
</event>
<event>
 7    1  0.2812635E-010  0.4778727E+02  0.7816164E-02  0.1312668E+00
        -11   -1    0    0    0    0  0.00000000000E+00  0.00000000000E+00  0.45593999997E+02  0.45594000000E+02  0.51100000000E-03 0.  1.
         11   -1    0    0    0    0 -0.00000000000E+00 -0.00000000000E+00 -0.45593999997E+02  0.45594000000E+02  0.51100000000E-03 0. -1.
    9900012    2    1    2    0    0 -0.38030798984E+02 -0.20900848503E+02  0.66045778667E+00  0.47787270237E+02  0.19999996318E+02 0.  0.
         12    1    1    2    0    0  0.38030798984E+02  0.20900848503E+02 -0.66045778667E+00  0.43400729763E+02  0.00000000000E+00 0. -1.
         11    1    3    3    0    0 -0.46149902746E+01 -0.10623954901E+01  0.66560115071E+01  0.81688009435E+01  0.51100000000E-03 0. -1.
        -11    1    3    3    0    0 -0.18494947332E+02 -0.10861187463E+02 -0.86765016799E+00  0.21465816709E+02  0.51100000000E-03 0.  1.
         12    1    3    3    0    0 -0.14920861377E+02 -0.89772655507E+01 -0.51279035524E+01  0.18152652585E+02  0.00000000000E+00 0. -1.
</event>
<event>
 7    1  0.2812635E-010  0.4778727E+02  0.7816164E-02  0.1312668E+00
        -11   -1    0    0    0    0  0.00000000000E+00  0.00000000000E+00  0.45593999997E+02  0.45594000000E+02  0.51100000000E-03 0.  1.
         11   -1    0    0    0    0 -0.00000000000E+00 -0.00000000000E+00 -0.45593999997E+02  0.45594000000E+02  0.51100000000E-03 0. -1.
    9900012    2    1    2    0    0  0.13994297471E+02 -0.27628388770E+02  0.30404848357E+02  0.47787273839E+02  0.20000012740E+02 0.  0.
         12    1    1    2    0    0 -0.13994297471E+02  0.27628388770E+02 -0.30404848357E+02  0.43400726161E+02  0.00000000000E+00 0. -1.
         11    1    3    3    0    0  0.44667022888E+01 -0.38858057205E+01  0.24703678918E+01  0.64151097587E+01  0.51100000000E-03 0. -1.
        -11    1    3    3    0    0  0.75533968481E+01 -0.21746023643E+02  0.13541712519E+02  0.26708076053E+02  0.51100000000E-03 0.  1.
        -12    1    3    3    0    0  0.19741983344E+01 -0.19965594062E+01  0.14392767946E+02  0.14664088027E+02  0.00000000000E+00 0.  1.
</event>
<event>
 7    1  0.2812635E-010  0.4778727E+02  0.7816164E-02  0.1312668E+00
        -11   -1    0    0    0    0  0.00000000000E+00  0.00000000000E+00  0.45593999997E+02  0.45594000000E+02  0.51100000000E-03 0.  1.
         11   -1    0    0    0    0 -0.00000000000E+00 -0.00000000000E+00 -0.45593999997E+02  0.45594000000E+02  0.51100000000E-03 0. -1.
    9900012    2    1    2    0    0 -0.40808891476E+01 -0.98651831909E+01  0.42067182871E+02  0.47787269933E+02  0.19999994933E+02 0.  0.
         12    1    1    2    0    0  0.40808891476E+01  0.98651831909E+01 -0.42067182871E+02  0.43400730067E+02  0.00000000000E+00 0. -1.
         11    1    3    3    0    0  0.39702979689E+01 -0.18250682611E+01  0.14618737473E+01  0.46077342842E+01  0.51100000000E-03 0. -1.
        -11    1    3    3    0    0 -0.92636673872E+01 -0.90381613924E+01  0.37930907519E+02  0.40078144172E+02  0.51100000000E-03 0.  1.
        -12    1    3    3    0    0  0.12124802706E+01  0.99804646259E+00  0.26744016053E+01  0.31013914771E+01  0.00000000000E+00 0.  1.
</event>
<event>
 7    1  0.2812635E-010  0.4778727E+02  0.7816164E-02  0.1312668E+00
        -11   -1    0    0    0    0  0.00000000000E+00  0.00000000000E+00  0.45593999997E+02  0.45594000000E+02  0.51100000000E-03 0. -1.
         11   -1    0    0    0    0 -0.00000000000E+00 -0.00000000000E+00 -0.45593999997E+02  0.45594000000E+02  0.51100000000E-03 0.  1.
    9900012    2    1    2    0    0 -0.36618467220E+02 -0.22795114454E+02  0.48055823760E+01  0.47787274125E+02  0.20000014044E+02 0.  0.
         12    1    1    2    0    0  0.36618467220E+02  0.22795114454E+02 -0.48055823760E+01  0.43400725875E+02  0.00000000000E+00 0. -1.
         11    1    3    3    0    0 -0.85764278297E+01 -0.16150849984E+02  0.66986987357E+00  0.18299010778E+02  0.51100000000E-03 0. -1.
        -11    1    3    3    0    0 -0.19112030843E+02 -0.36077436489E+01  0.47988248637E+01  0.20032829494E+02  0.51100000000E-03 0.  1.
         12    1    3    3    0    0 -0.89300085474E+01 -0.30365208207E+01 -0.66311236127E+00  0.94554338533E+01  0.00000000000E+00 0. -1.
</event>
<event>
 7    1  0.2812635E-010  0.4778728E+02  0.7816164E-02  0.1312668E+00
        -11   -1    0    0    0    0  0.00000000000E+00  0.00000000000E+00  0.45593999997E+02  0.45594000000E+02  0.51100000000E-03 0.  1.
         11   -1    0    0    0    0 -0.00000000000E+00 -0.00000000000E+00 -0.45593999997E+02  0.45594000000E+02  0.51100000000E-03 0. -1.
    9900012    2    1    2    0    0  0.16072222198E+02 -0.28397166160E+02  0.28616549182E+02  0.47787282732E+02  0.20000053290E+02 0.  0.
         12    1    1    2    0    0 -0.16072222198E+02  0.28397166160E+02 -0.28616549182E+02  0.43400717268E+02  0.00000000000E+00 0. -1.
         11    1    3    3    0    0  0.11807103215E+02 -0.20420194521E+02  0.13742917526E+02  0.27299447119E+02  0.51100000000E-03 0. -1.
        -11    1    3    3    0    0 -0.12217444312E+01 -0.84709048871E+01  0.96067300490E+01  0.12866163047E+02  0.51100000000E-03 0.  1.
         12    1    3    3    0    0  0.54868634141E+01  0.49393324799E+00  0.52669016063E+01  0.76216725664E+01  0.00000000000E+00 0. -1.
</event>
<event>
 7    1  0.2812635E-010  0.4778727E+02  0.7816164E-02  0.1312668E+00
        -11   -1    0    0    0    0  0.00000000000E+00  0.00000000000E+00  0.45593999997E+02  0.45594000000E+02  0.51100000000E-03 0.  1.
         11   -1    0    0    0    0 -0.00000000000E+00 -0.00000000000E+00 -0.45593999997E+02  0.45594000000E+02  0.51100000000E-03 0. -1.
    9900012    2    1    2    0    0  0.15626197581E+02 -0.37984873847E+02  0.14021221796E+02  0.47787270137E+02  0.19999995861E+02 0.  0.
         12    1    1    2    0    0 -0.15626197581E+02  0.37984873847E+02 -0.14021221796E+02  0.43400729863E+02  0.00000000000E+00 0. -1.
         11    1    3    3    0    0  0.70203819925E+01 -0.11205123448E+02 -0.24139549909E+01  0.13441269798E+02  0.51100000000E-03 0. -1.
        -11    1    3    3    0    0  0.59583164486E+01 -0.26150445913E+02  0.16726937183E+02  0.31609140832E+02  0.51100000000E-03 0.  1.
        -12    1    3    3    0    0  0.26474991396E+01 -0.62930448560E+00 -0.29176039635E+00  0.27368595066E+01  0.00000000000E+00 0.  1.
</event>
<event>
 7    1  0.2812635E-010  0.4778727E+02  0.7816164E-02  0.1312668E+00
        -11   -1    0    0    0    0  0.00000000000E+00  0.00000000000E+00  0.45593999997E+02  0.45594000000E+02  0.51100000000E-03 0. -1.
         11   -1    0    0    0    0 -0.00000000000E+00 -0.00000000000E+00 -0.45593999997E+02  0.45594000000E+02  0.51100000000E-03 0.  1.
    9900012    2    1    2    0    0 -0.39262516738E+02  0.94862824962E+01 -0.15877297188E+02  0.47787270257E+02  0.19999996412E+02 0.  0.
         12    1    1    2    0    0  0.39262516738E+02 -0.94862824962E+01  0.15877297188E+02  0.43400729743E+02  0.00000000000E+00 0. -1.
         11    1    3    3    0    0 -0.44915900160E+01  0.76477550478E+01  0.11969319380E+01  0.89495913017E+01  0.51100000000E-03 0. -1.
        -11    1    3    3    0    0 -0.22969854837E+02  0.16360423437E+01 -0.10273556480E+02  0.25215805138E+02  0.51100000000E-03 0.  1.
         12    1    3    3    0    0 -0.11801071885E+02  0.20248510473E+00 -0.68006726461E+01  0.13621873817E+02  0.00000000000E+00 0. -1.
</event>
<event>
 7    1  0.2812635E-010  0.4778727E+02  0.7816164E-02  0.1312668E+00
        -11   -1    0    0    0    0  0.00000000000E+00  0.00000000000E+00  0.45593999997E+02  0.45594000000E+02  0.51100000000E-03 0. -1.
         11   -1    0    0    0    0 -0.00000000000E+00 -0.00000000000E+00 -0.45593999997E+02  0.45594000000E+02  0.51100000000E-03 0.  1.
    9900012    2    1    2    0    0  0.90841838542E+01  0.19866174846E+02 -0.37502479144E+02  0.47787271420E+02  0.20000001711E+02 0.  0.
         12    1    1    2    0    0 -0.90841838542E+01 -0.19866174846E+02  0.37502479144E+02  0.43400728580E+02  0.00000000000E+00 0. -1.
         11    1    3    3    0    0 -0.11097962845E+01  0.43213046244E+00 -0.55939826801E+01  0.57193554721E+01  0.51100000000E-03 0. -1.
        -11    1    3    3    0    0  0.31357326366E+01 -0.24473325872E+01 -0.77883774299E+01  0.87453461459E+01  0.51100000000E-03 0.  1.
        -12    1    3    3    0    0  0.70582475022E+01  0.21881376971E+02 -0.24120119034E+02  0.33322569802E+02  0.00000000000E+00 0.  1.
</event>
<event>
 7    1  0.2812635E-010  0.4778722E+02  0.7816164E-02  0.1312668E+00
        -11   -1    0    0    0    0  0.00000000000E+00  0.00000000000E+00  0.45593999997E+02  0.45594000000E+02  0.51100000000E-03 0.  1.
         11   -1    0    0    0    0 -0.00000000000E+00 -0.00000000000E+00 -0.45593999997E+02  0.45594000000E+02  0.51100000000E-03 0. -1.
    9900012    2    1    2    0    0  0.16941611548E+02  0.34705199913E+02  0.19802984548E+02  0.47787224663E+02  0.19999788528E+02 0.  0.
         12    1    1    2    0    0 -0.16941611548E+02 -0.34705199913E+02 -0.19802984548E+02  0.43400775337E+02  0.00000000000E+00 0. -1.
         11    1    3    3    0    0  0.96160746847E+00 -0.28670861780E+00  0.50978461616E+01  0.51956642023E+01  0.51100000000E-03 0. -1.
        -11    1    3    3    0    0  0.15847268764E+02  0.22758604601E+02  0.10542856726E+02  0.29668869861E+02  0.51100000000E-03 0.  1.
        -12    1    3    3    0    0  0.13273531587E+00  0.12233303930E+02  0.41622816604E+01  0.12922690600E+02  0.00000000000E+00 0.  1.
</event>
<event>
 7    1  0.2812635E-010  0.4778727E+02  0.7816164E-02  0.1312668E+00
        -11   -1    0    0    0    0  0.00000000000E+00  0.00000000000E+00  0.45593999997E+02  0.45594000000E+02  0.51100000000E-03 0. -1.
         11   -1    0    0    0    0 -0.00000000000E+00 -0.00000000000E+00 -0.45593999997E+02  0.45594000000E+02  0.51100000000E-03 0.  1.
    9900012    2    1    2    0    0  0.26073321268E+00  0.20814645453E+02 -0.38082884310E+02  0.47787268157E+02  0.19999986835E+02 0.  0.
         12    1    1    2    0    0 -0.26073321268E+00 -0.20814645453E+02  0.38082884310E+02  0.43400731843E+02  0.00000000000E+00 0. -1.
         11    1    3    3    0    0  0.95246753950E+00 -0.75614969682E+00  0.10271934312E+01  0.15918804553E+01  0.51100000000E-03 0. -1.
        -11    1    3    3    0    0 -0.34945947345E+01  0.21216331218E+02 -0.32087253172E+02  0.38625596682E+02  0.51100000000E-03 0.  1.
         12    1    3    3    0    0  0.28028604077E+01  0.35446393230E+00 -0.70228245692E+01  0.75697910192E+01  0.00000000000E+00 0. -1.
</event>
<event>
 7    1  0.2812635E-010  0.4778727E+02  0.7816164E-02  0.1312668E+00
        -11   -1    0    0    0    0  0.00000000000E+00  0.00000000000E+00  0.45593999997E+02  0.45594000000E+02  0.51100000000E-03 0.  1.
         11   -1    0    0    0    0 -0.00000000000E+00 -0.00000000000E+00 -0.45593999997E+02  0.45594000000E+02  0.51100000000E-03 0. -1.
    9900012    2    1    2    0    0 -0.21729251784E+02  0.19514061333E+02  0.32103963444E+02  0.47787269111E+02  0.19999991187E+02 0.  0.
         12    1    1    2    0    0  0.21729251784E+02 -0.19514061333E+02 -0.32103963444E+02  0.43400730889E+02  0.00000000000E+00 0. -1.
         11    1    3    3    0    0 -0.16888742065E+00  0.38812638507E+01  0.27593489698E+01  0.47651588680E+01  0.51100000000E-03 0. -1.
        -11    1    3    3    0    0 -0.73231923665E+01  0.10195651728E+02  0.35222771831E+01  0.13037902340E+02  0.51100000000E-03 0.  1.
        -12    1    3    3    0    0 -0.14237171997E+02  0.54371457545E+01  0.25822337291E+02  0.29984207904E+02  0.00000000000E+00 0.  1.
</event>
<event>
 7    1  0.2812635E-010  0.4778727E+02  0.7816164E-02  0.1312668E+00
        -11   -1    0    0    0    0  0.00000000000E+00  0.00000000000E+00  0.45593999997E+02  0.45594000000E+02  0.51100000000E-03 0.  1.
         11   -1    0    0    0    0 -0.00000000000E+00 -0.00000000000E+00 -0.45593999997E+02  0.45594000000E+02  0.51100000000E-03 0. -1.
    9900012    2    1    2    0    0 -0.20509598342E+02  0.31062784852E+02  0.22317775514E+02  0.47787270389E+02  0.19999997010E+02 0.  0.
         12    1    1    2    0    0  0.20509598342E+02 -0.31062784852E+02 -0.22317775514E+02  0.43400729611E+02  0.00000000000E+00 0. -1.
         11    1    3    3    0    0 -0.15523530892E+02  0.12844920032E+02  0.33282056934E+01  0.20421776010E+02  0.51100000000E-03 0. -1.
        -11    1    3    3    0    0 -0.57591352051E+01  0.12246274444E+02  0.11527903701E+02  0.17777273134E+02  0.51100000000E-03 0.  1.
         12    1    3    3    0    0  0.77306775511E+00  0.59715903756E+01  0.74616661193E+01  0.95882212451E+01  0.00000000000E+00 0. -1.
</event>
<event>
 7    1  0.2812635E-010  0.4778727E+02  0.7816164E-02  0.1312668E+00
        -11   -1    0    0    0    0  0.00000000000E+00  0.00000000000E+00  0.45593999997E+02  0.45594000000E+02  0.51100000000E-03 0.  1.
         11   -1    0    0    0    0 -0.00000000000E+00 -0.00000000000E+00 -0.45593999997E+02  0.45594000000E+02  0.51100000000E-03 0. -1.
    9900012    2    1    2    0    0  0.23130563450E+02  0.36100872098E+02 -0.67325741454E+01  0.47787268596E+02  0.19999988838E+02 0.  0.
         12    1    1    2    0    0 -0.23130563450E+02 -0.36100872098E+02  0.67325741454E+01  0.43400731404E+02  0.00000000000E+00 0. -1.
         11    1    3    3    0    0  0.83017707266E+01  0.12981028330E+02 -0.41788399082E+01  0.15965249668E+02  0.51100000000E-03 0. -1.
        -11    1    3    3    0    0  0.13635461659E+02  0.65984334671E+01 -0.89011214132E+00  0.15174236019E+02  0.51100000000E-03 0.  1.
        -12    1    3    3    0    0  0.11933310652E+01  0.16521410300E+02 -0.16636220959E+01  0.16647782910E+02  0.00000000000E+00 0.  1.
</event>
<event>
 7    1  0.2812635E-010  0.4778727E+02  0.7816164E-02  0.1312668E+00
        -11   -1    0    0    0    0  0.00000000000E+00  0.00000000000E+00  0.45593999997E+02  0.45594000000E+02  0.51100000000E-03 0.  1.
         11   -1    0    0    0    0 -0.00000000000E+00 -0.00000000000E+00 -0.45593999997E+02  0.45594000000E+02  0.51100000000E-03 0. -1.
    9900012    2    1    2    0    0 -0.17975809901E+02  0.25249186551E+02  0.30380460356E+02  0.47787268042E+02  0.19999986309E+02 0.  0.
         12    1    1    2    0    0  0.17975809901E+02 -0.25249186551E+02 -0.30380460356E+02  0.43400731958E+02  0.00000000000E+00 0. -1.
         11    1    3    3    0    0 -0.30509487443E+01 -0.20977587653E+01  0.73642916940E+00  0.37750772522E+01  0.51100000000E-03 0. -1.
        -11    1    3    3    0    0 -0.95832497209E+01  0.10433010437E+02  0.89498553180E+01  0.16756679040E+02  0.51100000000E-03 0.  1.
         12    1    3    3    0    0 -0.53416114361E+01  0.16913934880E+02  0.20694175868E+02  0.27255511749E+02  0.00000000000E+00 0. -1.
</event>
<event>
 7    1  0.2812635E-010  0.4778727E+02  0.7816164E-02  0.1312668E+00
        -11   -1    0    0    0    0  0.00000000000E+00  0.00000000000E+00  0.45593999997E+02  0.45594000000E+02  0.51100000000E-03 0. -1.
         11   -1    0    0    0    0 -0.00000000000E+00 -0.00000000000E+00 -0.45593999997E+02  0.45594000000E+02  0.51100000000E-03 0.  1.
    9900012    2    1    2    0    0 -0.21624852548E+02 -0.12584178511E+02 -0.35463048647E+02  0.47787267105E+02  0.19999982039E+02 0.  0.
         12    1    1    2    0    0  0.21624852548E+02  0.12584178511E+02  0.35463048647E+02  0.43400732895E+02  0.00000000000E+00 0. -1.
         11    1    3    3    0    0 -0.67177309610E+01  0.19586282101E+01 -0.73202624258E+00  0.70356233847E+01  0.51100000000E-03 0. -1.
        -11    1    3    3    0    0 -0.55528293301E+01 -0.79536155008E+01 -0.18559874724E+02  0.20941892540E+02  0.51100000000E-03 0.  1.
         12    1    3    3    0    0 -0.93542922565E+01 -0.65891912201E+01 -0.16171147680E+02  0.19809751180E+02  0.00000000000E+00 0. -1.
</event>
<event>
 7    1  0.2812635E-010  0.4778727E+02  0.7816164E-02  0.1312668E+00
        -11   -1    0    0    0    0  0.00000000000E+00  0.00000000000E+00  0.45593999997E+02  0.45594000000E+02  0.51100000000E-03 0.  1.
         11   -1    0    0    0    0 -0.00000000000E+00 -0.00000000000E+00 -0.45593999997E+02  0.45594000000E+02  0.51100000000E-03 0. -1.
    9900012    2    1    2    0    0 -0.33537776504E+02  0.23038943739E+02 -0.15101255355E+02  0.47787270804E+02  0.19999998905E+02 0.  0.
         12    1    1    2    0    0  0.33537776504E+02 -0.23038943739E+02  0.15101255355E+02  0.43400729196E+02  0.00000000000E+00 0. -1.
         11    1    3    3    0    0 -0.60603869161E+00 -0.23027596781E+01 -0.31596895495E+01  0.39564660167E+01  0.51100000000E-03 0. -1.
        -11    1    3    3    0    0 -0.26750702998E+02  0.21450227028E+02 -0.12522362288E+02  0.36503724576E+02  0.51100000000E-03 0.  1.
        -12    1    3    3    0    0 -0.61810348143E+01  0.38914763900E+01  0.58079648251E+00  0.73270802113E+01  0.00000000000E+00 0.  1.
</event>
<event>
 7    1  0.2812635E-010  0.4778727E+02  0.7816164E-02  0.1312668E+00
        -11   -1    0    0    0    0  0.00000000000E+00  0.00000000000E+00  0.45593999997E+02  0.45594000000E+02  0.51100000000E-03 0. -1.
         11   -1    0    0    0    0 -0.00000000000E+00 -0.00000000000E+00 -0.45593999997E+02  0.45594000000E+02  0.51100000000E-03 0.  1.
    9900012    2    1    2    0    0 -0.33590229310E+02  0.18714906723E+02 -0.20126400595E+02  0.47787271439E+02  0.20000001798E+02 0.  0.
         12    1    1    2    0    0  0.33590229310E+02 -0.18714906723E+02  0.20126400595E+02  0.43400728561E+02  0.00000000000E+00 0. -1.
         11    1    3    3    0    0 -0.10390482104E+02  0.20828279697E+01  0.17235520258E+01  0.10736429693E+02  0.51100000000E-03 0. -1.
        -11    1    3    3    0    0 -0.18363981686E+02  0.12396201858E+02 -0.21069666979E+02  0.30575030838E+02  0.51100000000E-03 0.  1.
        -12    1    3    3    0    0 -0.48357655200E+01  0.42358768949E+01 -0.78028564175E+00  0.64758109080E+01  0.00000000000E+00 0.  1.
</event>
<event>
 7    1  0.2812635E-010  0.4778727E+02  0.7816164E-02  0.1312668E+00
        -11   -1    0    0    0    0  0.00000000000E+00  0.00000000000E+00  0.45593999997E+02  0.45594000000E+02  0.51100000000E-03 0. -1.
         11   -1    0    0    0    0 -0.00000000000E+00 -0.00000000000E+00 -0.45593999997E+02  0.45594000000E+02  0.51100000000E-03 0.  1.
    9900012    2    1    2    0    0  0.13619384880E+02  0.73122254734E+01 -0.40554492801E+02  0.47787272215E+02  0.20000005338E+02 0.  0.
         12    1    1    2    0    0 -0.13619384880E+02 -0.73122254734E+01  0.40554492801E+02  0.43400727785E+02  0.00000000000E+00 0. -1.
         11    1    3    3    0    0  0.24055577894E+01  0.12376267547E+02 -0.17729228873E+02  0.21755097411E+02  0.51100000000E-03 0. -1.
        -11    1    3    3    0    0  0.82909959572E+01 -0.40358031114E+01 -0.14896820411E+02  0.17519805346E+02  0.51100000000E-03 0.  1.
         12    1    3    3    0    0  0.29228311329E+01 -0.10282389621E+01 -0.79284435170E+01  0.85123694585E+01  0.00000000000E+00 0. -1.
</event>
<event>
 7    1  0.2812635E-010  0.4778727E+02  0.7816164E-02  0.1312668E+00
        -11   -1    0    0    0    0  0.00000000000E+00  0.00000000000E+00  0.45593999997E+02  0.45594000000E+02  0.51100000000E-03 0.  1.
         11   -1    0    0    0    0 -0.00000000000E+00 -0.00000000000E+00 -0.45593999997E+02  0.45594000000E+02  0.51100000000E-03 0. -1.
    9900012    2    1    2    0    0  0.16844587548E+02 -0.39238489354E+02 -0.77603969345E+01  0.47787274925E+02  0.20000017693E+02 0.  0.
         12    1    1    2    0    0 -0.16844587548E+02  0.39238489354E+02  0.77603969345E+01  0.43400725075E+02  0.00000000000E+00 0. -1.
         11    1    3    3    0    0 -0.29054028409E+01 -0.19468649066E+00 -0.12928328878E+01  0.31860140669E+01  0.51100000000E-03 0. -1.
        -11    1    3    3    0    0  0.20013815228E+02 -0.39020439142E+02 -0.65058120342E+01  0.44333656078E+02  0.51100000000E-03 0.  1.
        -12    1    3    3    0    0 -0.26382483971E+00 -0.23363722154E-01  0.38247987499E-01  0.26760477968E+00  0.00000000000E+00 0.  1.
</event>
<event>
 7    1  0.2812635E-010  0.4778730E+02  0.7816164E-02  0.1312668E+00
        -11   -1    0    0    0    0  0.00000000000E+00  0.00000000000E+00  0.45593999997E+02  0.45594000000E+02  0.51100000000E-03 0.  1.
         11   -1    0    0    0    0 -0.00000000000E+00 -0.00000000000E+00 -0.45593999997E+02  0.45594000000E+02  0.51100000000E-03 0. -1.
    9900012    2    1    2    0    0 -0.10750273783E+02 -0.88427395201E+01  0.41107888925E+02  0.47787297696E+02  0.20000121514E+02 0.  0.
         12    1    1    2    0    0  0.10750273783E+02  0.88427395201E+01 -0.41107888925E+02  0.43400702304E+02  0.00000000000E+00 0. -1.
         11    1    3    3    0    0  0.10189365551E+01  0.78232082170E+00  0.50096082679E-01  0.12856000350E+01  0.51100000000E-03 0. -1.
        -11    1    3    3    0    0 -0.14169853041E+02 -0.11321667355E+02  0.29970828801E+02  0.35031635220E+02  0.51100000000E-03 0.  1.
        -12    1    3    3    0    0  0.24006427028E+01  0.16966070135E+01  0.11086964041E+02  0.11470062441E+02  0.00000000000E+00 0.  1.
</event>
<event>
 7    1  0.2812635E-010  0.4778728E+02  0.7816164E-02  0.1312668E+00
        -11   -1    0    0    0    0  0.00000000000E+00  0.00000000000E+00  0.45593999997E+02  0.45594000000E+02  0.51100000000E-03 0.  1.
         11   -1    0    0    0    0 -0.00000000000E+00 -0.00000000000E+00 -0.45593999997E+02  0.45594000000E+02  0.51100000000E-03 0. -1.
    9900012    2    1    2    0    0 -0.16932961216E+02  0.35257303903E+01  0.39805360711E+02  0.47787277752E+02  0.20000030581E+02 0.  0.
         12    1    1    2    0    0  0.16932961216E+02 -0.35257303903E+01 -0.39805360711E+02  0.43400722248E+02  0.00000000000E+00 0. -1.
         11    1    3    3    0    0 -0.14763069128E+02  0.75115070624E+01  0.18472108467E+02  0.24811080990E+02  0.51100000000E-03 0. -1.
        -11    1    3    3    0    0  0.25815503217E+01 -0.97734227555E+00  0.91561022522E+01  0.95631484722E+01  0.51100000000E-03 0.  1.
         12    1    3    3    0    0 -0.47514424101E+01 -0.30084343965E+01  0.12177149991E+02  0.13413048289E+02  0.00000000000E+00 0. -1.
</event>
<event>
 7    1  0.2812635E-010  0.4778728E+02  0.7816164E-02  0.1312668E+00
        -11   -1    0    0    0    0  0.00000000000E+00  0.00000000000E+00  0.45593999997E+02  0.45594000000E+02  0.51100000000E-03 0. -1.
         11   -1    0    0    0    0 -0.00000000000E+00 -0.00000000000E+00 -0.45593999997E+02  0.45594000000E+02  0.51100000000E-03 0.  1.
    9900012    2    1    2    0    0 -0.84485748596E+01  0.33815563747E+02 -0.25860234344E+02  0.47787280087E+02  0.20000041228E+02 0.  0.
         12    1    1    2    0    0  0.84485748596E+01 -0.33815563747E+02  0.25860234344E+02  0.43400719913E+02  0.00000000000E+00 0. -1.
         11    1    3    3    0    0 -0.58156799928E+01  0.13536756927E+02 -0.30703171113E+01  0.15049676718E+02  0.51100000000E-03 0. -1.
        -11    1    3    3    0    0  0.16479940332E+01  0.74801653588E+01 -0.15755577499E+02  0.17518760821E+02  0.51100000000E-03 0.  1.
        -12    1    3    3    0    0 -0.42808889000E+01  0.12798641461E+02 -0.70343397336E+01  0.15218842548E+02  0.00000000000E+00 0.  1.
</event>
<event>
 7    1  0.2812635E-010  0.4778725E+02  0.7816164E-02  0.1312668E+00
        -11   -1    0    0    0    0  0.00000000000E+00  0.00000000000E+00  0.45593999997E+02  0.45594000000E+02  0.51100000000E-03 0.  1.
         11   -1    0    0    0    0 -0.00000000000E+00 -0.00000000000E+00 -0.45593999997E+02  0.45594000000E+02  0.51100000000E-03 0. -1.
    9900012    2    1    2    0    0 -0.35997446848E+02 -0.12859245457E+02  0.20553553569E+02  0.47787251878E+02  0.19999912611E+02 0.  0.
         12    1    1    2    0    0  0.35997446848E+02  0.12859245457E+02 -0.20553553569E+02  0.43400748122E+02  0.00000000000E+00 0. -1.
         11    1    3    3    0    0 -0.51033175826E+01 -0.27800733368E+01 -0.36274724888E+01  0.68506361037E+01  0.51100000000E-03 0. -1.
        -11    1    3    3    0    0 -0.54189041773E+01  0.41661856752E+00  0.47901361377E+01  0.72445495369E+01  0.51100000000E-03 0.  1.
         12    1    3    3    0    0 -0.25475225088E+02 -0.10495790687E+02  0.19390889920E+02  0.33692066237E+02  0.00000000000E+00 0. -1.
</event>
<event>
 7    1  0.2812635E-010  0.4778727E+02  0.7816164E-02  0.1312668E+00
        -11   -1    0    0    0    0  0.00000000000E+00  0.00000000000E+00  0.45593999997E+02  0.45594000000E+02  0.51100000000E-03 0.  1.
         11   -1    0    0    0    0 -0.00000000000E+00 -0.00000000000E+00 -0.45593999997E+02  0.45594000000E+02  0.51100000000E-03 0. -1.
    9900012    2    1    2    0    0 -0.11813983192E+02 -0.12763421826E+02  0.39763655598E+02  0.47787269106E+02  0.19999991163E+02 0.  0.
         12    1    1    2    0    0  0.11813983192E+02  0.12763421826E+02 -0.39763655598E+02  0.43400730894E+02  0.00000000000E+00 0. -1.
         11    1    3    3    0    0  0.23642360764E+00  0.40142990444E+01  0.73027060778E+01  0.83366665556E+01  0.51100000000E-03 0. -1.
        -11    1    3    3    0    0 -0.84180089899E+01 -0.10253390771E+02  0.27362001083E+02  0.30408452791E+02  0.51100000000E-03 0.  1.
         12    1    3    3    0    0 -0.36323978097E+01 -0.65243300993E+01  0.50989484381E+01  0.90421497591E+01  0.00000000000E+00 0. -1.
</event>
<event>
 7    1  0.2812635E-010  0.4778727E+02  0.7816164E-02  0.1312668E+00
        -11   -1    0    0    0    0  0.00000000000E+00  0.00000000000E+00  0.45593999997E+02  0.45594000000E+02  0.51100000000E-03 0.  1.
         11   -1    0    0    0    0 -0.00000000000E+00 -0.00000000000E+00 -0.45593999997E+02  0.45594000000E+02  0.51100000000E-03 0. -1.
    9900012    2    1    2    0    0 -0.27597034779E+02  0.20552092044E+02  0.26450678787E+02  0.47787271616E+02  0.20000002604E+02 0.  0.
         12    1    1    2    0    0  0.27597034779E+02 -0.20552092044E+02 -0.26450678787E+02  0.43400728384E+02  0.00000000000E+00 0. -1.
         11    1    3    3    0    0 -0.10390821670E+02 -0.71636716853E+00  0.24855422680E+01  0.10707953937E+02  0.51100000000E-03 0. -1.
        -11    1    3    3    0    0 -0.17051313642E+02  0.21385161888E+02  0.21989838491E+02  0.35094521553E+02  0.51100000000E-03 0.  1.
        -12    1    3    3    0    0 -0.15489946718E+00 -0.11670267538E+00  0.19752980284E+01  0.19847961256E+01  0.00000000000E+00 0.  1.
</event>
<event>
 7    1  0.2812635E-010  0.4778727E+02  0.7816164E-02  0.1312668E+00
        -11   -1    0    0    0    0  0.00000000000E+00  0.00000000000E+00  0.45593999997E+02  0.45594000000E+02  0.51100000000E-03 0. -1.
         11   -1    0    0    0    0 -0.00000000000E+00 -0.00000000000E+00 -0.45593999997E+02  0.45594000000E+02  0.51100000000E-03 0.  1.
    9900012    2    1    2    0    0  0.37323961994E+02 -0.19956544876E+02 -0.96063432292E+01  0.47787266682E+02  0.19999980110E+02 0.  0.
         12    1    1    2    0    0 -0.37323961994E+02  0.19956544876E+02  0.96063432292E+01  0.43400733318E+02  0.00000000000E+00 0. -1.
         11    1    3    3    0    0  0.11199701314E+02 -0.70273622386E+01  0.50578496763E+01  0.14156234428E+02  0.51100000000E-03 0. -1.
        -11    1    3    3    0    0  0.22932977518E+02 -0.12683299779E+02 -0.10163886501E+02  0.28108577697E+02  0.51100000000E-03 0.  1.
         12    1    3    3    0    0  0.31912831616E+01 -0.24588285873E+00 -0.45003064046E+01  0.55224545569E+01  0.00000000000E+00 0. -1.
</event>
<event>
 7    1  0.2812635E-010  0.4778727E+02  0.7816164E-02  0.1312668E+00
        -11   -1    0    0    0    0  0.00000000000E+00  0.00000000000E+00  0.45593999997E+02  0.45594000000E+02  0.51100000000E-03 0.  1.
         11   -1    0    0    0    0 -0.00000000000E+00 -0.00000000000E+00 -0.45593999997E+02  0.45594000000E+02  0.51100000000E-03 0. -1.
    9900012    2    1    2    0    0  0.12346430073E+02 -0.15642752160E+02  0.38555070036E+02  0.47787268944E+02  0.19999990425E+02 0.  0.
         12    1    1    2    0    0 -0.12346430073E+02  0.15642752160E+02 -0.38555070036E+02  0.43400731056E+02  0.00000000000E+00 0. -1.
         11    1    3    3    0    0  0.78450361102E+01 -0.17138603678E+02  0.23293466023E+02  0.29964343598E+02  0.51100000000E-03 0.  1.
        -11    1    3    3    0    0  0.58485232279E+01 -0.12762151166E+01  0.11456954437E+02  0.12926552294E+02  0.51100000000E-03 0. -1.
         12    1    3    3    0    0 -0.13471292650E+01  0.27720666345E+01  0.38046495757E+01  0.48963730532E+01  0.00000000000E+00 0. -1.
</event>
<event>
 7    1  0.2812635E-010  0.4778727E+02  0.7816164E-02  0.1312668E+00
        -11   -1    0    0    0    0  0.00000000000E+00  0.00000000000E+00  0.45593999997E+02  0.45594000000E+02  0.51100000000E-03 0. -1.
         11   -1    0    0    0    0 -0.00000000000E+00 -0.00000000000E+00 -0.45593999997E+02  0.45594000000E+02  0.51100000000E-03 0.  1.
    9900012    2    1    2    0    0  0.15587128571E+02 -0.40226708811E+02  0.47409288472E+01  0.47787273219E+02  0.20000009913E+02 0.  0.
         12    1    1    2    0    0 -0.15587128571E+02  0.40226708811E+02 -0.47409288472E+01  0.43400726781E+02  0.00000000000E+00 0. -1.
         11    1    3    3    0    0  0.39925791736E+01 -0.17026309305E+02  0.10854224686E+02  0.20582761982E+02  0.51100000000E-03 0. -1.
        -11    1    3    3    0    0  0.10188255084E+02 -0.17933601750E+02 -0.67828168576E+01  0.21712236600E+02  0.51100000000E-03 0.  1.
        -12    1    3    3    0    0  0.14062943129E+01 -0.52667977554E+01  0.66952101937E+00  0.54922746368E+01  0.00000000000E+00 0.  1.
</event>
<event>
 7    1  0.2812635E-010  0.4778727E+02  0.7816164E-02  0.1312668E+00
        -11   -1    0    0    0    0  0.00000000000E+00  0.00000000000E+00  0.45593999997E+02  0.45594000000E+02  0.51100000000E-03 0. -1.
         11   -1    0    0    0    0 -0.00000000000E+00 -0.00000000000E+00 -0.45593999997E+02  0.45594000000E+02  0.51100000000E-03 0.  1.
    9900012    2    1    2    0    0  0.26072648504E+01 -0.18680943888E+02 -0.39087694855E+02  0.47787269780E+02  0.19999994235E+02 0.  0.
         12    1    1    2    0    0 -0.26072648504E+01  0.18680943888E+02  0.39087694855E+02  0.43400730220E+02  0.00000000000E+00 0. -1.
         11    1    3    3    0    0 -0.27360507132E+01  0.30821322954E+00 -0.59781665527E+01  0.65817508684E+01  0.51100000000E-03 0. -1.
        -11    1    3    3    0    0 -0.46591582250E+00  0.12276542710E+00  0.13176416969E+01  0.14029714203E+01  0.51100000000E-03 0.  1.
        -12    1    3    3    0    0  0.58092313862E+01 -0.19111922544E+02 -0.34427169999E+02  0.39802547491E+02  0.00000000000E+00 0.  1.
</event>
<event>
 7    1  0.2812635E-010  0.4778727E+02  0.7816164E-02  0.1312668E+00
        -11   -1    0    0    0    0  0.00000000000E+00  0.00000000000E+00  0.45593999997E+02  0.45594000000E+02  0.51100000000E-03 0.  1.
         11   -1    0    0    0    0 -0.00000000000E+00 -0.00000000000E+00 -0.45593999997E+02  0.45594000000E+02  0.51100000000E-03 0. -1.
    9900012    2    1    2    0    0  0.42018443108E+01  0.23673492425E+02  0.36132165887E+02  0.47787272461E+02  0.20000006460E+02 0.  0.
         12    1    1    2    0    0 -0.42018443108E+01 -0.23673492425E+02 -0.36132165887E+02  0.43400727539E+02  0.00000000000E+00 0. -1.
         11    1    3    3    0    0  0.80235320464E+01  0.84399941465E+01  0.22491225707E+02  0.25327175163E+02  0.51100000000E-03 0. -1.
        -11    1    3    3    0    0 -0.53233145379E+01  0.46543286355E+01  0.43615885293E+01  0.83080627993E+01  0.51100000000E-03 0.  1.
         12    1    3    3    0    0  0.15016268024E+01  0.10579169643E+02  0.92793516510E+01  0.14152034499E+02  0.00000000000E+00 0. -1.
</event>
<event>
 7    1  0.2812635E-010  0.4778727E+02  0.7816164E-02  0.1312668E+00
        -11   -1    0    0    0    0  0.00000000000E+00  0.00000000000E+00  0.45593999997E+02  0.45594000000E+02  0.51100000000E-03 0.  1.
         11   -1    0    0    0    0 -0.00000000000E+00 -0.00000000000E+00 -0.45593999997E+02  0.45594000000E+02  0.51100000000E-03 0. -1.
    9900012    2    1    2    0    0 -0.24566794728E+02  0.20060588430E+02  0.29625472946E+02  0.47787271220E+02  0.20000000801E+02 0.  0.
         12    1    1    2    0    0  0.24566794728E+02 -0.20060588430E+02 -0.29625472946E+02  0.43400728780E+02  0.00000000000E+00 0. -1.
         11    1    3    3    0    0 -0.84846585310E+01  0.35565735371E+00  0.10804774634E+02  0.13742600834E+02  0.51100000000E-03 0. -1.
        -11    1    3    3    0    0 -0.12830798975E+02  0.19487771090E+02  0.11459900621E+02  0.25994844621E+02  0.51100000000E-03 0.  1.
        -12    1    3    3    0    0 -0.32513372224E+01  0.21715998627E+00  0.73607976907E+01  0.80498257644E+01  0.00000000000E+00 0.  1.
</event>
<event>
 7    1  0.2812635E-010  0.4778728E+02  0.7816164E-02  0.1312668E+00
        -11   -1    0    0    0    0  0.00000000000E+00  0.00000000000E+00  0.45593999997E+02  0.45594000000E+02  0.51100000000E-03 0.  1.
         11   -1    0    0    0    0 -0.00000000000E+00 -0.00000000000E+00 -0.45593999997E+02  0.45594000000E+02  0.51100000000E-03 0. -1.
    9900012    2    1    2    0    0 -0.83790041243E+01  0.41745574305E+02  0.84096468676E+01  0.47787275990E+02  0.20000022547E+02 0.  0.
         12    1    1    2    0    0  0.83790041243E+01 -0.41745574305E+02 -0.84096468676E+01  0.43400724010E+02  0.00000000000E+00 0. -1.
         11    1    3    3    0    0 -0.84854025357E+01  0.11827729290E+02  0.77953098220E+01  0.16512543470E+02  0.51100000000E-03 0. -1.
        -11    1    3    3    0    0 -0.31357415390E+01  0.87442866611E+01  0.29027665767E+01  0.97324959939E+01  0.51100000000E-03 0.  1.
         12    1    3    3    0    0  0.32421399505E+01  0.21173558354E+02 -0.22884295311E+01  0.21542236526E+02  0.00000000000E+00 0. -1.
</event>
<event>
 7    1  0.2812635E-010  0.4778727E+02  0.7816164E-02  0.1312668E+00
        -11   -1    0    0    0    0  0.00000000000E+00  0.00000000000E+00  0.45593999997E+02  0.45594000000E+02  0.51100000000E-03 0. -1.
         11   -1    0    0    0    0 -0.00000000000E+00 -0.00000000000E+00 -0.45593999997E+02  0.45594000000E+02  0.51100000000E-03 0.  1.
    9900012    2    1    2    0    0  0.40468545983E+02  0.63463942019E+01 -0.14340276072E+02  0.47787269002E+02  0.19999990689E+02 0.  0.
         12    1    1    2    0    0 -0.40468545983E+02 -0.63463942019E+01  0.14340276072E+02  0.43400730998E+02  0.00000000000E+00 0. -1.
         11    1    3    3    0    0  0.14950377027E+02  0.32936740247E+01  0.39286601403E+01  0.15804949623E+02  0.51100000000E-03 0. -1.
        -11    1    3    3    0    0  0.25139851586E+02  0.25626056649E+01 -0.18503474470E+02  0.31320243506E+02  0.51100000000E-03 0.  1.
         12    1    3    3    0    0  0.37831736939E+00  0.49011451228E+00  0.23453825770E+00  0.66207587288E+00  0.00000000000E+00 0. -1.
</event>
<event>
 7    1  0.2812635E-010  0.4778726E+02  0.7816164E-02  0.1312668E+00
        -11   -1    0    0    0    0  0.00000000000E+00  0.00000000000E+00  0.45593999997E+02  0.45594000000E+02  0.51100000000E-03 0.  1.
         11   -1    0    0    0    0 -0.00000000000E+00 -0.00000000000E+00 -0.45593999997E+02  0.45594000000E+02  0.51100000000E-03 0. -1.
    9900012    2    1    2    0    0 -0.10390635011E+02  0.30693543054E+02  0.28871532237E+02  0.47787259743E+02  0.19999948474E+02 0.  0.
         12    1    1    2    0    0  0.10390635011E+02 -0.30693543054E+02 -0.28871532237E+02  0.43400740257E+02  0.00000000000E+00 0. -1.
         11    1    3    3    0    0 -0.10289368264E+00 -0.76429585762E+00 -0.17488567904E+01  0.19113439257E+01  0.51100000000E-03 0. -1.
        -11    1    3    3    0    0 -0.89445989664E+01  0.16583856372E+02  0.20451172485E+02  0.27807923316E+02  0.51100000000E-03 0.  1.
         12    1    3    3    0    0 -0.13431423616E+01  0.14873982539E+02  0.10169216542E+02  0.18067992502E+02  0.00000000000E+00 0. -1.
</event>
<event>
 7    1  0.2812635E-010  0.4778727E+02  0.7816164E-02  0.1312668E+00
        -11   -1    0    0    0    0  0.00000000000E+00  0.00000000000E+00  0.45593999997E+02  0.45594000000E+02  0.51100000000E-03 0. -1.
         11   -1    0    0    0    0 -0.00000000000E+00 -0.00000000000E+00 -0.45593999997E+02  0.45594000000E+02  0.51100000000E-03 0.  1.
    9900012    2    1    2    0    0 -0.77376058358E+01 -0.39479832210E+02 -0.16281750558E+02  0.47787273086E+02  0.20000009310E+02 0.  0.
         12    1    1    2    0    0  0.77376058358E+01  0.39479832210E+02  0.16281750558E+02  0.43400726914E+02  0.00000000000E+00 0. -1.
         11    1    3    3    0    0 -0.19091805438E+01 -0.15213276475E+02  0.49084896755E+00  0.15340459068E+02  0.51100000000E-03 0. -1.
        -11    1    3    3    0    0 -0.19187584789E+01 -0.22065213420E+02 -0.17050677192E+02  0.27951401938E+02  0.51100000000E-03 0.  1.
         12    1    3    3    0    0 -0.39096668130E+01 -0.22013423155E+01  0.27807766663E+00  0.44954120799E+01  0.00000000000E+00 0. -1.
</event>
<event>
 7    1  0.2812635E-010  0.4778727E+02  0.7816164E-02  0.1312668E+00
        -11   -1    0    0    0    0  0.00000000000E+00  0.00000000000E+00  0.45593999997E+02  0.45594000000E+02  0.51100000000E-03 0.  1.
         11   -1    0    0    0    0 -0.00000000000E+00 -0.00000000000E+00 -0.45593999997E+02  0.45594000000E+02  0.51100000000E-03 0. -1.
    9900012    2    1    2    0    0 -0.44912148213E+01  0.40031702426E+02  0.16152864839E+02  0.47787271294E+02  0.20000001138E+02 0.  0.
         12    1    1    2    0    0  0.44912148213E+01 -0.40031702426E+02 -0.16152864839E+02  0.43400728706E+02  0.00000000000E+00 0. -1.
         11    1    3    3    0    0 -0.42650422231E+01  0.11099499604E+01  0.45491630276E+01  0.63338344304E+01  0.51100000000E-03 0. -1.
        -11    1    3    3    0    0  0.71846551137E+00  0.29861423006E+02  0.12330511256E+02  0.32315047342E+02  0.51100000000E-03 0.  1.
         12    1    3    3    0    0 -0.94463810961E+00  0.90603294595E+01 -0.72680944482E+00  0.91383895213E+01  0.00000000000E+00 0. -1.
</event>
<event>
 7    1  0.2812635E-010  0.4778726E+02  0.7816164E-02  0.1312668E+00
        -11   -1    0    0    0    0  0.00000000000E+00  0.00000000000E+00  0.45593999997E+02  0.45594000000E+02  0.51100000000E-03 0. -1.
         11   -1    0    0    0    0 -0.00000000000E+00 -0.00000000000E+00 -0.45593999997E+02  0.45594000000E+02  0.51100000000E-03 0.  1.
    9900012    2    1    2    0    0  0.26267961610E+01  0.17870401436E+02 -0.39463562625E+02  0.47787261751E+02  0.19999957627E+02 0.  0.
         12    1    1    2    0    0 -0.26267961610E+01 -0.17870401436E+02  0.39463562625E+02  0.43400738249E+02  0.00000000000E+00 0. -1.
         11    1    3    3    0    0 -0.19954322890E+01  0.21507137867E+01 -0.28971408434E+01  0.41231959861E+01  0.51100000000E-03 0. -1.
        -11    1    3    3    0    0 -0.53898940312E+01  0.32390301386E+00 -0.67269899851E+01  0.86260225684E+01  0.51100000000E-03 0.  1.
        -12    1    3    3    0    0  0.10012122481E+02  0.15395784635E+02 -0.29839431796E+02  0.35038043196E+02  0.00000000000E+00 0.  1.
</event>
<event>
 7    1  0.2812635E-010  0.4778727E+02  0.7816164E-02  0.1312668E+00
        -11   -1    0    0    0    0  0.00000000000E+00  0.00000000000E+00  0.45593999997E+02  0.45594000000E+02  0.51100000000E-03 0.  1.
         11   -1    0    0    0    0 -0.00000000000E+00 -0.00000000000E+00 -0.45593999997E+02  0.45594000000E+02  0.51100000000E-03 0. -1.
    9900012    2    1    2    0    0 -0.28334727990E+02 -0.25974352161E+02  0.20151907349E+02  0.47787272469E+02  0.20000006494E+02 0.  0.
         12    1    1    2    0    0  0.28334727990E+02  0.25974352161E+02 -0.20151907349E+02  0.43400727531E+02  0.00000000000E+00 0. -1.
         11    1    3    3    0    0 -0.14340533325E+02 -0.58473809150E+01  0.98566999906E+01  0.18357486064E+02  0.51100000000E-03 0. -1.
        -11    1    3    3    0    0 -0.14805306339E+02 -0.12040600084E+02  0.49914875835E+01  0.19725316087E+02  0.51100000000E-03 0.  1.
         12    1    3    3    0    0  0.81111167329E+00 -0.80863711614E+01  0.53037197744E+01  0.97044703180E+01  0.00000000000E+00 0. -1.
</event>
<event>
 7    1  0.2812635E-010  0.4778727E+02  0.7816164E-02  0.1312668E+00
        -11   -1    0    0    0    0  0.00000000000E+00  0.00000000000E+00  0.45593999997E+02  0.45594000000E+02  0.51100000000E-03 0.  1.
         11   -1    0    0    0    0 -0.00000000000E+00 -0.00000000000E+00 -0.45593999997E+02  0.45594000000E+02  0.51100000000E-03 0. -1.
    9900012    2    1    2    0    0  0.22001356839E+02 -0.87202234540E+01  0.36380233447E+02  0.47787269759E+02  0.19999994137E+02 0.  0.
         12    1    1    2    0    0 -0.22001356839E+02  0.87202234540E+01 -0.36380233447E+02  0.43400730241E+02  0.00000000000E+00 0. -1.
         11    1    3    3    0    0  0.49756192284E+01  0.61803165091E+00  0.72951464308E+01  0.88520004256E+01  0.51100000000E-03 0. -1.
        -11    1    3    3    0    0  0.10962490818E+02 -0.37586497216E+01  0.28392282521E+02  0.30666355500E+02  0.51100000000E-03 0.  1.
        -12    1    3    3    0    0  0.60632467928E+01 -0.55796053834E+01  0.69280449527E+00  0.82689138327E+01  0.00000000000E+00 0.  1.
</event>
<event>
 7    1  0.2812635E-010  0.4778727E+02  0.7816164E-02  0.1312668E+00
        -11   -1    0    0    0    0  0.00000000000E+00  0.00000000000E+00  0.45593999997E+02  0.45594000000E+02  0.51100000000E-03 0.  1.
         11   -1    0    0    0    0 -0.00000000000E+00 -0.00000000000E+00 -0.45593999997E+02  0.45594000000E+02  0.51100000000E-03 0. -1.
    9900012    2    1    2    0    0 -0.20589821429E+02 -0.38102458393E+02 -0.28081451691E+01  0.47787265428E+02  0.19999974394E+02 0.  0.
         12    1    1    2    0    0  0.20589821429E+02  0.38102458393E+02  0.28081451691E+01  0.43400734572E+02  0.00000000000E+00 0. -1.
         11    1    3    3    0    0 -0.14069691535E+01 -0.17382414127E+02  0.34885775965E+01  0.17784770367E+02  0.51100000000E-03 0. -1.
        -11    1    3    3    0    0 -0.14619677701E+02 -0.10858823186E+02 -0.58489367684E+01  0.19127443077E+02  0.51100000000E-03 0.  1.
        -12    1    3    3    0    0 -0.45631745748E+01 -0.98612210793E+01 -0.44778599710E+00  0.10875051985E+02  0.00000000000E+00 0.  1.
</event>
<event>
 7    1  0.2812635E-010  0.4778727E+02  0.7816164E-02  0.1312668E+00
        -11   -1    0    0    0    0  0.00000000000E+00  0.00000000000E+00  0.45593999997E+02  0.45594000000E+02  0.51100000000E-03 0.  1.
         11   -1    0    0    0    0 -0.00000000000E+00 -0.00000000000E+00 -0.45593999997E+02  0.45594000000E+02  0.51100000000E-03 0. -1.
    9900012    2    1    2    0    0 -0.26268461309E+02  0.31598697122E+02  0.13968303370E+02  0.47787271684E+02  0.20000002915E+02 0.  0.
         12    1    1    2    0    0  0.26268461309E+02 -0.31598697122E+02 -0.13968303370E+02  0.43400728316E+02  0.00000000000E+00 0. -1.
         11    1    3    3    0    0 -0.14464698731E+02  0.13890847940E+02 -0.27492930402E+00  0.20056389312E+02  0.51100000000E-03 0. -1.
        -11    1    3    3    0    0 -0.11531286430E+02  0.15412201731E+02  0.15834292088E+02  0.24924512735E+02  0.51100000000E-03 0.  1.
        -12    1    3    3    0    0 -0.27247614743E+00  0.22956474519E+01 -0.15910594140E+01  0.28063696359E+01  0.00000000000E+00 0.  1.
</event>
<event>
 7    1  0.2812635E-010  0.4778727E+02  0.7816164E-02  0.1312668E+00
        -11   -1    0    0    0    0  0.00000000000E+00  0.00000000000E+00  0.45593999997E+02  0.45594000000E+02  0.51100000000E-03 0.  1.
         11   -1    0    0    0    0 -0.00000000000E+00 -0.00000000000E+00 -0.45593999997E+02  0.45594000000E+02  0.51100000000E-03 0. -1.
    9900012    2    1    2    0    0  0.19534085720E+02 -0.46958613677E+01  0.38470664094E+02  0.47787267117E+02  0.19999982095E+02 0.  0.
         12    1    1    2    0    0 -0.19534085720E+02  0.46958613677E+01 -0.38470664094E+02  0.43400732883E+02  0.00000000000E+00 0. -1.
         11    1    3    3    0    0  0.13800988729E+01 -0.61449469603E+01  0.27728071728E+01  0.68813883718E+01  0.51100000000E-03 0. -1.
        -11    1    3    3    0    0  0.17576829678E+02 -0.28080652127E+00  0.28540940823E+02  0.33520278894E+02  0.51100000000E-03 0.  1.
        -12    1    3    3    0    0  0.57715716898E+00  0.17298921139E+01  0.71569160988E+01  0.73855998517E+01  0.00000000000E+00 0.  1.
</event>
<event>
 7    1  0.2812635E-010  0.4778727E+02  0.7816164E-02  0.1312668E+00
        -11   -1    0    0    0    0  0.00000000000E+00  0.00000000000E+00  0.45593999997E+02  0.45594000000E+02  0.51100000000E-03 0. -1.
         11   -1    0    0    0    0 -0.00000000000E+00 -0.00000000000E+00 -0.45593999997E+02  0.45594000000E+02  0.51100000000E-03 0.  1.
    9900012    2    1    2    0    0 -0.15905268669E+02 -0.26867257829E+02 -0.30146249054E+02  0.47787269053E+02  0.19999990922E+02 0.  0.
         12    1    1    2    0    0  0.15905268669E+02  0.26867257829E+02  0.30146249054E+02  0.43400730947E+02  0.00000000000E+00 0. -1.
         11    1    3    3    0    0 -0.39096421540E+01  0.18271815599E+01 -0.20061378134E+01  0.47590422790E+01  0.51100000000E-03 0. -1.
        -11    1    3    3    0    0 -0.12523790933E+01 -0.15433759088E+02 -0.13395955672E+02  0.20474887096E+02  0.51100000000E-03 0.  1.
        -12    1    3    3    0    0 -0.10743247422E+02 -0.13260680301E+02 -0.14744155568E+02  0.22553339678E+02  0.00000000000E+00 0.  1.
</event>
<event>
 7    1  0.2812635E-010  0.4778733E+02  0.7816164E-02  0.1312667E+00
        -11   -1    0    0    0    0  0.00000000000E+00  0.00000000000E+00  0.45593999997E+02  0.45594000000E+02  0.51100000000E-03 0.  1.
         11   -1    0    0    0    0 -0.00000000000E+00 -0.00000000000E+00 -0.45593999997E+02  0.45594000000E+02  0.51100000000E-03 0. -1.
    9900012    2    1    2    0    0 -0.29873596916E+01  0.11518093359E+02  0.41737599326E+02  0.47787331917E+02  0.20000277542E+02 0.  0.
         12    1    1    2    0    0  0.29873596916E+01 -0.11518093359E+02 -0.41737599326E+02  0.43400668083E+02  0.00000000000E+00 0. -1.
         11    1    3    3    0    0 -0.67782176638E+01  0.29254288163E+01  0.56485137143E+01  0.92955944349E+01  0.51100000000E-03 0. -1.
        -11    1    3    3    0    0  0.29749764510E+01  0.49532019517E+01  0.33393876135E+02  0.33890052494E+02  0.51100000000E-03 0.  1.
        -12    1    3    3    0    0  0.81588152121E+00  0.36394625913E+01  0.26952094759E+01  0.46016849880E+01  0.00000000000E+00 0.  1.
</event>
<event>
 7    1  0.2812635E-010  0.4778728E+02  0.7816164E-02  0.1312668E+00
        -11   -1    0    0    0    0  0.00000000000E+00  0.00000000000E+00  0.45593999997E+02  0.45594000000E+02  0.51100000000E-03 0.  1.
         11   -1    0    0    0    0 -0.00000000000E+00 -0.00000000000E+00 -0.45593999997E+02  0.45594000000E+02  0.51100000000E-03 0. -1.
    9900012    2    1    2    0    0 -0.49353651471E+01  0.39761676791E+02  0.16681538439E+02  0.47787280017E+02  0.20000040911E+02 0.  0.
         12    1    1    2    0    0  0.49353651471E+01 -0.39761676791E+02 -0.16681538439E+02  0.43400719983E+02  0.00000000000E+00 0. -1.
         11    1    3    3    0    0  0.41438505307E+01  0.19095912066E+01  0.38608652852E+00  0.45789844797E+01  0.51100000000E-03 0. -1.
        -11    1    3    3    0    0 -0.88556846711E+01  0.20856021252E+02  0.64201157600E+01  0.23550258174E+02  0.51100000000E-03 0.  1.
        -12    1    3    3    0    0 -0.22353100669E+00  0.16996064332E+02  0.98753361501E+01  0.19658037363E+02  0.00000000000E+00 0.  1.
</event>
<event>
 7    1  0.2812635E-010  0.4778727E+02  0.7816164E-02  0.1312668E+00
        -11   -1    0    0    0    0  0.00000000000E+00  0.00000000000E+00  0.45593999997E+02  0.45594000000E+02  0.51100000000E-03 0.  1.
         11   -1    0    0    0    0 -0.00000000000E+00 -0.00000000000E+00 -0.45593999997E+02  0.45594000000E+02  0.51100000000E-03 0. -1.
    9900012    2    1    2    0    0  0.41486401131E+02  0.72925849026E+01  0.10455621865E+02  0.47787270721E+02  0.19999998526E+02 0.  0.
         12    1    1    2    0    0 -0.41486401131E+02 -0.72925849026E+01 -0.10455621865E+02  0.43400729279E+02  0.00000000000E+00 0. -1.
         11    1    3    3    0    0  0.12017065591E+01  0.75537019651E+00  0.62441678687E+01  0.64034612064E+01  0.51100000000E-03 0. -1.
        -11    1    3    3    0    0  0.35480444729E+02  0.69142432176E+01  0.50287071322E+01  0.36495980781E+02  0.51100000000E-03 0.  1.
         12    1    3    3    0    0  0.48042498425E+01 -0.37702851144E+00 -0.81725313578E+00  0.48878287343E+01  0.00000000000E+00 0. -1.
</event>
<event>
 7    1  0.2812635E-010  0.4778727E+02  0.7816164E-02  0.1312668E+00
        -11   -1    0    0    0    0  0.00000000000E+00  0.00000000000E+00  0.45593999997E+02  0.45594000000E+02  0.51100000000E-03 0.  1.
         11   -1    0    0    0    0 -0.00000000000E+00 -0.00000000000E+00 -0.45593999997E+02  0.45594000000E+02  0.51100000000E-03 0. -1.
    9900012    2    1    2    0    0  0.35543871143E+02  0.24682825089E+02 -0.33188694369E+01  0.47787268157E+02  0.19999986836E+02 0.  0.
         12    1    1    2    0    0 -0.35543871143E+02 -0.24682825089E+02  0.33188694369E+01  0.43400731843E+02  0.00000000000E+00 0. -1.
         11    1    3    3    0    0  0.98286297502E+01  0.18056552874E+00 -0.49405106511E+01  0.11001964026E+02  0.51100000000E-03 0. -1.
        -11    1    3    3    0    0  0.11296259133E+01 -0.47215494367E+00  0.12333316849E+01  0.17378412761E+01  0.51100000000E-03 0.  1.
         12    1    3    3    0    0  0.24585615479E+02  0.24974414503E+02  0.38830952925E+00  0.35047462855E+02  0.00000000000E+00 0. -1.
</event>
<event>
 7    1  0.2812635E-010  0.4778727E+02  0.7816164E-02  0.1312668E+00
        -11   -1    0    0    0    0  0.00000000000E+00  0.00000000000E+00  0.45593999997E+02  0.45594000000E+02  0.51100000000E-03 0.  1.
         11   -1    0    0    0    0 -0.00000000000E+00 -0.00000000000E+00 -0.45593999997E+02  0.45594000000E+02  0.51100000000E-03 0. -1.
    9900012    2    1    2    0    0  0.10554778589E+02  0.41976836833E+02 -0.31882623842E+01  0.47787271912E+02  0.20000003955E+02 0.  0.
         12    1    1    2    0    0 -0.10554778589E+02 -0.41976836833E+02  0.31882623842E+01  0.43400728088E+02  0.00000000000E+00 0. -1.
         11    1    3    3    0    0  0.63134162882E+01  0.65501052764E+01  0.27995228813E+01  0.95184259720E+01  0.51100000000E-03 0.  1.
        -11    1    3    3    0    0  0.23791911317E+01  0.34209262148E+02 -0.28333553342E+01  0.34408749903E+02  0.51100000000E-03 0. -1.
         12    1    3    3    0    0  0.18621711686E+01  0.12174694081E+01 -0.31544299313E+01  0.38600960367E+01  0.00000000000E+00 0. -1.
</event>
<event>
 7    1  0.2812635E-010  0.4778728E+02  0.7816164E-02  0.1312668E+00
        -11   -1    0    0    0    0  0.00000000000E+00  0.00000000000E+00  0.45593999997E+02  0.45594000000E+02  0.51100000000E-03 0. -1.
         11   -1    0    0    0    0 -0.00000000000E+00 -0.00000000000E+00 -0.45593999997E+02  0.45594000000E+02  0.51100000000E-03 0.  1.
    9900012    2    1    2    0    0 -0.41597341024E+02  0.11868138695E+02 -0.35257668234E+01  0.47787279637E+02  0.20000039176E+02 0.  0.
         12    1    1    2    0    0  0.41597341024E+02 -0.11868138695E+02  0.35257668234E+01  0.43400720363E+02  0.00000000000E+00 0. -1.
         11    1    3    3    0    0 -0.20593713858E+02 -0.15378336574E+01 -0.44142310268E+01  0.21117561854E+02  0.51100000000E-03 0. -1.
        -11    1    3    3    0    0 -0.21503054031E+02  0.13703007755E+02  0.18295751668E+01  0.25563667572E+02  0.51100000000E-03 0.  1.
         12    1    3    3    0    0  0.49942686477E+00 -0.29703540276E+00 -0.94111096340E+00  0.11060502110E+01  0.00000000000E+00 0. -1.
</event>
<event>
 7    1  0.2812635E-010  0.4778727E+02  0.7816164E-02  0.1312668E+00
        -11   -1    0    0    0    0  0.00000000000E+00  0.00000000000E+00  0.45593999997E+02  0.45594000000E+02  0.51100000000E-03 0.  1.
         11   -1    0    0    0    0 -0.00000000000E+00 -0.00000000000E+00 -0.45593999997E+02  0.45594000000E+02  0.51100000000E-03 0. -1.
    9900012    2    1    2    0    0  0.28524554454E+01  0.11446826487E+02  0.41766697257E+02  0.47787270300E+02  0.19999996606E+02 0.  0.
         12    1    1    2    0    0 -0.28524554454E+01 -0.11446826487E+02 -0.41766697257E+02  0.43400729700E+02  0.00000000000E+00 0. -1.
         11    1    3    3    0    0  0.30828498809E+01 -0.39305644675E+01  0.11780357902E+02  0.12795707600E+02  0.51100000000E-03 0. -1.
        -11    1    3    3    0    0 -0.39729000985E+01  0.26692950096E+01  0.79924220212E+01  0.93160013453E+01  0.51100000000E-03 0.  1.
         12    1    3    3    0    0  0.37425056631E+01  0.12708095945E+02  0.21993917335E+02  0.25675561355E+02  0.00000000000E+00 0. -1.
</event>
<event>
 7    1  0.2812635E-010  0.4778727E+02  0.7816164E-02  0.1312668E+00
        -11   -1    0    0    0    0  0.00000000000E+00  0.00000000000E+00  0.45593999997E+02  0.45594000000E+02  0.51100000000E-03 0.  1.
         11   -1    0    0    0    0 -0.00000000000E+00 -0.00000000000E+00 -0.45593999997E+02  0.45594000000E+02  0.51100000000E-03 0. -1.
    9900012    2    1    2    0    0 -0.24259338851E+02  0.33965711086E+02 -0.11892780774E+02  0.47787270910E+02  0.19999999385E+02 0.  0.
         12    1    1    2    0    0  0.24259338851E+02 -0.33965711086E+02  0.11892780774E+02  0.43400729090E+02  0.00000000000E+00 0. -1.
         11    1    3    3    0    0 -0.18106532446E+02  0.28419197628E+02 -0.10728970712E+02  0.35363938183E+02  0.51100000000E-03 0. -1.
        -11    1    3    3    0    0 -0.79237258729E+01  0.65962860455E+01 -0.97185299075E+00  0.10355719183E+02  0.51100000000E-03 0.  1.
         12    1    3    3    0    0  0.17709194684E+01 -0.10497725872E+01 -0.19195707218E+00  0.20676135437E+01  0.00000000000E+00 0. -1.
</event>
<event>
 7    1  0.2812635E-010  0.4778727E+02  0.7816164E-02  0.1312668E+00
        -11   -1    0    0    0    0  0.00000000000E+00  0.00000000000E+00  0.45593999997E+02  0.45594000000E+02  0.51100000000E-03 0.  1.
         11   -1    0    0    0    0 -0.00000000000E+00 -0.00000000000E+00 -0.45593999997E+02  0.45594000000E+02  0.51100000000E-03 0. -1.
    9900012    2    1    2    0    0 -0.24252964251E+02 -0.35082074504E+02  0.80414436650E+01  0.47787273708E+02  0.20000012143E+02 0.  0.
         12    1    1    2    0    0  0.24252964251E+02  0.35082074504E+02 -0.80414436650E+01  0.43400726292E+02  0.00000000000E+00 0. -1.
         11    1    3    3    0    0  0.16244823334E+01 -0.10634209026E+02  0.74228445370E+00  0.10783150325E+02  0.51100000000E-03 0. -1.
        -11    1    3    3    0    0 -0.25049715918E+02 -0.22348618893E+02  0.52930586282E+01  0.33984783417E+02  0.51100000000E-03 0.  1.
         12    1    3    3    0    0 -0.82773066707E+00 -0.20992465843E+01  0.20061005831E+01  0.30193399657E+01  0.00000000000E+00 0. -1.
</event>
<event>
 7    1  0.2812635E-010  0.4778727E+02  0.7816164E-02  0.1312668E+00
        -11   -1    0    0    0    0  0.00000000000E+00  0.00000000000E+00  0.45593999997E+02  0.45594000000E+02  0.51100000000E-03 0. -1.
         11   -1    0    0    0    0 -0.00000000000E+00 -0.00000000000E+00 -0.45593999997E+02  0.45594000000E+02  0.51100000000E-03 0.  1.
    9900012    2    1    2    0    0 -0.55866866412E+01 -0.42061125937E+02 -0.91254526319E+01  0.47787271107E+02  0.20000000286E+02 0.  0.
         12    1    1    2    0    0  0.55866866412E+01  0.42061125937E+02  0.91254526319E+01  0.43400728893E+02  0.00000000000E+00 0. -1.
         11    1    3    3    0    0 -0.10922125367E+02 -0.14905305233E+02  0.28705282707E+00  0.18480891380E+02  0.51100000000E-03 0. -1.
        -11    1    3    3    0    0  0.30947690249E+01 -0.17222744101E+02 -0.69643654332E+01  0.18833557705E+02  0.51100000000E-03 0.  1.
         12    1    3    3    0    0  0.22406697013E+01 -0.99330766034E+01 -0.24481400258E+01  0.10472822022E+02  0.00000000000E+00 0. -1.
</event>
<event>
 7    1  0.2812635E-010  0.4778728E+02  0.7816164E-02  0.1312668E+00
        -11   -1    0    0    0    0  0.00000000000E+00  0.00000000000E+00  0.45593999997E+02  0.45594000000E+02  0.51100000000E-03 0.  1.
         11   -1    0    0    0    0 -0.00000000000E+00 -0.00000000000E+00 -0.45593999997E+02  0.45594000000E+02  0.51100000000E-03 0. -1.
    9900012    2    1    2    0    0 -0.15422294664E+02 -0.31225244147E+01  0.40447810064E+02  0.47787277996E+02  0.20000031697E+02 0.  0.
         12    1    1    2    0    0  0.15422294664E+02  0.31225244147E+01 -0.40447810064E+02  0.43400722004E+02  0.00000000000E+00 0. -1.
         11    1    3    3    0    0 -0.18269370757E+01  0.18500888646E+01  0.29548894960E+01  0.39359751117E+01  0.51100000000E-03 0. -1.
        -11    1    3    3    0    0  0.31031657148E+01 -0.30824542057E+01  0.25141275225E+01  0.50449974078E+01  0.51100000000E-03 0.  1.
        -12    1    3    3    0    0 -0.16698523303E+02 -0.18901590736E+01  0.34978793046E+02  0.38806305477E+02  0.00000000000E+00 0.  1.
</event>
<event>
 7    1  0.2812635E-010  0.4778727E+02  0.7816164E-02  0.1312668E+00
        -11   -1    0    0    0    0  0.00000000000E+00  0.00000000000E+00  0.45593999997E+02  0.45594000000E+02  0.51100000000E-03 0.  1.
         11   -1    0    0    0    0 -0.00000000000E+00 -0.00000000000E+00 -0.45593999997E+02  0.45594000000E+02  0.51100000000E-03 0. -1.
    9900012    2    1    2    0    0 -0.38421981459E+02  0.20922456315E+01  0.20074800382E+02  0.47787265428E+02  0.19999974392E+02 0.  0.
         12    1    1    2    0    0  0.38421981459E+02 -0.20922456315E+01 -0.20074800382E+02  0.43400734572E+02  0.00000000000E+00 0. -1.
         11    1    3    3    0    0 -0.93712249628E+01 -0.60132371022E+01  0.12869730261E+01  0.11208709898E+02  0.51100000000E-03 0. -1.
        -11    1    3    3    0    0 -0.37336349012E+01  0.29651924662E+01  0.23599695952E+00  0.47736873340E+01  0.51100000000E-03 0.  1.
         12    1    3    3    0    0 -0.25317121595E+02  0.51402902675E+01  0.18551830397E+02  0.31804868196E+02  0.00000000000E+00 0. -1.
</event>
<event>
 7    1  0.2812635E-010  0.4778727E+02  0.7816164E-02  0.1312668E+00
        -11   -1    0    0    0    0  0.00000000000E+00  0.00000000000E+00  0.45593999997E+02  0.45594000000E+02  0.51100000000E-03 0.  1.
         11   -1    0    0    0    0 -0.00000000000E+00 -0.00000000000E+00 -0.45593999997E+02  0.45594000000E+02  0.51100000000E-03 0. -1.
    9900012    2    1    2    0    0 -0.33679650315E+02  0.28569688596E+01  0.27223927985E+02  0.47787269921E+02  0.19999994878E+02 0.  0.
         12    1    1    2    0    0  0.33679650315E+02 -0.28569688596E+01 -0.27223927985E+02  0.43400730079E+02  0.00000000000E+00 0. -1.
         11    1    3    3    0    0 -0.20387203660E+02  0.92602845078E+01  0.20508471913E+02  0.30364261274E+02  0.51100000000E-03 0. -1.
        -11    1    3    3    0    0 -0.13962337417E+02 -0.61485672046E+01  0.67967415765E+01  0.16701719706E+02  0.51100000000E-03 0.  1.
         12    1    3    3    0    0  0.66989076217E+00 -0.25474844356E+00 -0.81285504347E-01  0.72128894069E+00  0.00000000000E+00 0. -1.
</event>
<event>
 7    1  0.2812635E-010  0.4778727E+02  0.7816164E-02  0.1312668E+00
        -11   -1    0    0    0    0  0.00000000000E+00  0.00000000000E+00  0.45593999997E+02  0.45594000000E+02  0.51100000000E-03 0. -1.
         11   -1    0    0    0    0 -0.00000000000E+00 -0.00000000000E+00 -0.45593999997E+02  0.45594000000E+02  0.51100000000E-03 0.  1.
    9900012    2    1    2    0    0 -0.42764358754E+01  0.57743066501E+01 -0.42801783702E+02  0.47787271790E+02  0.20000003399E+02 0.  0.
         12    1    1    2    0    0  0.42764358754E+01 -0.57743066501E+01  0.42801783702E+02  0.43400728210E+02  0.00000000000E+00 0. -1.
         11    1    3    3    0    0  0.62845982974E+01  0.14253618795E+01 -0.14316514125E+02  0.15700013032E+02  0.51100000000E-03 0. -1.
        -11    1    3    3    0    0  0.30530760827E+00  0.37421339036E+01 -0.93131902453E+01  0.10041528354E+02  0.51100000000E-03 0.  1.
         12    1    3    3    0    0 -0.10866341781E+02  0.60681086708E+00 -0.19172079331E+02  0.22045730403E+02  0.00000000000E+00 0. -1.
</event>
<event>
 7    1  0.2812635E-010  0.4778727E+02  0.7816164E-02  0.1312668E+00
        -11   -1    0    0    0    0  0.00000000000E+00  0.00000000000E+00  0.45593999997E+02  0.45594000000E+02  0.51100000000E-03 0. -1.
         11   -1    0    0    0    0 -0.00000000000E+00 -0.00000000000E+00 -0.45593999997E+02  0.45594000000E+02  0.51100000000E-03 0.  1.
    9900012    2    1    2    0    0 -0.41884355317E+02  0.10027754286E+02  0.53635946127E+01  0.47787271625E+02  0.20000002647E+02 0.  0.
         12    1    1    2    0    0  0.41884355317E+02 -0.10027754286E+02 -0.53635946127E+01  0.43400728375E+02  0.00000000000E+00 0. -1.
         11    1    3    3    0    0  0.85493892232E+00  0.10313503162E+01 -0.16650034954E+01  0.21370168311E+01  0.51100000000E-03 0. -1.
        -11    1    3    3    0    0 -0.38689196109E+02  0.10667498867E+02  0.40163894899E+01  0.40333370953E+02  0.51100000000E-03 0.  1.
        -12    1    3    3    0    0 -0.40500981300E+01 -0.16710948971E+01  0.30122086183E+01  0.53168838409E+01  0.00000000000E+00 0.  1.
</event>
<event>
 7    1  0.2812635E-010  0.4778727E+02  0.7816164E-02  0.1312668E+00
        -11   -1    0    0    0    0  0.00000000000E+00  0.00000000000E+00  0.45593999997E+02  0.45594000000E+02  0.51100000000E-03 0.  1.
         11   -1    0    0    0    0 -0.00000000000E+00 -0.00000000000E+00 -0.45593999997E+02  0.45594000000E+02  0.51100000000E-03 0. -1.
    9900012    2    1    2    0    0  0.11256719755E+02 -0.40857485735E+02  0.93581755775E+01  0.47787270394E+02  0.19999997032E+02 0.  0.
         12    1    1    2    0    0 -0.11256719755E+02  0.40857485735E+02 -0.93581755775E+01  0.43400729606E+02  0.00000000000E+00 0. -1.
         11    1    3    3    0    0  0.48935833789E+01 -0.15986174447E+02 -0.28167048829E+01  0.16954018945E+02  0.51100000000E-03 0. -1.
        -11    1    3    3    0    0 -0.23166432795E+01 -0.56301642446E+01  0.66456574846E+01  0.90127880908E+01  0.51100000000E-03 0.  1.
        -12    1    3    3    0    0  0.86797796560E+01 -0.19241147044E+02  0.55292229758E+01  0.21820463358E+02  0.00000000000E+00 0.  1.
</event>
<event>
 7    1  0.2812635E-010  0.4778727E+02  0.7816164E-02  0.1312668E+00
        -11   -1    0    0    0    0  0.00000000000E+00  0.00000000000E+00  0.45593999997E+02  0.45594000000E+02  0.51100000000E-03 0.  1.
         11   -1    0    0    0    0 -0.00000000000E+00 -0.00000000000E+00 -0.45593999997E+02  0.45594000000E+02  0.51100000000E-03 0. -1.
    9900012    2    1    2    0    0  0.10654065312E+02  0.13307008989E+02  0.39912876459E+02  0.47787270707E+02  0.19999998464E+02 0.  0.
         12    1    1    2    0    0 -0.10654065312E+02 -0.13307008989E+02 -0.39912876459E+02  0.43400729293E+02  0.00000000000E+00 0. -1.
         11    1    3    3    0    0  0.52742024968E+01 -0.24826020678E+01  0.18940531145E+02  0.19817271390E+02  0.51100000000E-03 0. -1.
        -11    1    3    3    0    0  0.54105314466E+01  0.12903076999E+02  0.20813190382E+02  0.25078918253E+02  0.51100000000E-03 0.  1.
        -12    1    3    3    0    0 -0.30668631361E-01  0.28865340578E+01  0.15915493104E+00  0.28910810649E+01  0.00000000000E+00 0.  1.
</event>
<event>
 7    1  0.2812635E-010  0.4778727E+02  0.7816164E-02  0.1312668E+00
        -11   -1    0    0    0    0  0.00000000000E+00  0.00000000000E+00  0.45593999997E+02  0.45594000000E+02  0.51100000000E-03 0.  1.
         11   -1    0    0    0    0 -0.00000000000E+00 -0.00000000000E+00 -0.45593999997E+02  0.45594000000E+02  0.51100000000E-03 0. -1.
    9900012    2    1    2    0    0  0.40239728166E+02  0.69378809779E+00  0.16245190133E+02  0.47787271121E+02  0.20000000349E+02 0.  0.
         12    1    1    2    0    0 -0.40239728166E+02 -0.69378809779E+00 -0.16245190133E+02  0.43400728879E+02  0.00000000000E+00 0. -1.
         11    1    3    3    0    0  0.13947221216E+01 -0.48460596243E+01  0.25409133135E+01  0.56467498976E+01  0.51100000000E-03 0. -1.
        -11    1    3    3    0    0  0.32245766361E+02  0.30062397603E+01  0.88754762941E+01  0.33579770777E+02  0.51100000000E-03 0.  1.
        -12    1    3    3    0    0  0.65992396830E+01  0.25336079618E+01  0.48288005252E+01  0.85607504467E+01  0.00000000000E+00 0.  1.
</event>
<event>
 7    1  0.2812635E-010  0.4778727E+02  0.7816164E-02  0.1312668E+00
        -11   -1    0    0    0    0  0.00000000000E+00  0.00000000000E+00  0.45593999997E+02  0.45594000000E+02  0.51100000000E-03 0.  1.
         11   -1    0    0    0    0 -0.00000000000E+00 -0.00000000000E+00 -0.45593999997E+02  0.45594000000E+02  0.51100000000E-03 0. -1.
    9900012    2    1    2    0    0 -0.24615522352E+02  0.35568904209E+02  0.35429504925E+01  0.47787269758E+02  0.19999994137E+02 0.  0.
         12    1    1    2    0    0  0.24615522352E+02 -0.35568904209E+02 -0.35429504925E+01  0.43400730242E+02  0.00000000000E+00 0. -1.
         11    1    3    3    0    0 -0.67173117569E+01  0.10380729018E+02 -0.60279287413E+01  0.13755643836E+02  0.51100000000E-03 0.  1.
        -11    1    3    3    0    0 -0.14799353406E+02  0.14061185973E+02  0.94136892743E+01  0.22480110280E+02  0.51100000000E-03 0. -1.
        -12    1    3    3    0    0 -0.30988571898E+01  0.11126989218E+02  0.15718995957E+00  0.11551515642E+02  0.00000000000E+00 0.  1.
</event>
<event>
 7    1  0.2812635E-010  0.4778727E+02  0.7816164E-02  0.1312668E+00
        -11   -1    0    0    0    0  0.00000000000E+00  0.00000000000E+00  0.45593999997E+02  0.45594000000E+02  0.51100000000E-03 0.  1.
         11   -1    0    0    0    0 -0.00000000000E+00 -0.00000000000E+00 -0.45593999997E+02  0.45594000000E+02  0.51100000000E-03 0. -1.
    9900012    2    1    2    0    0  0.35344200054E+02 -0.13782209525E+02  0.21082249623E+02  0.47787273900E+02  0.20000013019E+02 0.  0.
         12    1    1    2    0    0 -0.35344200054E+02  0.13782209525E+02 -0.21082249623E+02  0.43400726100E+02  0.00000000000E+00 0. -1.
         11    1    3    3    0    0  0.53246284352E+01  0.97449089625E+00  0.95919866135E+00  0.54973960029E+01  0.51100000000E-03 0. -1.
        -11    1    3    3    0    0  0.49200665570E+01  0.34691582039E+01  0.47621293984E+01  0.76759357890E+01  0.51100000000E-03 0.  1.
        -12    1    3    3    0    0  0.25099505062E+02 -0.18225858625E+02  0.15360921563E+02  0.34613942108E+02  0.00000000000E+00 0.  1.
</event>
<event>
 7    1  0.2812635E-010  0.4778727E+02  0.7816164E-02  0.1312668E+00
        -11   -1    0    0    0    0  0.00000000000E+00  0.00000000000E+00  0.45593999997E+02  0.45594000000E+02  0.51100000000E-03 0. -1.
         11   -1    0    0    0    0 -0.00000000000E+00 -0.00000000000E+00 -0.45593999997E+02  0.45594000000E+02  0.51100000000E-03 0.  1.
    9900012    2    1    2    0    0 -0.17694874329E+01 -0.43291004146E+02 -0.25260842917E+01  0.47787271577E+02  0.20000002429E+02 0.  0.
         12    1    1    2    0    0  0.17694874329E+01  0.43291004146E+02  0.25260842917E+01  0.43400728423E+02  0.00000000000E+00 0. -1.
         11    1    3    3    0    0  0.16857887080E+01 -0.18966694368E+01  0.15888745507E+01  0.29939540944E+01  0.51100000000E-03 0. -1.
        -11    1    3    3    0    0  0.15285065622E+01 -0.22744276680E+02  0.51661634582E+01  0.23373653954E+02  0.51100000000E-03 0.  1.
        -12    1    3    3    0    0 -0.49837827031E+01 -0.18650058030E+02 -0.92811223006E+01  0.21419663529E+02  0.00000000000E+00 0.  1.
</event>
<event>
 7    1  0.2812635E-010  0.4778727E+02  0.7816164E-02  0.1312668E+00
        -11   -1    0    0    0    0  0.00000000000E+00  0.00000000000E+00  0.45593999997E+02  0.45594000000E+02  0.51100000000E-03 0.  1.
         11   -1    0    0    0    0 -0.00000000000E+00 -0.00000000000E+00 -0.45593999997E+02  0.45594000000E+02  0.51100000000E-03 0. -1.
    9900012    2    1    2    0    0  0.31647823897E+02 -0.10672831677E+02  0.27715145755E+02  0.47787269618E+02  0.19999993499E+02 0.  0.
         12    1    1    2    0    0 -0.31647823897E+02  0.10672831677E+02 -0.27715145755E+02  0.43400730382E+02  0.00000000000E+00 0. -1.
         11    1    3    3    0    0  0.12913493613E+02  0.44688440521E+01  0.57282647168E+01  0.14816946426E+02  0.51100000000E-03 0. -1.
        -11    1    3    3    0    0  0.12017051289E+02 -0.11204509546E+02  0.12201579272E+02  0.20465314384E+02  0.51100000000E-03 0.  1.
         12    1    3    3    0    0  0.67172789952E+01 -0.39371661826E+01  0.97853017660E+01  0.12505008809E+02  0.00000000000E+00 0. -1.
</event>
<event>
 7    1  0.2812635E-010  0.4778727E+02  0.7816164E-02  0.1312668E+00
        -11   -1    0    0    0    0  0.00000000000E+00  0.00000000000E+00  0.45593999997E+02  0.45594000000E+02  0.51100000000E-03 0. -1.
         11   -1    0    0    0    0 -0.00000000000E+00 -0.00000000000E+00 -0.45593999997E+02  0.45594000000E+02  0.51100000000E-03 0.  1.
    9900012    2    1    2    0    0 -0.14856324540E+02  0.10137014121E+01 -0.40766228483E+02  0.47787270120E+02  0.19999995787E+02 0.  0.
         12    1    1    2    0    0  0.14856324540E+02 -0.10137014121E+01  0.40766228483E+02  0.43400729880E+02  0.00000000000E+00 0. -1.
         11    1    3    3    0    0  0.14775368758E+01  0.13433293245E+01 -0.11286256567E+01  0.22937839976E+01  0.51100000000E-03 0. -1.
        -11    1    3    3    0    0 -0.15688215676E+02 -0.42347590961E+01 -0.37769259563E+02  0.41116544893E+02  0.51100000000E-03 0.  1.
        -12    1    3    3    0    0 -0.64564573991E+00  0.39051311837E+01 -0.18683432625E+01  0.43769412299E+01  0.00000000000E+00 0.  1.
</event>
<event>
 7    1  0.2812635E-010  0.4778727E+02  0.7816164E-02  0.1312668E+00
        -11   -1    0    0    0    0  0.00000000000E+00  0.00000000000E+00  0.45593999997E+02  0.45594000000E+02  0.51100000000E-03 0.  1.
         11   -1    0    0    0    0 -0.00000000000E+00 -0.00000000000E+00 -0.45593999997E+02  0.45594000000E+02  0.51100000000E-03 0. -1.
    9900012    2    1    2    0    0  0.42580080068E+02 -0.52297397034E+01 -0.65734124840E+01  0.47787272498E+02  0.20000006629E+02 0.  0.
         12    1    1    2    0    0 -0.42580080068E+02  0.52297397034E+01  0.65734124840E+01  0.43400727502E+02  0.00000000000E+00 0. -1.
         11    1    3    3    0    0  0.65418898580E+01 -0.23371218137E+01 -0.55794362748E+01  0.89100264137E+01  0.51100000000E-03 0. -1.
        -11    1    3    3    0    0  0.18664322274E+02  0.41834849216E+01  0.38305143901E+01  0.19507211815E+02  0.51100000000E-03 0.  1.
        -12    1    3    3    0    0  0.17373867936E+02 -0.70761028114E+01 -0.48244905993E+01  0.19370034270E+02  0.00000000000E+00 0.  1.
</event>
<event>
 7    1  0.2812635E-010  0.4778727E+02  0.7816164E-02  0.1312668E+00
        -11   -1    0    0    0    0  0.00000000000E+00  0.00000000000E+00  0.45593999997E+02  0.45594000000E+02  0.51100000000E-03 0. -1.
         11   -1    0    0    0    0 -0.00000000000E+00 -0.00000000000E+00 -0.45593999997E+02  0.45594000000E+02  0.51100000000E-03 0.  1.
    9900012    2    1    2    0    0 -0.95522895804E+01  0.16383511944E+02 -0.39037896127E+02  0.47787273809E+02  0.20000012606E+02 0.  0.
         12    1    1    2    0    0  0.95522895804E+01 -0.16383511944E+02  0.39037896127E+02  0.43400726191E+02  0.00000000000E+00 0. -1.
         11    1    3    3    0    0 -0.62636053386E+01 -0.33500276598E+01 -0.67307689477E+01  0.97856368238E+01  0.51100000000E-03 0. -1.
        -11    1    3    3    0    0 -0.21346071704E+01  0.11670451766E+02 -0.19127901506E+02  0.22508500805E+02  0.51100000000E-03 0.  1.
         12    1    3    3    0    0 -0.11540770714E+01  0.80630878374E+01 -0.13179225674E+02  0.15493136181E+02  0.00000000000E+00 0. -1.
</event>
<event>
 7    1  0.2812635E-010  0.4778727E+02  0.7816164E-02  0.1312668E+00
        -11   -1    0    0    0    0  0.00000000000E+00  0.00000000000E+00  0.45593999997E+02  0.45594000000E+02  0.51100000000E-03 0.  1.
         11   -1    0    0    0    0 -0.00000000000E+00 -0.00000000000E+00 -0.45593999997E+02  0.45594000000E+02  0.51100000000E-03 0. -1.
    9900012    2    1    2    0    0 -0.26601626029E+02  0.20301067330E+02  0.27637726404E+02  0.47787265411E+02  0.19999974314E+02 0.  0.
         12    1    1    2    0    0  0.26601626029E+02 -0.20301067330E+02 -0.27637726404E+02  0.43400734589E+02  0.00000000000E+00 0. -1.
         11    1    3    3    0    0  0.19020898383E+01  0.54011371748E+00  0.62053026823E+01  0.65127145048E+01  0.51100000000E-03 0. -1.
        -11    1    3    3    0    0 -0.13094797108E+02  0.74218963111E+01  0.12679090884E+02  0.19680386228E+02  0.51100000000E-03 0.  1.
         12    1    3    3    0    0 -0.15408918759E+02  0.12339057301E+02  0.87533328380E+01  0.21594164678E+02  0.00000000000E+00 0. -1.
</event>
<event>
 7    1  0.2812635E-010  0.4778728E+02  0.7816164E-02  0.1312668E+00
        -11   -1    0    0    0    0  0.00000000000E+00  0.00000000000E+00  0.45593999997E+02  0.45594000000E+02  0.51100000000E-03 0.  1.
         11   -1    0    0    0    0 -0.00000000000E+00 -0.00000000000E+00 -0.45593999997E+02  0.45594000000E+02  0.51100000000E-03 0. -1.
    9900012    2    1    2    0    0 -0.10116511955E+02 -0.12918962042E+02  0.40179340997E+02  0.47787276073E+02  0.20000022929E+02 0.  0.
         12    1    1    2    0    0  0.10116511955E+02  0.12918962042E+02 -0.40179340997E+02  0.43400723927E+02  0.00000000000E+00 0. -1.
         11    1    3    3    0    0  0.27076293711E+00  0.99576917946E+00  0.15889524746E+02  0.15922998014E+02  0.51100000000E-03 0. -1.
        -11    1    3    3    0    0 -0.10054005871E+02 -0.45283996637E+01  0.10865804957E+02  0.15480799565E+02  0.51100000000E-03 0.  1.
        -12    1    3    3    0    0 -0.33326902189E+00 -0.93863315573E+01  0.13424011294E+02  0.16383478494E+02  0.00000000000E+00 0.  1.
</event>
<event>
 7    1  0.2812635E-010  0.4778725E+02  0.7816164E-02  0.1312668E+00
        -11   -1    0    0    0    0  0.00000000000E+00  0.00000000000E+00  0.45593999997E+02  0.45594000000E+02  0.51100000000E-03 0.  1.
         11   -1    0    0    0    0 -0.00000000000E+00 -0.00000000000E+00 -0.45593999997E+02  0.45594000000E+02  0.51100000000E-03 0. -1.
    9900012    2    1    2    0    0  0.41793484116E+02  0.65758193475E+01  0.96792793433E+01  0.47787249278E+02  0.19999900758E+02 0.  0.
         12    1    1    2    0    0 -0.41793484116E+02 -0.65758193475E+01 -0.96792793433E+01  0.43400750722E+02  0.00000000000E+00 0. -1.
         11    1    3    3    0    0  0.13700026493E+02 -0.29088011743E+01  0.51367565014E+01  0.14917711547E+02  0.51100000000E-03 0. -1.
        -11    1    3    3    0    0  0.28263257083E+02  0.58170832602E+01  0.44508977479E+01  0.29196928771E+02  0.51100000000E-03 0.  1.
        -12    1    3    3    0    0 -0.16979946014E+00  0.36675372616E+01  0.91625093926E-01  0.36726089609E+01  0.00000000000E+00 0.  1.
</event>
<event>
 7    1  0.2812635E-010  0.4778727E+02  0.7816164E-02  0.1312668E+00
        -11   -1    0    0    0    0  0.00000000000E+00  0.00000000000E+00  0.45593999997E+02  0.45594000000E+02  0.51100000000E-03 0.  1.
         11   -1    0    0    0    0 -0.00000000000E+00 -0.00000000000E+00 -0.45593999997E+02  0.45594000000E+02  0.51100000000E-03 0. -1.
    9900012    2    1    2    0    0  0.10497912268E+02 -0.19562808890E+02  0.37292272463E+02  0.47787271445E+02  0.20000001826E+02 0.  0.
         12    1    1    2    0    0 -0.10497912268E+02  0.19562808890E+02 -0.37292272463E+02  0.43400728555E+02  0.00000000000E+00 0. -1.
         11    1    3    3    0    0 -0.27465677145E+00 -0.20593403778E+01  0.38377389207E+00  0.21127237858E+01  0.51100000000E-03 0. -1.
        -11    1    3    3    0    0  0.66657795825E+00  0.29120840011E+01  0.99059120597E+01  0.10346576893E+02  0.51100000000E-03 0.  1.
        -12    1    3    3    0    0  0.10105991081E+02 -0.20415552514E+02  0.27002586511E+02  0.35327970766E+02  0.00000000000E+00 0.  1.
</event>
<event>
 7    1  0.2812635E-010  0.4778726E+02  0.7816164E-02  0.1312668E+00
        -11   -1    0    0    0    0  0.00000000000E+00  0.00000000000E+00  0.45593999997E+02  0.45594000000E+02  0.51100000000E-03 0.  1.
         11   -1    0    0    0    0 -0.00000000000E+00 -0.00000000000E+00 -0.45593999997E+02  0.45594000000E+02  0.51100000000E-03 0. -1.
    9900012    2    1    2    0    0 -0.25587865801E+02  0.53663023294E+01  0.34642292431E+02  0.47787256897E+02  0.19999935498E+02 0.  0.
         12    1    1    2    0    0  0.25587865801E+02 -0.53663023294E+01 -0.34642292431E+02  0.43400743103E+02  0.00000000000E+00 0. -1.
         11    1    3    3    0    0 -0.13356717436E+02 -0.16213027140E+01  0.19759474067E+02  0.23905383051E+02  0.51100000000E-03 0. -1.
        -11    1    3    3    0    0  0.10361075409E+01  0.51151226330E+01  0.33355045218E+01  0.61938347623E+01  0.51100000000E-03 0.  1.
        -12    1    3    3    0    0 -0.13267255906E+02  0.18724824103E+01  0.11547313843E+02  0.17688039084E+02  0.00000000000E+00 0.  1.
</event>
<event>
 7    1  0.2812635E-010  0.4778727E+02  0.7816164E-02  0.1312668E+00
        -11   -1    0    0    0    0  0.00000000000E+00  0.00000000000E+00  0.45593999997E+02  0.45594000000E+02  0.51100000000E-03 0. -1.
         11   -1    0    0    0    0 -0.00000000000E+00 -0.00000000000E+00 -0.45593999997E+02  0.45594000000E+02  0.51100000000E-03 0.  1.
    9900012    2    1    2    0    0 -0.32369536548E+02 -0.28602307420E+02 -0.42124233270E+01  0.47787269634E+02  0.19999993567E+02 0.  0.
         12    1    1    2    0    0  0.32369536548E+02  0.28602307420E+02  0.42124233270E+01  0.43400730366E+02  0.00000000000E+00 0. -1.
         11    1    3    3    0    0 -0.12706971891E+02 -0.11589711780E+02  0.47366897606E+01  0.17838856015E+02  0.51100000000E-03 0. -1.
        -11    1    3    3    0    0 -0.18283402038E+02 -0.18861065152E+02 -0.80650211216E+01  0.27478484942E+02  0.51100000000E-03 0.  1.
        -12    1    3    3    0    0 -0.13791626189E+01  0.18484695116E+01 -0.88409196608E+00  0.24699286769E+01  0.00000000000E+00 0.  1.
</event>
<event>
 7    1  0.2812635E-010  0.4778727E+02  0.7816164E-02  0.1312668E+00
        -11   -1    0    0    0    0  0.00000000000E+00  0.00000000000E+00  0.45593999997E+02  0.45594000000E+02  0.51100000000E-03 0.  1.
         11   -1    0    0    0    0 -0.00000000000E+00 -0.00000000000E+00 -0.45593999997E+02  0.45594000000E+02  0.51100000000E-03 0. -1.
    9900012    2    1    2    0    0 -0.18674528832E+02  0.38382055537E+02  0.78551378431E+01  0.47787269536E+02  0.19999993121E+02 0.  0.
         12    1    1    2    0    0  0.18674528832E+02 -0.38382055537E+02 -0.78551378431E+01  0.43400730464E+02  0.00000000000E+00 0. -1.
         11    1    3    3    0    0 -0.83378865083E+01  0.18200593820E+02  0.75380571807E+01  0.21391687010E+02  0.51100000000E-03 0. -1.
        -11    1    3    3    0    0 -0.16219563591E+01 -0.98425394069E+00 -0.27085152144E+01  0.33068947939E+01  0.51100000000E-03 0.  1.
        -12    1    3    3    0    0 -0.87146859644E+01  0.21165715657E+02  0.30255958768E+01  0.23088687731E+02  0.00000000000E+00 0.  1.
</event>
<event>
 7    1  0.2812635E-010  0.4778727E+02  0.7816164E-02  0.1312668E+00
        -11   -1    0    0    0    0  0.00000000000E+00  0.00000000000E+00  0.45593999997E+02  0.45594000000E+02  0.51100000000E-03 0.  1.
         11   -1    0    0    0    0 -0.00000000000E+00 -0.00000000000E+00 -0.45593999997E+02  0.45594000000E+02  0.51100000000E-03 0. -1.
    9900012    2    1    2    0    0 -0.51964044485E+01 -0.23523913935E+02  0.36100496953E+02  0.47787273897E+02  0.20000013005E+02 0.  0.
         12    1    1    2    0    0  0.51964044485E+01  0.23523913935E+02 -0.36100496953E+02  0.43400726103E+02  0.00000000000E+00 0. -1.
         11    1    3    3    0    0  0.10352077525E+00 -0.18123363048E+02  0.16688046543E+02  0.24636515631E+02  0.51100000000E-03 0. -1.
        -11    1    3    3    0    0 -0.56935030224E+00  0.94679233979E+00  0.12767646079E+02  0.12815356497E+02  0.51100000000E-03 0.  1.
        -12    1    3    3    0    0 -0.47305749215E+01 -0.63473432270E+01  0.66448043310E+01  0.10335401769E+02  0.00000000000E+00 0.  1.
</event>
<event>
 7    1  0.2812635E-010  0.4778727E+02  0.7816164E-02  0.1312668E+00
        -11   -1    0    0    0    0  0.00000000000E+00  0.00000000000E+00  0.45593999997E+02  0.45594000000E+02  0.51100000000E-03 0.  1.
         11   -1    0    0    0    0 -0.00000000000E+00 -0.00000000000E+00 -0.45593999997E+02  0.45594000000E+02  0.51100000000E-03 0. -1.
    9900012    2    1    2    0    0 -0.40969689529E+01  0.40508058797E+02  0.15031143483E+02  0.47787271245E+02  0.20000000914E+02 0.  0.
         12    1    1    2    0    0  0.40969689529E+01 -0.40508058797E+02 -0.15031143483E+02  0.43400728755E+02  0.00000000000E+00 0. -1.
         11    1    3    3    0    0 -0.24026343872E+01  0.35784570583E+01  0.42377327872E+01  0.60445335927E+01  0.51100000000E-03 0. -1.
        -11    1    3    3    0    0  0.17017269209E+01  0.27037737551E+02  0.14399014956E+02  0.30680071029E+02  0.51100000000E-03 0.  1.
        -12    1    3    3    0    0 -0.33960614865E+01  0.98918641878E+01 -0.36056042607E+01  0.11062666623E+02  0.00000000000E+00 0.  1.
</event>
<event>
 7    1  0.2812635E-010  0.4778730E+02  0.7816164E-02  0.1312668E+00
        -11   -1    0    0    0    0  0.00000000000E+00  0.00000000000E+00  0.45593999997E+02  0.45594000000E+02  0.51100000000E-03 0. -1.
         11   -1    0    0    0    0 -0.00000000000E+00 -0.00000000000E+00 -0.45593999997E+02  0.45594000000E+02  0.51100000000E-03 0.  1.
    9900012    2    1    2    0    0 -0.14591648206E+02  0.30761365535E+02 -0.26915485809E+02  0.47787295129E+02  0.20000109813E+02 0.  0.
         12    1    1    2    0    0  0.14591648206E+02 -0.30761365535E+02  0.26915485809E+02  0.43400704871E+02  0.00000000000E+00 0. -1.
         11    1    3    3    0    0  0.35284466956E+01  0.51772800404E+01 -0.88354419825E+01  0.10831398801E+02  0.51100000000E-03 0. -1.
        -11    1    3    3    0    0 -0.18490522268E+02  0.22593828522E+02 -0.16781252077E+02  0.33674781701E+02  0.51100000000E-03 0.  1.
        -12    1    3    3    0    0  0.37042736635E+00  0.29902569723E+01 -0.12987917489E+01  0.32811146278E+01  0.00000000000E+00 0.  1.
</event>
<event>
 7    1  0.2812635E-010  0.4778727E+02  0.7816164E-02  0.1312668E+00
        -11   -1    0    0    0    0  0.00000000000E+00  0.00000000000E+00  0.45593999997E+02  0.45594000000E+02  0.51100000000E-03 0. -1.
         11   -1    0    0    0    0 -0.00000000000E+00 -0.00000000000E+00 -0.45593999997E+02  0.45594000000E+02  0.51100000000E-03 0.  1.
    9900012    2    1    2    0    0  0.28936459487E+02  0.80391923134E+01 -0.31331711024E+02  0.47787269402E+02  0.19999992512E+02 0.  0.
         12    1    1    2    0    0 -0.28936459487E+02 -0.80391923134E+01  0.31331711024E+02  0.43400730598E+02  0.00000000000E+00 0. -1.
         11    1    3    3    0    0 -0.13828979697E+01 -0.12136445853E+01 -0.63448163623E+01  0.66062118424E+01  0.51100000000E-03 0. -1.
        -11    1    3    3    0    0  0.15575476388E+01  0.18422365094E+01 -0.44800009057E+01  0.50882411873E+01  0.51100000000E-03 0.  1.
         12    1    3    3    0    0  0.28761809818E+02  0.74106003893E+01 -0.20506893756E+02  0.36092816372E+02  0.00000000000E+00 0. -1.
</event>
<event>
 7    1  0.2812635E-010  0.4778727E+02  0.7816164E-02  0.1312668E+00
        -11   -1    0    0    0    0  0.00000000000E+00  0.00000000000E+00  0.45593999997E+02  0.45594000000E+02  0.51100000000E-03 0.  1.
         11   -1    0    0    0    0 -0.00000000000E+00 -0.00000000000E+00 -0.45593999997E+02  0.45594000000E+02  0.51100000000E-03 0. -1.
    9900012    2    1    2    0    0  0.16730251558E+02 -0.33845409535E+02 -0.21405853218E+02  0.47787267106E+02  0.19999982043E+02 0.  0.
         12    1    1    2    0    0 -0.16730251558E+02  0.33845409535E+02  0.21405853218E+02  0.43400732894E+02  0.00000000000E+00 0. -1.
         11    1    3    3    0    0  0.72598491460E+01 -0.16806822830E+02 -0.16917535726E+02  0.24927449099E+02  0.51100000000E-03 0. -1.
        -11    1    3    3    0    0  0.52014128840E+01 -0.67034456955E+01  0.34365103961E+01  0.91542604369E+01  0.51100000000E-03 0.  1.
        -12    1    3    3    0    0  0.42689895276E+01 -0.10335141009E+02 -0.79248278875E+01  0.13705557570E+02  0.00000000000E+00 0.  1.
</event>
<event>
 7    1  0.2812635E-010  0.4778731E+02  0.7816164E-02  0.1312668E+00
        -11   -1    0    0    0    0  0.00000000000E+00  0.00000000000E+00  0.45593999997E+02  0.45594000000E+02  0.51100000000E-03 0.  1.
         11   -1    0    0    0    0 -0.00000000000E+00 -0.00000000000E+00 -0.45593999997E+02  0.45594000000E+02  0.51100000000E-03 0. -1.
    9900012    2    1    2    0    0 -0.21141664737E+02  0.37180268585E+02  0.73673164895E+01  0.47787312077E+02  0.20000187085E+02 0.  0.
         12    1    1    2    0    0  0.21141664737E+02 -0.37180268585E+02 -0.73673164895E+01  0.43400687923E+02  0.00000000000E+00 0. -1.
         11    1    3    3    0    0 -0.13046037311E+02  0.20095943208E+02  0.21937016106E+00  0.23960261820E+02  0.51100000000E-03 0. -1.
        -11    1    3    3    0    0 -0.30527141394E+01  0.94664764269E+01 -0.27875687299E+01  0.10329752138E+02  0.51100000000E-03 0.  1.
         12    1    3    3    0    0 -0.50429132869E+01  0.76178489496E+01  0.99355150583E+01  0.13497298119E+02  0.00000000000E+00 0. -1.
</event>
<event>
 7    1  0.2812635E-010  0.4778727E+02  0.7816164E-02  0.1312668E+00
        -11   -1    0    0    0    0  0.00000000000E+00  0.00000000000E+00  0.45593999997E+02  0.45594000000E+02  0.51100000000E-03 0.  1.
         11   -1    0    0    0    0 -0.00000000000E+00 -0.00000000000E+00 -0.45593999997E+02  0.45594000000E+02  0.51100000000E-03 0. -1.
    9900012    2    1    2    0    0  0.29486600220E+02  0.17130892710E+01  0.31799827914E+02  0.47787270482E+02  0.19999997434E+02 0.  0.
         12    1    1    2    0    0 -0.29486600220E+02 -0.17130892710E+01 -0.31799827914E+02  0.43400729518E+02  0.00000000000E+00 0. -1.
         11    1    3    3    0    0  0.34269420591E-01  0.21552072804E+01  0.94998852202E+01  0.97413506390E+01  0.51100000000E-03 0. -1.
        -11    1    3    3    0    0  0.26981995345E+02  0.45500584529E+00  0.22850456543E+02  0.35360690995E+02  0.51100000000E-03 0.  1.
        -12    1    3    3    0    0  0.24703354543E+01 -0.89712385464E+00 -0.55051384959E+00  0.26852288480E+01  0.00000000000E+00 0.  1.
</event>
<event>
 7    1  0.2812635E-010  0.4778728E+02  0.7816164E-02  0.1312668E+00
        -11   -1    0    0    0    0  0.00000000000E+00  0.00000000000E+00  0.45593999997E+02  0.45594000000E+02  0.51100000000E-03 0.  1.
         11   -1    0    0    0    0 -0.00000000000E+00 -0.00000000000E+00 -0.45593999997E+02  0.45594000000E+02  0.51100000000E-03 0. -1.
    9900012    2    1    2    0    0  0.42311919267E+02  0.14754102294E+00  0.96593031807E+01  0.47787280901E+02  0.20000044940E+02 0.  0.
         12    1    1    2    0    0 -0.42311919267E+02 -0.14754102294E+00 -0.96593031807E+01  0.43400719099E+02  0.00000000000E+00 0. -1.
         11    1    3    3    0    0  0.24063355430E+02 -0.74834117217E+00 -0.22161790458E+01  0.24176776850E+02  0.51100000000E-03 0.  1.
        -11    1    3    3    0    0  0.12459542672E+02  0.36672628661E+01  0.42992051868E+01  0.13681088627E+02  0.51100000000E-03 0. -1.
         12    1    3    3    0    0  0.57890211651E+01 -0.27713806710E+01  0.75762770396E+01  0.99294154236E+01  0.00000000000E+00 0. -1.
</event>
<event>
 7    1  0.2812635E-010  0.4778727E+02  0.7816164E-02  0.1312668E+00
        -11   -1    0    0    0    0  0.00000000000E+00  0.00000000000E+00  0.45593999997E+02  0.45594000000E+02  0.51100000000E-03 0.  1.
         11   -1    0    0    0    0 -0.00000000000E+00 -0.00000000000E+00 -0.45593999997E+02  0.45594000000E+02  0.51100000000E-03 0. -1.
    9900012    2    1    2    0    0 -0.12923806560E+02 -0.18030352540E+01  0.41392605803E+02  0.47787268125E+02  0.19999986688E+02 0.  0.
         12    1    1    2    0    0  0.12923806560E+02  0.18030352540E+01 -0.41392605803E+02  0.43400731875E+02  0.00000000000E+00 0. -1.
         11    1    3    3    0    0 -0.17886925403E+01 -0.26238873572E+01  0.26690222973E+01  0.41482389217E+01  0.51100000000E-03 0. -1.
        -11    1    3    3    0    0 -0.13815195796E+02 -0.27806517709E+01  0.35250868281E+02  0.37963342503E+02  0.51100000000E-03 0.  1.
        -12    1    3    3    0    0  0.26800817766E+01  0.36015038740E+01  0.34727152247E+01  0.56756866999E+01  0.00000000000E+00 0.  1.
</event>
<event>
 7    1  0.2812635E-010  0.4778727E+02  0.7816164E-02  0.1312668E+00
        -11   -1    0    0    0    0  0.00000000000E+00  0.00000000000E+00  0.45593999997E+02  0.45594000000E+02  0.51100000000E-03 0.  1.
         11   -1    0    0    0    0 -0.00000000000E+00 -0.00000000000E+00 -0.45593999997E+02  0.45594000000E+02  0.51100000000E-03 0. -1.
    9900012    2    1    2    0    0  0.21120798765E+02 -0.34712776312E+02  0.15249861990E+02  0.47787271084E+02  0.20000000179E+02 0.  0.
         12    1    1    2    0    0 -0.21120798765E+02  0.34712776312E+02 -0.15249861990E+02  0.43400728916E+02  0.00000000000E+00 0. -1.
         11    1    3    3    0    0  0.35572463631E+01 -0.11860985308E+02  0.62249971140E+01  0.13859565776E+02  0.51100000000E-03 0. -1.
        -11    1    3    3    0    0 -0.12747091085E+01 -0.14046016715E+01  0.46843531321E+01  0.50538058623E+01  0.51100000000E-03 0.  1.
        -12    1    3    3    0    0  0.18838261510E+02 -0.21447189333E+02  0.43405117443E+01  0.28873899446E+02  0.00000000000E+00 0.  1.
</event>
<event>
 7    1  0.2812635E-010  0.4778727E+02  0.7816164E-02  0.1312668E+00
        -11   -1    0    0    0    0  0.00000000000E+00  0.00000000000E+00  0.45593999997E+02  0.45594000000E+02  0.51100000000E-03 0.  1.
         11   -1    0    0    0    0 -0.00000000000E+00 -0.00000000000E+00 -0.45593999997E+02  0.45594000000E+02  0.51100000000E-03 0. -1.
    9900012    2    1    2    0    0 -0.39577990122E+02  0.10426960476E+02  0.14439000083E+02  0.47787268091E+02  0.19999986532E+02 0.  0.
         12    1    1    2    0    0  0.39577990122E+02 -0.10426960476E+02 -0.14439000083E+02  0.43400731909E+02  0.00000000000E+00 0. -1.
         11    1    3    3    0    0 -0.27805349437E+02  0.14332192177E+02  0.53721331751E+01  0.31739707072E+02  0.51100000000E-03 0. -1.
        -11    1    3    3    0    0 -0.11674642774E+02 -0.39321378690E+01  0.73858755785E+01  0.14363500633E+02  0.51100000000E-03 0.  1.
         12    1    3    3    0    0 -0.97997911788E-01  0.26906167623E-01  0.16809913293E+01  0.16840603854E+01  0.00000000000E+00 0. -1.
</event>
<event>
 7    1  0.2812635E-010  0.4778727E+02  0.7816164E-02  0.1312668E+00
        -11   -1    0    0    0    0  0.00000000000E+00  0.00000000000E+00  0.45593999997E+02  0.45594000000E+02  0.51100000000E-03 0.  1.
         11   -1    0    0    0    0 -0.00000000000E+00 -0.00000000000E+00 -0.45593999997E+02  0.45594000000E+02  0.51100000000E-03 0. -1.
    9900012    2    1    2    0    0 -0.11578933601E+02 -0.20016293376E+02  0.36727364398E+02  0.47787274205E+02  0.20000014412E+02 0.  0.
         12    1    1    2    0    0  0.11578933601E+02  0.20016293376E+02 -0.36727364398E+02  0.43400725795E+02  0.00000000000E+00 0. -1.
         11    1    3    3    0    0 -0.96338140951E+01 -0.57959534993E+01  0.14751959036E+02  0.18547877146E+02  0.51100000000E-03 0. -1.
        -11    1    3    3    0    0  0.50570204383E+01 -0.29798221308E+01  0.50088072391E+01  0.77162779800E+01  0.51100000000E-03 0.  1.
        -12    1    3    3    0    0 -0.70021399439E+01 -0.11240517746E+02  0.16966598124E+02  0.21523119079E+02  0.00000000000E+00 0.  1.
</event>
<event>
 7    1  0.2812635E-010  0.4778727E+02  0.7816164E-02  0.1312668E+00
        -11   -1    0    0    0    0  0.00000000000E+00  0.00000000000E+00  0.45593999997E+02  0.45594000000E+02  0.51100000000E-03 0. -1.
         11   -1    0    0    0    0 -0.00000000000E+00 -0.00000000000E+00 -0.45593999997E+02  0.45594000000E+02  0.51100000000E-03 0.  1.
    9900012    2    1    2    0    0 -0.15138152990E+02 -0.40663751655E+02  0.95880436648E+00  0.47787266361E+02  0.19999978644E+02 0.  0.
         12    1    1    2    0    0  0.15138152990E+02  0.40663751655E+02 -0.95880436648E+00  0.43400733639E+02  0.00000000000E+00 0. -1.
         11    1    3    3    0    0 -0.10704532650E+02 -0.13105417289E+02  0.12423655461E+01  0.16967099163E+02  0.51100000000E-03 0. -1.
        -11    1    3    3    0    0 -0.54962334955E+01 -0.28698862499E+02  0.75477951722E-01  0.29220523413E+02  0.51100000000E-03 0.  1.
        -12    1    3    3    0    0  0.10626131555E+01  0.11405281328E+01 -0.35903913138E+00  0.15996437847E+01  0.00000000000E+00 0.  1.
</event>
<event>
 7    1  0.2812635E-010  0.4778727E+02  0.7816164E-02  0.1312668E+00
        -11   -1    0    0    0    0  0.00000000000E+00  0.00000000000E+00  0.45593999997E+02  0.45594000000E+02  0.51100000000E-03 0.  1.
         11   -1    0    0    0    0 -0.00000000000E+00 -0.00000000000E+00 -0.45593999997E+02  0.45594000000E+02  0.51100000000E-03 0. -1.
    9900012    2    1    2    0    0  0.17544900387E+02 -0.45830876016E+01  0.39430888547E+02  0.47787271974E+02  0.20000004238E+02 0.  0.
         12    1    1    2    0    0 -0.17544900387E+02  0.45830876016E+01 -0.39430888547E+02  0.43400728026E+02  0.00000000000E+00 0. -1.
         11    1    3    3    0    0 -0.51113126830E+00  0.51144943238E+01  0.50708410854E+01  0.72203003356E+01  0.51100000000E-03 0. -1.
        -11    1    3    3    0    0  0.88852840783E+01 -0.85334018061E+01  0.19879171797E+02  0.23386934197E+02  0.51100000000E-03 0.  1.
         12    1    3    3    0    0  0.91707475768E+01 -0.11641801192E+01  0.14480875665E+02  0.17180037442E+02  0.00000000000E+00 0. -1.
</event>
<event>
 7    1  0.2812635E-010  0.4778727E+02  0.7816164E-02  0.1312668E+00
        -11   -1    0    0    0    0  0.00000000000E+00  0.00000000000E+00  0.45593999997E+02  0.45594000000E+02  0.51100000000E-03 0.  1.
         11   -1    0    0    0    0 -0.00000000000E+00 -0.00000000000E+00 -0.45593999997E+02  0.45594000000E+02  0.51100000000E-03 0. -1.
    9900012    2    1    2    0    0 -0.33793262634E+02 -0.21125387823E+02  0.17185954007E+02  0.47787266996E+02  0.19999981543E+02 0.  0.
         12    1    1    2    0    0  0.33793262634E+02  0.21125387823E+02 -0.17185954007E+02  0.43400733004E+02  0.00000000000E+00 0. -1.
         11    1    3    3    0    0  0.88887257456E+00 -0.51878627742E+01  0.24907660381E+01  0.58230516342E+01  0.51100000000E-03 0. -1.
        -11    1    3    3    0    0 -0.42967262796E+01 -0.41939862497E+01  0.54324494492E+01  0.80970911235E+01  0.51100000000E-03 0.  1.
         12    1    3    3    0    0 -0.30385408929E+02 -0.11743538800E+02  0.92627385200E+01  0.33867124239E+02  0.00000000000E+00 0. -1.
</event>
<event>
 7    1  0.2812635E-010  0.4778727E+02  0.7816164E-02  0.1312668E+00
        -11   -1    0    0    0    0  0.00000000000E+00  0.00000000000E+00  0.45593999997E+02  0.45594000000E+02  0.51100000000E-03 0. -1.
         11   -1    0    0    0    0 -0.00000000000E+00 -0.00000000000E+00 -0.45593999997E+02  0.45594000000E+02  0.51100000000E-03 0.  1.
    9900012    2    1    2    0    0  0.10441311114E+02 -0.25785343994E+02 -0.33312433259E+02  0.47787272445E+02  0.20000006387E+02 0.  0.
         12    1    1    2    0    0 -0.10441311114E+02  0.25785343994E+02  0.33312433259E+02  0.43400727555E+02  0.00000000000E+00 0. -1.
         11    1    3    3    0    0 -0.76392373142E-01 -0.16981980826E+02 -0.15836171424E+02  0.23220203147E+02  0.51100000000E-03 0. -1.
        -11    1    3    3    0    0  0.12205594944E+02 -0.93381008112E+01 -0.14650193180E+02  0.21232165108E+02  0.51100000000E-03 0.  1.
         12    1    3    3    0    0 -0.16878914565E+01  0.53473764319E+00 -0.28260686548E+01  0.33349041901E+01  0.00000000000E+00 0. -1.
</event>
<event>
 7    1  0.2812635E-010  0.4778727E+02  0.7816164E-02  0.1312668E+00
        -11   -1    0    0    0    0  0.00000000000E+00  0.00000000000E+00  0.45593999997E+02  0.45594000000E+02  0.51100000000E-03 0. -1.
         11   -1    0    0    0    0 -0.00000000000E+00 -0.00000000000E+00 -0.45593999997E+02  0.45594000000E+02  0.51100000000E-03 0.  1.
    9900012    2    1    2    0    0 -0.12012205821E+01  0.28913598329E+02 -0.32344771870E+02  0.47787269977E+02  0.19999995134E+02 0.  0.
         12    1    1    2    0    0  0.12012205821E+01 -0.28913598329E+02  0.32344771870E+02  0.43400730023E+02  0.00000000000E+00 0. -1.
         11    1    3    3    0    0 -0.34853218891E+01 -0.10559684822E+01 -0.98618486873E+00  0.37729430107E+01  0.51100000000E-03 0. -1.
        -11    1    3    3    0    0  0.33623822868E+01  0.10369035147E+02 -0.14487807165E+02  0.18130611166E+02  0.51100000000E-03 0.  1.
         12    1    3    3    0    0 -0.10782809798E+01  0.19600531664E+02 -0.16870779836E+02  0.25883715801E+02  0.00000000000E+00 0. -1.
</event>
<event>
 7    1  0.2812635E-010  0.4778728E+02  0.7816164E-02  0.1312668E+00
        -11   -1    0    0    0    0  0.00000000000E+00  0.00000000000E+00  0.45593999997E+02  0.45594000000E+02  0.51100000000E-03 0.  1.
         11   -1    0    0    0    0 -0.00000000000E+00 -0.00000000000E+00 -0.45593999997E+02  0.45594000000E+02  0.51100000000E-03 0. -1.
    9900012    2    1    2    0    0 -0.28892693590E+01 -0.18221310966E+02  0.39284329747E+02  0.47787278642E+02  0.20000034639E+02 0.  0.
         12    1    1    2    0    0  0.28892693590E+01  0.18221310966E+02 -0.39284329747E+02  0.43400721358E+02  0.00000000000E+00 0. -1.
         11    1    3    3    0    0 -0.84738538336E+01 -0.68990377567E+01  0.76673249986E+01  0.13348812444E+02  0.51100000000E-03 0. -1.
        -11    1    3    3    0    0  0.44659781213E+01 -0.80524488005E+01  0.16154574017E+02  0.18594546356E+02  0.51100000000E-03 0.  1.
        -12    1    3    3    0    0  0.11186063534E+01 -0.32698244093E+01  0.15462430731E+02  0.15843919842E+02  0.00000000000E+00 0.  1.
</event>
<event>
 7    1  0.2812635E-010  0.4778727E+02  0.7816164E-02  0.1312668E+00
        -11   -1    0    0    0    0  0.00000000000E+00  0.00000000000E+00  0.45593999997E+02  0.45594000000E+02  0.51100000000E-03 0.  1.
         11   -1    0    0    0    0 -0.00000000000E+00 -0.00000000000E+00 -0.45593999997E+02  0.45594000000E+02  0.51100000000E-03 0. -1.
    9900012    2    1    2    0    0 -0.35141134886E+02 -0.24930174532E+02 -0.52163400130E+01  0.47787272283E+02  0.20000005648E+02 0.  0.
         12    1    1    2    0    0  0.35141134886E+02  0.24930174532E+02  0.52163400130E+01  0.43400727717E+02  0.00000000000E+00 0. -1.
         11    1    3    3    0    0 -0.72520799584E+00 -0.81565696386E+00  0.11003388535E+00  0.10969642825E+01  0.51100000000E-03 0. -1.
        -11    1    3    3    0    0 -0.16492359852E+02 -0.19667140917E+02 -0.10154209881E+02  0.27602578573E+02  0.51100000000E-03 0.  1.
        -12    1    3    3    0    0 -0.17923567037E+02 -0.44473766511E+01  0.48278359822E+01  0.19087729427E+02  0.00000000000E+00 0.  1.
</event>
<event>
 7    1  0.2812635E-010  0.4778727E+02  0.7816164E-02  0.1312668E+00
        -11   -1    0    0    0    0  0.00000000000E+00  0.00000000000E+00  0.45593999997E+02  0.45594000000E+02  0.51100000000E-03 0.  1.
         11   -1    0    0    0    0 -0.00000000000E+00 -0.00000000000E+00 -0.45593999997E+02  0.45594000000E+02  0.51100000000E-03 0. -1.
    9900012    2    1    2    0    0  0.29333686918E+02  0.31331328085E+02  0.64425106205E+01  0.47787271310E+02  0.20000001209E+02 0.  0.
         12    1    1    2    0    0 -0.29333686918E+02 -0.31331328085E+02 -0.64425106205E+01  0.43400728690E+02  0.00000000000E+00 0. -1.
         11    1    3    3    0    0  0.21302674398E+02  0.27451277194E+02 -0.15089627919E+01  0.34780073678E+02  0.51100000000E-03 0. -1.
        -11    1    3    3    0    0  0.61082372545E+01  0.43572165054E+01  0.80743439776E+01  0.11022292364E+02  0.51100000000E-03 0.  1.
        -12    1    3    3    0    0  0.19227752650E+01 -0.47716561463E+00 -0.12287056530E+00  0.19849052671E+01  0.00000000000E+00 0.  1.
</event>
<event>
 7    1  0.2812635E-010  0.4778727E+02  0.7816164E-02  0.1312668E+00
        -11   -1    0    0    0    0  0.00000000000E+00  0.00000000000E+00  0.45593999997E+02  0.45594000000E+02  0.51100000000E-03 0. -1.
         11   -1    0    0    0    0 -0.00000000000E+00 -0.00000000000E+00 -0.45593999997E+02  0.45594000000E+02  0.51100000000E-03 0.  1.
    9900012    2    1    2    0    0 -0.29202093376E+02 -0.41113822349E+01 -0.31842697490E+02  0.47787272991E+02  0.20000008877E+02 0.  0.
         12    1    1    2    0    0  0.29202093376E+02  0.41113822349E+01  0.31842697490E+02  0.43400727009E+02  0.00000000000E+00 0. -1.
         11    1    3    3    0    0 -0.21643019993E+01  0.51346896780E+01 -0.25164782365E+01  0.61140742725E+01  0.51100000000E-03 0. -1.
        -11    1    3    3    0    0 -0.10482258285E+02 -0.76317462869E+01 -0.13318532506E+02  0.18587753994E+02  0.51100000000E-03 0.  1.
        -12    1    3    3    0    0 -0.16555533091E+02 -0.16143256260E+01 -0.16007686748E+02  0.23085444726E+02  0.00000000000E+00 0.  1.
</event>
<event>
 7    1  0.2812635E-010  0.4778727E+02  0.7816164E-02  0.1312668E+00
        -11   -1    0    0    0    0  0.00000000000E+00  0.00000000000E+00  0.45593999997E+02  0.45594000000E+02  0.51100000000E-03 0. -1.
         11   -1    0    0    0    0 -0.00000000000E+00 -0.00000000000E+00 -0.45593999997E+02  0.45594000000E+02  0.51100000000E-03 0.  1.
    9900012    2    1    2    0    0 -0.19435639146E+02 -0.28505186433E+02 -0.26331229721E+02  0.47787269808E+02  0.19999994362E+02 0.  0.
         12    1    1    2    0    0  0.19435639146E+02  0.28505186433E+02  0.26331229721E+02  0.43400730192E+02  0.00000000000E+00 0. -1.
         11    1    3    3    0    0 -0.19655007635E+02 -0.11463468817E+02 -0.16198933030E+02  0.27930912517E+02  0.51100000000E-03 0. -1.
        -11    1    3    3    0    0  0.57535273167E+00 -0.64828379806E+01 -0.36694243925E+01  0.74714720559E+01  0.51100000000E-03 0.  1.
         12    1    3    3    0    0 -0.35598424198E+00 -0.10558879636E+02 -0.64628722989E+01  0.12384885235E+02  0.00000000000E+00 0. -1.
</event>
<event>
 7    1  0.2812635E-010  0.4778727E+02  0.7816164E-02  0.1312668E+00
        -11   -1    0    0    0    0  0.00000000000E+00  0.00000000000E+00  0.45593999997E+02  0.45594000000E+02  0.51100000000E-03 0.  1.
         11   -1    0    0    0    0 -0.00000000000E+00 -0.00000000000E+00 -0.45593999997E+02  0.45594000000E+02  0.51100000000E-03 0. -1.
    9900012    2    1    2    0    0  0.20681253486E+02  0.27572081403E+02  0.26375924538E+02  0.47787270584E+02  0.19999997900E+02 0.  0.
         12    1    1    2    0    0 -0.20681253486E+02 -0.27572081403E+02 -0.26375924538E+02  0.43400729416E+02  0.00000000000E+00 0. -1.
         11    1    3    3    0    0  0.17713211729E+02  0.20005759743E+02  0.16273375426E+02  0.31285955965E+02  0.51100000000E-03 0.  1.
        -11    1    3    3    0    0 -0.10370875405E+01  0.41716881431E+01 -0.82576540408E+00  0.43772618489E+01  0.51100000000E-03 0. -1.
         12    1    3    3    0    0  0.40051292978E+01  0.33946335167E+01  0.10928314516E+02  0.12124052770E+02  0.00000000000E+00 0. -1.
</event>
<event>
 7    1  0.2812635E-010  0.4778726E+02  0.7816164E-02  0.1312668E+00
        -11   -1    0    0    0    0  0.00000000000E+00  0.00000000000E+00  0.45593999997E+02  0.45594000000E+02  0.51100000000E-03 0.  1.
         11   -1    0    0    0    0 -0.00000000000E+00 -0.00000000000E+00 -0.45593999997E+02  0.45594000000E+02  0.51100000000E-03 0. -1.
    9900012    2    1    2    0    0 -0.35270363314E+02 -0.82438785668E+00  0.25277388584E+02  0.47787256720E+02  0.19999934690E+02 0.  0.
         12    1    1    2    0    0  0.35270363314E+02  0.82438785668E+00 -0.25277388584E+02  0.43400743280E+02  0.00000000000E+00 0. -1.
         11    1    3    3    0    0 -0.26805154659E+01  0.37860782346E+01  0.22582607228E+01  0.51593888509E+01  0.51100000000E-03 0. -1.
        -11    1    3    3    0    0 -0.32483076849E+02 -0.43024968571E+01  0.17591300723E+02  0.37190262464E+02  0.51100000000E-03 0.  1.
        -12    1    3    3    0    0 -0.10677099871E+00 -0.30796923418E+00  0.54278271385E+01  0.54376054050E+01  0.00000000000E+00 0.  1.
</event>
<event>
 7    1  0.2812635E-010  0.4778727E+02  0.7816164E-02  0.1312668E+00
        -11   -1    0    0    0    0  0.00000000000E+00  0.00000000000E+00  0.45593999997E+02  0.45594000000E+02  0.51100000000E-03 0.  1.
         11   -1    0    0    0    0 -0.00000000000E+00 -0.00000000000E+00 -0.45593999997E+02  0.45594000000E+02  0.51100000000E-03 0. -1.
    9900012    2    1    2    0    0  0.38593160968E+02  0.15332029274E+02  0.12614273780E+02  0.47787273069E+02  0.20000009229E+02 0.  0.
         12    1    1    2    0    0 -0.38593160968E+02 -0.15332029274E+02 -0.12614273780E+02  0.43400726931E+02  0.00000000000E+00 0. -1.
         11    1    3    3    0    0  0.28038123984E+02  0.76239942660E+01  0.74885343813E+01  0.30005663341E+02  0.51100000000E-03 0. -1.
        -11    1    3    3    0    0  0.17708207026E+01  0.70955988941E+01 -0.50341746280E+00  0.73305360670E+01  0.51100000000E-03 0.  1.
        -12    1    3    3    0    0  0.87842162817E+01  0.61243611352E+00  0.56291568618E+01  0.10451073660E+02  0.00000000000E+00 0.  1.
</event>
<event>
 7    1  0.2812635E-010  0.4778727E+02  0.7816164E-02  0.1312668E+00
        -11   -1    0    0    0    0  0.00000000000E+00  0.00000000000E+00  0.45593999997E+02  0.45594000000E+02  0.51100000000E-03 0. -1.
         11   -1    0    0    0    0 -0.00000000000E+00 -0.00000000000E+00 -0.45593999997E+02  0.45594000000E+02  0.51100000000E-03 0.  1.
    9900012    2    1    2    0    0  0.19377697005E+02  0.37880983859E+02 -0.85533418353E+01  0.47787265722E+02  0.19999975731E+02 0.  0.
         12    1    1    2    0    0 -0.19377697005E+02 -0.37880983859E+02  0.85533418353E+01  0.43400734278E+02  0.00000000000E+00 0. -1.
         11    1    3    3    0    0  0.14325674205E+02  0.13859618211E+02 -0.10332325354E+02  0.22451523464E+02  0.51100000000E-03 0. -1.
        -11    1    3    3    0    0  0.15530875828E+01  0.16194552484E+02 -0.10633154234E+01  0.16303565596E+02  0.51100000000E-03 0.  1.
        -12    1    3    3    0    0  0.34989352172E+01  0.78268131642E+01  0.28422989422E+01  0.90321766611E+01  0.00000000000E+00 0.  1.
</event>
<event>
 7    1  0.2812635E-010  0.4778727E+02  0.7816164E-02  0.1312668E+00
        -11   -1    0    0    0    0  0.00000000000E+00  0.00000000000E+00  0.45593999997E+02  0.45594000000E+02  0.51100000000E-03 0. -1.
         11   -1    0    0    0    0 -0.00000000000E+00 -0.00000000000E+00 -0.45593999997E+02  0.45594000000E+02  0.51100000000E-03 0.  1.
    9900012    2    1    2    0    0 -0.15154979985E+02 -0.30232108591E+02 -0.27202379937E+02  0.47787270946E+02  0.19999999551E+02 0.  0.
         12    1    1    2    0    0  0.15154979985E+02  0.30232108591E+02  0.27202379937E+02  0.43400729054E+02  0.00000000000E+00 0. -1.
         11    1    3    3    0    0  0.76615551232E+00 -0.10405462488E+02 -0.16109087936E+01  0.10557256806E+02  0.51100000000E-03 0. -1.
        -11    1    3    3    0    0 -0.15292912952E+02 -0.15814128309E+02 -0.17261973034E+02  0.27963110593E+02  0.51100000000E-03 0.  1.
         12    1    3    3    0    0 -0.62822254521E+00 -0.40125177938E+01 -0.83294981090E+01  0.92669035476E+01  0.00000000000E+00 0. -1.
</event>
<event>
 7    1  0.2812635E-010  0.4778727E+02  0.7816164E-02  0.1312668E+00
        -11   -1    0    0    0    0  0.00000000000E+00  0.00000000000E+00  0.45593999997E+02  0.45594000000E+02  0.51100000000E-03 0. -1.
         11   -1    0    0    0    0 -0.00000000000E+00 -0.00000000000E+00 -0.45593999997E+02  0.45594000000E+02  0.51100000000E-03 0.  1.
    9900012    2    1    2    0    0  0.44417499904E+01 -0.20040513096E+02 -0.38239663463E+02  0.47787272242E+02  0.20000005460E+02 0.  0.
         12    1    1    2    0    0 -0.44417499904E+01  0.20040513096E+02  0.38239663463E+02  0.43400727758E+02  0.00000000000E+00 0. -1.
         11    1    3    3    0    0  0.28206688650E+01 -0.68371287682E+00 -0.17216447078E+02  0.17459372452E+02  0.51100000000E-03 0. -1.
        -11    1    3    3    0    0  0.22539679364E+01 -0.10029330858E+01 -0.63783021934E+01  0.68387853720E+01  0.51100000000E-03 0.  1.
         12    1    3    3    0    0 -0.63288681098E+00 -0.18353867134E+02 -0.14644914192E+02  0.23489114418E+02  0.00000000000E+00 0. -1.
</event>
<event>
 7    1  0.2812635E-010  0.4778727E+02  0.7816164E-02  0.1312668E+00
        -11   -1    0    0    0    0  0.00000000000E+00  0.00000000000E+00  0.45593999997E+02  0.45594000000E+02  0.51100000000E-03 0. -1.
         11   -1    0    0    0    0 -0.00000000000E+00 -0.00000000000E+00 -0.45593999997E+02  0.45594000000E+02  0.51100000000E-03 0.  1.
    9900012    2    1    2    0    0  0.22613678694E+02  0.32887293367E+02 -0.17049062891E+02  0.47787273341E+02  0.20000010472E+02 0.  0.
         12    1    1    2    0    0 -0.22613678694E+02 -0.32887293367E+02  0.17049062891E+02  0.43400726659E+02  0.00000000000E+00 0. -1.
         11    1    3    3    0    0 -0.73501401182E+00 -0.12204822396E+00 -0.98807337906E+00  0.12375098505E+01  0.51100000000E-03 0. -1.
        -11    1    3    3    0    0  0.66591249718E+01  0.18921106299E+02 -0.14307852499E+02  0.24638726679E+02  0.51100000000E-03 0.  1.
        -12    1    3    3    0    0  0.16689567734E+02  0.14088235292E+02 -0.17531370125E+01  0.21911036812E+02  0.00000000000E+00 0.  1.
</event>
<event>
 7    1  0.2812635E-010  0.4778727E+02  0.7816164E-02  0.1312668E+00
        -11   -1    0    0    0    0  0.00000000000E+00  0.00000000000E+00  0.45593999997E+02  0.45594000000E+02  0.51100000000E-03 0. -1.
         11   -1    0    0    0    0 -0.00000000000E+00 -0.00000000000E+00 -0.45593999997E+02  0.45594000000E+02  0.51100000000E-03 0.  1.
    9900012    2    1    2    0    0 -0.27679268592E+01  0.38523872432E+02  0.19795781077E+02  0.47787272878E+02  0.20000008361E+02 0.  0.
         12    1    1    2    0    0  0.27679268592E+01 -0.38523872432E+02 -0.19795781077E+02  0.43400727122E+02  0.00000000000E+00 0. -1.
         11    1    3    3    0    0  0.26811928265E+01  0.46614777622E+01  0.23924516557E+01  0.58857450748E+01  0.51100000000E-03 0. -1.
        -11    1    3    3    0    0  0.22044636966E+01  0.26725492599E+02  0.84123972911E+01  0.28104804630E+02  0.51100000000E-03 0.  1.
        -12    1    3    3    0    0 -0.76535833823E+01  0.71369020713E+01  0.89909321300E+01  0.13796723174E+02  0.00000000000E+00 0.  1.
</event>
<event>
 7    1  0.2812635E-010  0.4778727E+02  0.7816164E-02  0.1312668E+00
        -11   -1    0    0    0    0  0.00000000000E+00  0.00000000000E+00  0.45593999997E+02  0.45594000000E+02  0.51100000000E-03 0.  1.
         11   -1    0    0    0    0 -0.00000000000E+00 -0.00000000000E+00 -0.45593999997E+02  0.45594000000E+02  0.51100000000E-03 0. -1.
    9900012    2    1    2    0    0 -0.37796527943E+02 -0.20861252514E+02  0.44557614686E+01  0.47787271996E+02  0.20000004338E+02 0.  0.
         12    1    1    2    0    0  0.37796527943E+02  0.20861252514E+02 -0.44557614686E+01  0.43400728004E+02  0.00000000000E+00 0. -1.
         11    1    3    3    0    0 -0.29871503365E+02 -0.13514162643E+02  0.65511488725E+01  0.33434366407E+02  0.51100000000E-03 0.  1.
        -11    1    3    3    0    0 -0.41007461255E+01 -0.30644401462E+01  0.36057087556E+01  0.62616330207E+01  0.51100000000E-03 0. -1.
         12    1    3    3    0    0 -0.38242784526E+01 -0.42826497249E+01 -0.57010961595E+01  0.80912725680E+01  0.00000000000E+00 0. -1.
</event>
<event>
 7    1  0.2812635E-010  0.4778728E+02  0.7816164E-02  0.1312668E+00
        -11   -1    0    0    0    0  0.00000000000E+00  0.00000000000E+00  0.45593999997E+02  0.45594000000E+02  0.51100000000E-03 0.  1.
         11   -1    0    0    0    0 -0.00000000000E+00 -0.00000000000E+00 -0.45593999997E+02  0.45594000000E+02  0.51100000000E-03 0. -1.
    9900012    2    1    2    0    0  0.13718481722E+02 -0.15766101711E+02  0.38037556671E+02  0.47787280865E+02  0.20000044776E+02 0.  0.
         12    1    1    2    0    0 -0.13718481722E+02  0.15766101711E+02 -0.38037556671E+02  0.43400719135E+02  0.00000000000E+00 0. -1.
         11    1    3    3    0    0  0.11086254534E+02 -0.68872504416E+01  0.17513450410E+02  0.21841707895E+02  0.51100000000E-03 0. -1.
        -11    1    3    3    0    0 -0.20572002877E+01 -0.38751126374E+01  0.18174450900E+02  0.18696503329E+02  0.51100000000E-03 0.  1.
        -12    1    3    3    0    0  0.46894274754E+01 -0.50037386319E+01  0.23496553616E+01  0.72490696412E+01  0.00000000000E+00 0.  1.
</event>
<event>
 7    1  0.2812635E-010  0.4778728E+02  0.7816164E-02  0.1312668E+00
        -11   -1    0    0    0    0  0.00000000000E+00  0.00000000000E+00  0.45593999997E+02  0.45594000000E+02  0.51100000000E-03 0.  1.
         11   -1    0    0    0    0 -0.00000000000E+00 -0.00000000000E+00 -0.45593999997E+02  0.45594000000E+02  0.51100000000E-03 0. -1.
    9900012    2    1    2    0    0  0.15288050608E+02  0.93506881600E+01  0.39527997229E+02  0.47787280820E+02  0.20000044570E+02 0.  0.
         12    1    1    2    0    0 -0.15288050608E+02 -0.93506881600E+01 -0.39527997229E+02  0.43400719180E+02  0.00000000000E+00 0. -1.
         11    1    3    3    0    0  0.85056047313E+01  0.84525407595E+01  0.10713282173E+02  0.16079961826E+02  0.51100000000E-03 0.  1.
        -11    1    3    3    0    0 -0.95999198787E+00 -0.34730146617E+01  0.13752201025E+02  0.14216414765E+02  0.51100000000E-03 0. -1.
         12    1    3    3    0    0  0.77424378640E+01  0.43711620622E+01  0.15062514030E+02  0.17490904229E+02  0.00000000000E+00 0. -1.
</event>
<event>
 7    1  0.2812635E-010  0.4778727E+02  0.7816164E-02  0.1312668E+00
        -11   -1    0    0    0    0  0.00000000000E+00  0.00000000000E+00  0.45593999997E+02  0.45594000000E+02  0.51100000000E-03 0.  1.
         11   -1    0    0    0    0 -0.00000000000E+00 -0.00000000000E+00 -0.45593999997E+02  0.45594000000E+02  0.51100000000E-03 0. -1.
    9900012    2    1    2    0    0  0.18780955930E+02 -0.37506878103E+02 -0.11141493425E+02  0.47787273204E+02  0.20000009845E+02 0.  0.
         12    1    1    2    0    0 -0.18780955930E+02  0.37506878103E+02  0.11141493425E+02  0.43400726796E+02  0.00000000000E+00 0. -1.
         11    1    3    3    0    0 -0.31726661271E+01 -0.61161144115E+01 -0.21659300714E+01  0.72224593584E+01  0.51100000000E-03 0. -1.
        -11    1    3    3    0    0  0.22539468282E+02 -0.30741028635E+02 -0.75002490454E+01  0.38849610140E+02  0.51100000000E-03 0.  1.
        -12    1    3    3    0    0 -0.58584622472E+00 -0.64973505653E+00 -0.14753143086E+01  0.17152037057E+01  0.00000000000E+00 0.  1.
</event>
<event>
 7    1  0.2812635E-010  0.4778727E+02  0.7816164E-02  0.1312668E+00
        -11   -1    0    0    0    0  0.00000000000E+00  0.00000000000E+00  0.45593999997E+02  0.45594000000E+02  0.51100000000E-03 0.  1.
         11   -1    0    0    0    0 -0.00000000000E+00 -0.00000000000E+00 -0.45593999997E+02  0.45594000000E+02  0.51100000000E-03 0. -1.
    9900012    2    1    2    0    0  0.32008967587E+02  0.77035584459E+01  0.28279045325E+02  0.47787271628E+02  0.20000002661E+02 0.  0.
         12    1    1    2    0    0 -0.32008967587E+02 -0.77035584459E+01 -0.28279045325E+02  0.43400728372E+02  0.00000000000E+00 0. -1.
         11    1    3    3    0    0  0.98753835715E+01  0.57603363149E+01  0.93437481656E+01  0.14765172034E+02  0.51100000000E-03 0. -1.
        -11    1    3    3    0    0  0.22094202862E+02 -0.12362216732E+01  0.19835448094E+02  0.29717453549E+02  0.51100000000E-03 0.  1.
        -12    1    3    3    0    0  0.39381153711E-01  0.31794438043E+01 -0.90015093394E+00  0.33046460451E+01  0.00000000000E+00 0.  1.
</event>
<event>
 7    1  0.2812635E-010  0.4778727E+02  0.7816164E-02  0.1312668E+00
        -11   -1    0    0    0    0  0.00000000000E+00  0.00000000000E+00  0.45593999997E+02  0.45594000000E+02  0.51100000000E-03 0. -1.
         11   -1    0    0    0    0 -0.00000000000E+00 -0.00000000000E+00 -0.45593999997E+02  0.45594000000E+02  0.51100000000E-03 0.  1.
    9900012    2    1    2    0    0  0.23045424452E+02  0.36298365397E+02 -0.59127158726E+01  0.47787272729E+02  0.20000007683E+02 0.  0.
         12    1    1    2    0    0 -0.23045424452E+02 -0.36298365397E+02  0.59127158726E+01  0.43400727271E+02  0.00000000000E+00 0. -1.
         11    1    3    3    0    0  0.77596559400E+01  0.13450542266E+02 -0.10502435640E+02  0.18746479728E+02  0.51100000000E-03 0. -1.
        -11    1    3    3    0    0  0.12616358860E+02  0.18708040538E+02  0.39053393512E+00  0.22568026247E+02  0.51100000000E-03 0.  1.
         12    1    3    3    0    0  0.26694096514E+01  0.41397825926E+01  0.41991858326E+01  0.64727667545E+01  0.00000000000E+00 0. -1.
</event>
<event>
 7    1  0.2812635E-010  0.4778727E+02  0.7816164E-02  0.1312668E+00
        -11   -1    0    0    0    0  0.00000000000E+00  0.00000000000E+00  0.45593999997E+02  0.45594000000E+02  0.51100000000E-03 0.  1.
         11   -1    0    0    0    0 -0.00000000000E+00 -0.00000000000E+00 -0.45593999997E+02  0.45594000000E+02  0.51100000000E-03 0. -1.
    9900012    2    1    2    0    0  0.59248472712E+01  0.24062342301E+02  0.35630368508E+02  0.47787270834E+02  0.19999999039E+02 0.  0.
         12    1    1    2    0    0 -0.59248472712E+01 -0.24062342301E+02 -0.35630368508E+02  0.43400729166E+02  0.00000000000E+00 0. -1.
         11    1    3    3    0    0 -0.36141856989E+01 -0.24933532613E+00  0.35841873251E+01  0.50961657561E+01  0.51100000000E-03 0. -1.
        -11    1    3    3    0    0  0.11435155211E+02  0.16063657210E+02  0.23228879038E+02  0.30469405627E+02  0.51100000000E-03 0.  1.
         12    1    3    3    0    0 -0.18961222408E+01  0.82480204169E+01  0.88173021447E+01  0.12221699451E+02  0.00000000000E+00 0. -1.
</event>
<event>
 7    1  0.2812635E-010  0.4778727E+02  0.7816164E-02  0.1312668E+00
        -11   -1    0    0    0    0  0.00000000000E+00  0.00000000000E+00  0.45593999997E+02  0.45594000000E+02  0.51100000000E-03 0.  1.
         11   -1    0    0    0    0 -0.00000000000E+00 -0.00000000000E+00 -0.45593999997E+02  0.45594000000E+02  0.51100000000E-03 0. -1.
    9900012    2    1    2    0    0 -0.27839092470E+02 -0.13532567643E+02  0.30421668927E+02  0.47787269627E+02  0.19999993538E+02 0.  0.
         12    1    1    2    0    0  0.27839092470E+02  0.13532567643E+02 -0.30421668927E+02  0.43400730373E+02  0.00000000000E+00 0. -1.
         11    1    3    3    0    0 -0.14121154495E+02 -0.10701938633E+01  0.11640647956E+02  0.18331857633E+02  0.51100000000E-03 0. -1.
        -11    1    3    3    0    0 -0.68457950465E+01 -0.14047823665E+02  0.13371744120E+02  0.20567202061E+02  0.51100000000E-03 0.  1.
         12    1    3    3    0    0 -0.68721429288E+01  0.15854498851E+01  0.54092768515E+01  0.88882099339E+01  0.00000000000E+00 0. -1.
</event>
<event>
 7    1  0.2812635E-010  0.4778727E+02  0.7816164E-02  0.1312668E+00
        -11   -1    0    0    0    0  0.00000000000E+00  0.00000000000E+00  0.45593999997E+02  0.45594000000E+02  0.51100000000E-03 0.  1.
         11   -1    0    0    0    0 -0.00000000000E+00 -0.00000000000E+00 -0.45593999997E+02  0.45594000000E+02  0.51100000000E-03 0. -1.
    9900012    2    1    2    0    0  0.15164419945E+02  0.24863920586E+02  0.32178397266E+02  0.47787269248E+02  0.19999991810E+02 0.  0.
         12    1    1    2    0    0 -0.15164419945E+02 -0.24863920586E+02 -0.32178397266E+02  0.43400730752E+02  0.00000000000E+00 0. -1.
         11    1    3    3    0    0  0.99845403376E+01  0.13756506055E+02  0.77098149882E+01  0.18664773023E+02  0.51100000000E-03 0. -1.
        -11    1    3    3    0    0  0.66483318146E+01  0.36910989329E+01  0.16332773530E+02  0.18016215438E+02  0.51100000000E-03 0.  1.
        -12    1    3    3    0    0 -0.14684522075E+01  0.74163155982E+01  0.81358087479E+01  0.11106280787E+02  0.00000000000E+00 0.  1.
</event>
<event>
 7    1  0.2812635E-010  0.4778722E+02  0.7816164E-02  0.1312668E+00
        -11   -1    0    0    0    0  0.00000000000E+00  0.00000000000E+00  0.45593999997E+02  0.45594000000E+02  0.51100000000E-03 0. -1.
         11   -1    0    0    0    0 -0.00000000000E+00 -0.00000000000E+00 -0.45593999997E+02  0.45594000000E+02  0.51100000000E-03 0.  1.
    9900012    2    1    2    0    0 -0.17056326027E+02  0.39450698329E+02 -0.60292564478E+01  0.47787219022E+02  0.19999762805E+02 0.  0.
         12    1    1    2    0    0  0.17056326027E+02 -0.39450698329E+02  0.60292564478E+01  0.43400780978E+02  0.00000000000E+00 0. -1.
         11    1    3    3    0    0 -0.61619871277E+01  0.91896479323E+01  0.36422393896E+01  0.11648417168E+02  0.51100000000E-03 0. -1.
        -11    1    3    3    0    0 -0.29503579903E+01  0.72246186139E+01 -0.87912198178E+01  0.11755223202E+02  0.51100000000E-03 0.  1.
        -12    1    3    3    0    0 -0.79439809095E+01  0.23036431783E+02 -0.88027601965E+00  0.24383578652E+02  0.00000000000E+00 0.  1.
</event>
<event>
 7    1  0.2812635E-010  0.4778727E+02  0.7816164E-02  0.1312668E+00
        -11   -1    0    0    0    0  0.00000000000E+00  0.00000000000E+00  0.45593999997E+02  0.45594000000E+02  0.51100000000E-03 0.  1.
         11   -1    0    0    0    0 -0.00000000000E+00 -0.00000000000E+00 -0.45593999997E+02  0.45594000000E+02  0.51100000000E-03 0. -1.
    9900012    2    1    2    0    0  0.19655010067E+02 -0.35648092731E+01  0.38530456406E+02  0.47787270090E+02  0.19999995647E+02 0.  0.
         12    1    1    2    0    0 -0.19655010067E+02  0.35648092731E+01 -0.38530456406E+02  0.43400729910E+02  0.00000000000E+00 0. -1.
         11    1    3    3    0    0 -0.20493899253E+01 -0.54023392616E+00  0.11866427247E+02  0.12054208711E+02  0.51100000000E-03 0. -1.
        -11    1    3    3    0    0  0.88051936243E+01 -0.23029443113E+01  0.18021852398E+02  0.20189654564E+02  0.51100000000E-03 0.  1.
         12    1    3    3    0    0  0.12899206368E+02 -0.72163103561E+00  0.86421767602E+01  0.15543406815E+02  0.00000000000E+00 0. -1.
</event>
<event>
 7    1  0.2812635E-010  0.4778727E+02  0.7816164E-02  0.1312668E+00
        -11   -1    0    0    0    0  0.00000000000E+00  0.00000000000E+00  0.45593999997E+02  0.45594000000E+02  0.51100000000E-03 0.  1.
         11   -1    0    0    0    0 -0.00000000000E+00 -0.00000000000E+00 -0.45593999997E+02  0.45594000000E+02  0.51100000000E-03 0. -1.
    9900012    2    1    2    0    0  0.17106055210E+02  0.39597585950E+02  0.47997204029E+01  0.47787271275E+02  0.20000001052E+02 0.  0.
         12    1    1    2    0    0 -0.17106055210E+02 -0.39597585950E+02 -0.47997204029E+01  0.43400728725E+02  0.00000000000E+00 0. -1.
         11    1    3    3    0    0  0.10052617204E+02  0.17055242849E+02 -0.41715069118E+01  0.20232100521E+02  0.51100000000E-03 0. -1.
        -11    1    3    3    0    0  0.88926531025E+01  0.22486690874E+02  0.79726185481E+01  0.25461602315E+02  0.51100000000E-03 0.  1.
         12    1    3    3    0    0 -0.18392150966E+01  0.55652226096E-01  0.99860876664E+00  0.20935684394E+01  0.00000000000E+00 0. -1.
</event>
<event>
 7    1  0.2812635E-010  0.4778727E+02  0.7816164E-02  0.1312668E+00
        -11   -1    0    0    0    0  0.00000000000E+00  0.00000000000E+00  0.45593999997E+02  0.45594000000E+02  0.51100000000E-03 0.  1.
         11   -1    0    0    0    0 -0.00000000000E+00 -0.00000000000E+00 -0.45593999997E+02  0.45594000000E+02  0.51100000000E-03 0. -1.
    9900012    2    1    2    0    0 -0.32842554375E+02  0.27933030949E+02  0.49735254498E+01  0.47787267849E+02  0.19999985429E+02 0.  0.
         12    1    1    2    0    0  0.32842554375E+02 -0.27933030949E+02 -0.49735254498E+01  0.43400732151E+02  0.00000000000E+00 0. -1.
         11    1    3    3    0    0  0.21811486531E-01 -0.16239050704E+01 -0.13592228209E-01  0.16241085026E+01  0.51100000000E-03 0. -1.
        -11    1    3    3    0    0 -0.25695943787E+02  0.28078535862E+02  0.66982822824E+01  0.38646509403E+02  0.51100000000E-03 0.  1.
        -12    1    3    3    0    0 -0.71684220743E+01  0.14784001579E+01 -0.17111646044E+01  0.75166499430E+01  0.00000000000E+00 0.  1.
</event>
<event>
 7    1  0.2812635E-010  0.4778727E+02  0.7816164E-02  0.1312668E+00
        -11   -1    0    0    0    0  0.00000000000E+00  0.00000000000E+00  0.45593999997E+02  0.45594000000E+02  0.51100000000E-03 0. -1.
         11   -1    0    0    0    0 -0.00000000000E+00 -0.00000000000E+00 -0.45593999997E+02  0.45594000000E+02  0.51100000000E-03 0.  1.
    9900012    2    1    2    0    0  0.36484470633E+02 -0.15019723249E+02 -0.18080791174E+02  0.47787266212E+02  0.19999977966E+02 0.  0.
         12    1    1    2    0    0 -0.36484470633E+02  0.15019723249E+02  0.18080791174E+02  0.43400733788E+02  0.00000000000E+00 0. -1.
         11    1    3    3    0    0  0.10125458505E+02 -0.35439323481E-01  0.35559723782E+00  0.10131762706E+02  0.51100000000E-03 0. -1.
        -11    1    3    3    0    0  0.27695357031E+02 -0.13822284042E+02 -0.16679533464E+02  0.35160989378E+02  0.51100000000E-03 0.  1.
        -12    1    3    3    0    0 -0.13363449018E+01 -0.11619998830E+01 -0.17568549481E+01  0.24945141277E+01  0.00000000000E+00 0.  1.
</event>
<event>
 7    1  0.2812635E-010  0.4778727E+02  0.7816164E-02  0.1312668E+00
        -11   -1    0    0    0    0  0.00000000000E+00  0.00000000000E+00  0.45593999997E+02  0.45594000000E+02  0.51100000000E-03 0.  1.
         11   -1    0    0    0    0 -0.00000000000E+00 -0.00000000000E+00 -0.45593999997E+02  0.45594000000E+02  0.51100000000E-03 0. -1.
    9900012    2    1    2    0    0  0.14237412620E+02 -0.12821838055E+02  0.38942515273E+02  0.47787274833E+02  0.20000017273E+02 0.  0.
         12    1    1    2    0    0 -0.14237412620E+02  0.12821838055E+02 -0.38942515273E+02  0.43400725167E+02  0.00000000000E+00 0. -1.
         11    1    3    3    0    0  0.78504163204E+01 -0.12871262322E+02  0.26976000785E+02  0.30903123609E+02  0.51100000000E-03 0. -1.
        -11    1    3    3    0    0  0.16846267705E+01  0.33825366082E+01  0.20279250654E+00  0.37842629828E+01  0.51100000000E-03 0.  1.
        -12    1    3    3    0    0  0.47023695290E+01 -0.33331123403E+01  0.11763721982E+02  0.13099888241E+02  0.00000000000E+00 0.  1.
</event>
<event>
 7    1  0.2812635E-010  0.4778727E+02  0.7816164E-02  0.1312668E+00
        -11   -1    0    0    0    0  0.00000000000E+00  0.00000000000E+00  0.45593999997E+02  0.45594000000E+02  0.51100000000E-03 0. -1.
         11   -1    0    0    0    0 -0.00000000000E+00 -0.00000000000E+00 -0.45593999997E+02  0.45594000000E+02  0.51100000000E-03 0.  1.
    9900012    2    1    2    0    0 -0.19602102040E+02  0.16642409625E+02 -0.34962994606E+02  0.47787271961E+02  0.20000004177E+02 0.  0.
         12    1    1    2    0    0  0.19602102040E+02 -0.16642409625E+02  0.34962994606E+02  0.43400728039E+02  0.00000000000E+00 0. -1.
         11    1    3    3    0    0 -0.17617949758E+01 -0.31864296002E+01 -0.39986171630E+00  0.36629420944E+01  0.51100000000E-03 0. -1.
        -11    1    3    3    0    0 -0.10515215356E+02  0.15374145697E+02 -0.26212071944E+02  0.32155976517E+02  0.51100000000E-03 0.  1.
         12    1    3    3    0    0 -0.73250917090E+01  0.44546935277E+01 -0.83510609454E+01  0.11968353349E+02  0.00000000000E+00 0. -1.
</event>
<event>
 7    1  0.2812635E-010  0.4778727E+02  0.7816164E-02  0.1312668E+00
        -11   -1    0    0    0    0  0.00000000000E+00  0.00000000000E+00  0.45593999997E+02  0.45594000000E+02  0.51100000000E-03 0. -1.
         11   -1    0    0    0    0 -0.00000000000E+00 -0.00000000000E+00 -0.45593999997E+02  0.45594000000E+02  0.51100000000E-03 0.  1.
    9900012    2    1    2    0    0 -0.38296329533E+02 -0.17199494439E+02  0.11008714769E+02  0.47787271141E+02  0.20000000438E+02 0.  0.
         12    1    1    2    0    0  0.38296329533E+02  0.17199494439E+02 -0.11008714769E+02  0.43400728859E+02  0.00000000000E+00 0. -1.
         11    1    3    3    0    0 -0.62356593660E+01 -0.35310784650E+01  0.10156702454E+02  0.12430227989E+02  0.51100000000E-03 0. -1.
        -11    1    3    3    0    0 -0.24049946752E+02 -0.80137513202E+01  0.22622549291E+01  0.25450696387E+02  0.51100000000E-03 0.  1.
         12    1    3    3    0    0 -0.80107234157E+01 -0.56546646539E+01 -0.14102426143E+01  0.99063467647E+01  0.00000000000E+00 0. -1.
</event>
<event>
 7    1  0.2812635E-010  0.4778725E+02  0.7816164E-02  0.1312668E+00
        -11   -1    0    0    0    0  0.00000000000E+00  0.00000000000E+00  0.45593999997E+02  0.45594000000E+02  0.51100000000E-03 0.  1.
         11   -1    0    0    0    0 -0.00000000000E+00 -0.00000000000E+00 -0.45593999997E+02  0.45594000000E+02  0.51100000000E-03 0. -1.
    9900012    2    1    2    0    0  0.15283131456E+02  0.21817300140E+02  0.34264509031E+02  0.47787248029E+02  0.19999895063E+02 0.  0.
         12    1    1    2    0    0 -0.15283131456E+02 -0.21817300140E+02 -0.34264509031E+02  0.43400751971E+02  0.00000000000E+00 0. -1.
         11    1    3    3    0    0  0.52925075121E+01  0.63881130209E+01  0.13415021087E+02  0.15772806179E+02  0.51100000000E-03 0.  1.
        -11    1    3    3    0    0  0.95072055930E+01  0.13498531229E+02  0.68515313538E+01  0.17875703781E+02  0.51100000000E-03 0. -1.
        -12    1    3    3    0    0  0.48341835090E+00  0.19306558907E+01  0.13997956590E+02  0.14138738069E+02  0.00000000000E+00 0.  1.
</event>
<event>
 7    1  0.2812635E-010  0.4778727E+02  0.7816164E-02  0.1312668E+00
        -11   -1    0    0    0    0  0.00000000000E+00  0.00000000000E+00  0.45593999997E+02  0.45594000000E+02  0.51100000000E-03 0. -1.
         11   -1    0    0    0    0 -0.00000000000E+00 -0.00000000000E+00 -0.45593999997E+02  0.45594000000E+02  0.51100000000E-03 0.  1.
    9900012    2    1    2    0    0  0.39609877792E+02 -0.14948806819E+01 -0.17676151989E+02  0.47787269176E+02  0.19999991480E+02 0.  0.
         12    1    1    2    0    0 -0.39609877792E+02  0.14948806819E+01  0.17676151989E+02  0.43400730824E+02  0.00000000000E+00 0. -1.
         11    1    3    3    0    0  0.73625590411E+01  0.58002323632E+01 -0.81826987137E+01  0.12442127214E+02  0.51100000000E-03 0. -1.
        -11    1    3    3    0    0  0.32005427559E+02 -0.79954433781E+01 -0.99718367261E+01  0.34463198285E+02  0.51100000000E-03 0.  1.
         12    1    3    3    0    0  0.24189119193E+00  0.70033033303E+00  0.47838345117E+00  0.88194367759E+00  0.00000000000E+00 0. -1.
</event>
<event>
 7    1  0.2812635E-010  0.4778727E+02  0.7816164E-02  0.1312668E+00
        -11   -1    0    0    0    0  0.00000000000E+00  0.00000000000E+00  0.45593999997E+02  0.45594000000E+02  0.51100000000E-03 0.  1.
         11   -1    0    0    0    0 -0.00000000000E+00 -0.00000000000E+00 -0.45593999997E+02  0.45594000000E+02  0.51100000000E-03 0. -1.
    9900012    2    1    2    0    0 -0.71919096823E+01  0.11160518938E+02  0.41320001198E+02  0.47787271355E+02  0.20000001418E+02 0.  0.
         12    1    1    2    0    0  0.71919096823E+01 -0.11160518938E+02 -0.41320001198E+02  0.43400728645E+02  0.00000000000E+00 0. -1.
         11    1    3    3    0    0 -0.19456436658E+01 -0.81270907032E+00  0.18851972540E+01  0.28284261091E+01  0.51100000000E-03 0. -1.
        -11    1    3    3    0    0 -0.77056788027E+01  0.96140029870E+01  0.11620164278E+02  0.16936196662E+02  0.51100000000E-03 0.  1.
        -12    1    3    3    0    0  0.24594127861E+01  0.23592250213E+01  0.27814639666E+02  0.28022648585E+02  0.00000000000E+00 0.  1.
</event>
<event>
 7    1  0.2812635E-010  0.4778728E+02  0.7816164E-02  0.1312668E+00
        -11   -1    0    0    0    0  0.00000000000E+00  0.00000000000E+00  0.45593999997E+02  0.45594000000E+02  0.51100000000E-03 0.  1.
         11   -1    0    0    0    0 -0.00000000000E+00 -0.00000000000E+00 -0.45593999997E+02  0.45594000000E+02  0.51100000000E-03 0. -1.
    9900012    2    1    2    0    0  0.88101876820E+01  0.26540898392E+02  0.33190110851E+02  0.47787283961E+02  0.20000058890E+02 0.  0.
         12    1    1    2    0    0 -0.88101876820E+01 -0.26540898392E+02 -0.33190110851E+02  0.43400716039E+02  0.00000000000E+00 0. -1.
         11    1    3    3    0    0  0.10951042090E+02  0.61693006557E+01  0.14068164841E+02  0.18865281755E+02  0.51100000000E-03 0. -1.
        -11    1    3    3    0    0 -0.47258085957E+01  0.11167197622E+02  0.10208939433E+02  0.15851246457E+02  0.51100000000E-03 0.  1.
        -12    1    3    3    0    0  0.25849541874E+01  0.92044001142E+01  0.89130065762E+01  0.13070755749E+02  0.00000000000E+00 0.  1.
</event>
<event>
 7    1  0.2812635E-010  0.4778727E+02  0.7816164E-02  0.1312668E+00
        -11   -1    0    0    0    0  0.00000000000E+00  0.00000000000E+00  0.45593999997E+02  0.45594000000E+02  0.51100000000E-03 0. -1.
         11   -1    0    0    0    0 -0.00000000000E+00 -0.00000000000E+00 -0.45593999997E+02  0.45594000000E+02  0.51100000000E-03 0.  1.
    9900012    2    1    2    0    0  0.35598842306E+01  0.38762662806E+02 -0.19193929816E+02  0.47787265612E+02  0.19999975233E+02 0.  0.
         12    1    1    2    0    0 -0.35598842306E+01 -0.38762662806E+02  0.19193929816E+02  0.43400734388E+02  0.00000000000E+00 0. -1.
         11    1    3    3    0    0  0.79865917123E+00  0.82219132523E+01 -0.34593695869E+01  0.89557217577E+01  0.51100000000E-03 0. -1.
        -11    1    3    3    0    0  0.36102888370E+01  0.29279242277E+02 -0.19096055321E+02  0.35142104987E+02  0.51100000000E-03 0.  1.
        -12    1    3    3    0    0 -0.84906377767E+00  0.12615072770E+01  0.33614950918E+01  0.36894388680E+01  0.00000000000E+00 0.  1.
</event>
<event>
 7    1  0.2812635E-010  0.4778724E+02  0.7816164E-02  0.1312668E+00
        -11   -1    0    0    0    0  0.00000000000E+00  0.00000000000E+00  0.45593999997E+02  0.45594000000E+02  0.51100000000E-03 0.  1.
         11   -1    0    0    0    0 -0.00000000000E+00 -0.00000000000E+00 -0.45593999997E+02  0.45594000000E+02  0.51100000000E-03 0. -1.
    9900012    2    1    2    0    0  0.30533932994E+02 -0.57740319398E+01  0.30297941953E+02  0.47787241994E+02  0.19999867547E+02 0.  0.
         12    1    1    2    0    0 -0.30533932994E+02  0.57740319398E+01 -0.30297941953E+02  0.43400758006E+02  0.00000000000E+00 0. -1.
         11    1    3    3    0    0  0.74534672984E+00 -0.10508845257E+01  0.36752787398E+01  0.38945569852E+01  0.51100000000E-03 0. -1.
        -11    1    3    3    0    0  0.21867644848E+01  0.11241486450E+00 -0.26042758214E+01  0.34024739277E+01  0.51100000000E-03 0.  1.
        -12    1    3    3    0    0  0.27601821779E+02 -0.48355622786E+01  0.29226939035E+02  0.40490211081E+02  0.00000000000E+00 0.  1.
</event>
<event>
 7    1  0.2812635E-010  0.4778726E+02  0.7816164E-02  0.1312668E+00
        -11   -1    0    0    0    0  0.00000000000E+00  0.00000000000E+00  0.45593999997E+02  0.45594000000E+02  0.51100000000E-03 0.  1.
         11   -1    0    0    0    0 -0.00000000000E+00 -0.00000000000E+00 -0.45593999997E+02  0.45594000000E+02  0.51100000000E-03 0. -1.
    9900012    2    1    2    0    0  0.23149573339E+02  0.29573153991E+02  0.21752007002E+02  0.47787262779E+02  0.19999962313E+02 0.  0.
         12    1    1    2    0    0 -0.23149573339E+02 -0.29573153991E+02 -0.21752007002E+02  0.43400737221E+02  0.00000000000E+00 0. -1.
         11    1    3    3    0    0  0.87010929317E+01  0.48616507807E+01 -0.19213266826E+01  0.10150673032E+02  0.51100000000E-03 0. -1.
        -11    1    3    3    0    0  0.14790255418E+02  0.21923672031E+02  0.21583334951E+02  0.34135603093E+02  0.51100000000E-03 0.  1.
        -12    1    3    3    0    0 -0.34177501114E+00  0.27878311795E+01  0.20899987334E+01  0.35009866537E+01  0.00000000000E+00 0.  1.
</event>
<event>
 7    1  0.2812635E-010  0.4778727E+02  0.7816164E-02  0.1312668E+00
        -11   -1    0    0    0    0  0.00000000000E+00  0.00000000000E+00  0.45593999997E+02  0.45594000000E+02  0.51100000000E-03 0. -1.
         11   -1    0    0    0    0 -0.00000000000E+00 -0.00000000000E+00 -0.45593999997E+02  0.45594000000E+02  0.51100000000E-03 0.  1.
    9900012    2    1    2    0    0 -0.37040454635E+02 -0.21013259475E+02 -0.83708389192E+01  0.47787270771E+02  0.19999998755E+02 0.  0.
         12    1    1    2    0    0  0.37040454635E+02  0.21013259475E+02  0.83708389192E+01  0.43400729229E+02  0.00000000000E+00 0. -1.
         11    1    3    3    0    0 -0.11437996285E+01 -0.85178936575E+01  0.79282791426E+00  0.86308381003E+01  0.51100000000E-03 0. -1.
        -11    1    3    3    0    0 -0.22138465239E+02 -0.82508398040E+01 -0.47677751941E+01  0.24102275435E+02  0.51100000000E-03 0.  1.
         12    1    3    3    0    0 -0.13758189768E+02 -0.42445260134E+01 -0.43958916393E+01  0.15054157236E+02  0.00000000000E+00 0. -1.
</event>
<event>
 7    1  0.2812635E-010  0.4778727E+02  0.7816164E-02  0.1312668E+00
        -11   -1    0    0    0    0  0.00000000000E+00  0.00000000000E+00  0.45593999997E+02  0.45594000000E+02  0.51100000000E-03 0.  1.
         11   -1    0    0    0    0 -0.00000000000E+00 -0.00000000000E+00 -0.45593999997E+02  0.45594000000E+02  0.51100000000E-03 0. -1.
    9900012    2    1    2    0    0  0.89446968184E+01  0.42304664339E+02  0.37324722079E+01  0.47787267578E+02  0.19999984193E+02 0.  0.
         12    1    1    2    0    0 -0.89446968184E+01 -0.42304664339E+02 -0.37324722079E+01  0.43400732422E+02  0.00000000000E+00 0. -1.
         11    1    3    3    0    0 -0.12866633467E+01  0.53889334681E+01 -0.33897176094E+01  0.64950975530E+01  0.51100000000E-03 0. -1.
        -11    1    3    3    0    0  0.94164075837E+01  0.33355999002E+02  0.10605012832E+02  0.36245795599E+02  0.51100000000E-03 0.  1.
        -12    1    3    3    0    0  0.81495258145E+00  0.35597318690E+01 -0.34828230145E+01  0.50463744252E+01  0.00000000000E+00 0.  1.
</event>
<event>
 7    1  0.2812635E-010  0.4778727E+02  0.7816164E-02  0.1312668E+00
        -11   -1    0    0    0    0  0.00000000000E+00  0.00000000000E+00  0.45593999997E+02  0.45594000000E+02  0.51100000000E-03 0.  1.
         11   -1    0    0    0    0 -0.00000000000E+00 -0.00000000000E+00 -0.45593999997E+02  0.45594000000E+02  0.51100000000E-03 0. -1.
    9900012    2    1    2    0    0 -0.87587125713E+01  0.42165744177E+02  0.53812809404E+01  0.47787271752E+02  0.20000003227E+02 0.  0.
         12    1    1    2    0    0  0.87587125713E+01 -0.42165744177E+02 -0.53812809404E+01  0.43400728248E+02  0.00000000000E+00 0. -1.
         11    1    3    3    0    0  0.95845392433E+00  0.12256271316E+02  0.90841866894E+01  0.15285851908E+02  0.51100000000E-03 0. -1.
        -11    1    3    3    0    0 -0.88085905064E+01  0.24492203968E+02 -0.28053072282E+00  0.26029560497E+02  0.51100000000E-03 0.  1.
         12    1    3    3    0    0 -0.90857598922E+00  0.54172688925E+01 -0.34223750261E+01  0.64718593465E+01  0.00000000000E+00 0. -1.
</event>
<event>
 7    1  0.2812635E-010  0.4778728E+02  0.7816164E-02  0.1312668E+00
        -11   -1    0    0    0    0  0.00000000000E+00  0.00000000000E+00  0.45593999997E+02  0.45594000000E+02  0.51100000000E-03 0.  1.
         11   -1    0    0    0    0 -0.00000000000E+00 -0.00000000000E+00 -0.45593999997E+02  0.45594000000E+02  0.51100000000E-03 0. -1.
    9900012    2    1    2    0    0 -0.12210063916E+02  0.40991115745E+02 -0.73665138697E+01  0.47787276994E+02  0.20000027128E+02 0.  0.
         12    1    1    2    0    0  0.12210063916E+02 -0.40991115745E+02  0.73665138697E+01  0.43400723006E+02  0.00000000000E+00 0. -1.
         11    1    3    3    0    0 -0.89405600015E+00  0.22812000398E+02  0.23781250370E+01  0.22953042875E+02  0.51100000000E-03 0. -1.
        -11    1    3    3    0    0  0.76722975196E+00  0.34460018649E+01 -0.23382985493E+00  0.35381134814E+01  0.51100000000E-03 0.  1.
         12    1    3    3    0    0 -0.12083237667E+02  0.14733113482E+02 -0.95108090518E+01  0.21296120638E+02  0.00000000000E+00 0. -1.
</event>
<event>
 7    1  0.2812635E-010  0.4778727E+02  0.7816164E-02  0.1312668E+00
        -11   -1    0    0    0    0  0.00000000000E+00  0.00000000000E+00  0.45593999997E+02  0.45594000000E+02  0.51100000000E-03 0. -1.
         11   -1    0    0    0    0 -0.00000000000E+00 -0.00000000000E+00 -0.45593999997E+02  0.45594000000E+02  0.51100000000E-03 0.  1.
    9900012    2    1    2    0    0  0.10802023765E+02  0.39800701883E+02  0.13521975777E+02  0.47787269399E+02  0.19999992497E+02 0.  0.
         12    1    1    2    0    0 -0.10802023765E+02 -0.39800701883E+02 -0.13521975777E+02  0.43400730601E+02  0.00000000000E+00 0. -1.
         11    1    3    3    0    0 -0.17682556302E+01  0.21064605277E+02  0.81993749993E+01  0.22673201673E+02  0.51100000000E-03 0.  1.
        -11    1    3    3    0    0  0.13516102885E+02  0.19076340363E+02  0.56584010442E+01  0.24054299022E+02  0.51100000000E-03 0. -1.
         12    1    3    3    0    0 -0.94582348956E+00 -0.34024375646E+00 -0.33580026631E+00  0.10597687040E+01  0.00000000000E+00 0. -1.
</event>
<event>
 7    1  0.2812635E-010  0.4778726E+02  0.7816164E-02  0.1312668E+00
        -11   -1    0    0    0    0  0.00000000000E+00  0.00000000000E+00  0.45593999997E+02  0.45594000000E+02  0.51100000000E-03 0. -1.
         11   -1    0    0    0    0 -0.00000000000E+00 -0.00000000000E+00 -0.45593999997E+02  0.45594000000E+02  0.51100000000E-03 0.  1.
    9900012    2    1    2    0    0 -0.19317953791E+02 -0.20845313389E+01 -0.38808443951E+02  0.47787263468E+02  0.19999965457E+02 0.  0.
         12    1    1    2    0    0  0.19317953791E+02  0.20845313389E+01  0.38808443951E+02  0.43400736532E+02  0.00000000000E+00 0. -1.
         11    1    3    3    0    0 -0.40921616774E+01  0.29680661677E+01 -0.30028781332E+01  0.58798368441E+01  0.51100000000E-03 0. -1.
        -11    1    3    3    0    0 -0.13811327389E+02 -0.92558942313E+01 -0.32009152462E+02  0.36069518764E+02  0.51100000000E-03 0.  1.
        -12    1    3    3    0    0 -0.14144647249E+01  0.42032967247E+01 -0.37964133564E+01  0.58379078604E+01  0.00000000000E+00 0.  1.
</event>
<event>
 7    1  0.2812635E-010  0.4778727E+02  0.7816164E-02  0.1312668E+00
        -11   -1    0    0    0    0  0.00000000000E+00  0.00000000000E+00  0.45593999997E+02  0.45594000000E+02  0.51100000000E-03 0.  1.
         11   -1    0    0    0    0 -0.00000000000E+00 -0.00000000000E+00 -0.45593999997E+02  0.45594000000E+02  0.51100000000E-03 0. -1.
    9900012    2    1    2    0    0  0.86261108208E+01  0.44909779695E+01  0.42297102086E+02  0.47787268257E+02  0.19999987290E+02 0.  0.
         12    1    1    2    0    0 -0.86261108208E+01 -0.44909779695E+01 -0.42297102086E+02  0.43400731743E+02  0.00000000000E+00 0. -1.
         11    1    3    3    0    0  0.29750895476E+01 -0.93523350185E+00 -0.53269980149E+00  0.31637934286E+01  0.51100000000E-03 0. -1.
        -11    1    3    3    0    0  0.70595206782E+01  0.71841152335E+01  0.37672229581E+02  0.38995451347E+02  0.51100000000E-03 0.  1.
        -12    1    3    3    0    0 -0.14084994050E+01 -0.17579037622E+01  0.51575723061E+01  0.56280234811E+01  0.00000000000E+00 0.  1.
</event>
<event>
 7    1  0.2812635E-010  0.4778727E+02  0.7816164E-02  0.1312668E+00
        -11   -1    0    0    0    0  0.00000000000E+00  0.00000000000E+00  0.45593999997E+02  0.45594000000E+02  0.51100000000E-03 0.  1.
         11   -1    0    0    0    0 -0.00000000000E+00 -0.00000000000E+00 -0.45593999997E+02  0.45594000000E+02  0.51100000000E-03 0. -1.
    9900012    2    1    2    0    0 -0.42663221423E+02  0.55302297833E+01  0.57349286187E+01  0.47787270629E+02  0.19999998107E+02 0.  0.
         12    1    1    2    0    0  0.42663221423E+02 -0.55302297833E+01 -0.57349286187E+01  0.43400729371E+02  0.00000000000E+00 0. -1.
         11    1    3    3    0    0 -0.25029849801E+02  0.37043299376E+01 -0.23182374560E+01  0.25408456595E+02  0.51100000000E-03 0. -1.
        -11    1    3    3    0    0  0.34633652707E+00  0.76210208131E+00  0.37747849418E+01  0.38664906815E+01  0.51100000000E-03 0.  1.
        -12    1    3    3    0    0 -0.17979708149E+02  0.10637977643E+01  0.42783811329E+01  0.18512323353E+02  0.00000000000E+00 0.  1.
</event>
<event>
 7    1  0.2812635E-010  0.4778728E+02  0.7816164E-02  0.1312668E+00
        -11   -1    0    0    0    0  0.00000000000E+00  0.00000000000E+00  0.45593999997E+02  0.45594000000E+02  0.51100000000E-03 0. -1.
         11   -1    0    0    0    0 -0.00000000000E+00 -0.00000000000E+00 -0.45593999997E+02  0.45594000000E+02  0.51100000000E-03 0.  1.
    9900012    2    1    2    0    0  0.25867271973E+02 -0.30930305993E+02  0.16056874004E+02  0.47787276609E+02  0.20000025370E+02 0.  0.
         12    1    1    2    0    0 -0.25867271973E+02  0.30930305993E+02 -0.16056874004E+02  0.43400723391E+02  0.00000000000E+00 0. -1.
         11    1    3    3    0    0  0.13201993816E+01  0.25246249022E+00  0.13319577710E+01  0.18922937090E+01  0.51100000000E-03 0. -1.
        -11    1    3    3    0    0  0.10199714837E+02 -0.25665892846E+02  0.12673091291E+02  0.30387159812E+02  0.51100000000E-03 0.  1.
        -12    1    3    3    0    0  0.14347357754E+02 -0.55168756370E+01  0.20518249418E+01  0.15507823087E+02  0.00000000000E+00 0.  1.
</event>
<event>
 7    1  0.2812635E-010  0.4778727E+02  0.7816164E-02  0.1312668E+00
        -11   -1    0    0    0    0  0.00000000000E+00  0.00000000000E+00  0.45593999997E+02  0.45594000000E+02  0.51100000000E-03 0.  1.
         11   -1    0    0    0    0 -0.00000000000E+00 -0.00000000000E+00 -0.45593999997E+02  0.45594000000E+02  0.51100000000E-03 0. -1.
    9900012    2    1    2    0    0 -0.11472821691E+02 -0.33701634873E+02  0.24823324487E+02  0.47787271097E+02  0.20000000240E+02 0.  0.
         12    1    1    2    0    0  0.11472821691E+02  0.33701634873E+02 -0.24823324487E+02  0.43400728903E+02  0.00000000000E+00 0. -1.
         11    1    3    3    0    0  0.11546170134E+01 -0.25742485437E+01  0.12396422920E+01  0.30816569059E+01  0.51100000000E-03 0. -1.
        -11    1    3    3    0    0 -0.33395839150E+01 -0.26555805575E+02  0.21042476315E+02  0.34046283794E+02  0.51100000000E-03 0.  1.
        -12    1    3    3    0    0 -0.92878547896E+01 -0.45715807544E+01  0.25412058808E+01  0.10659330397E+02  0.00000000000E+00 0.  1.
</event>
<event>
 7    1  0.2812635E-010  0.4778727E+02  0.7816164E-02  0.1312668E+00
        -11   -1    0    0    0    0  0.00000000000E+00  0.00000000000E+00  0.45593999997E+02  0.45594000000E+02  0.51100000000E-03 0.  1.
         11   -1    0    0    0    0 -0.00000000000E+00 -0.00000000000E+00 -0.45593999997E+02  0.45594000000E+02  0.51100000000E-03 0. -1.
    9900012    2    1    2    0    0 -0.28673974112E+02 -0.16830334932E+02  0.27895633057E+02  0.47787270640E+02  0.19999998157E+02 0.  0.
         12    1    1    2    0    0  0.28673974112E+02  0.16830334932E+02 -0.27895633057E+02  0.43400729360E+02  0.00000000000E+00 0. -1.
         11    1    3    3    0    0 -0.27486710400E+01 -0.27193527067E+01 -0.32188948739E+00  0.38799078253E+01  0.51100000000E-03 0. -1.
        -11    1    3    3    0    0 -0.62398985828E+01  0.27088797119E+01  0.10580700564E+02  0.12578775310E+02  0.51100000000E-03 0.  1.
        -12    1    3    3    0    0 -0.19685404489E+02 -0.16819861937E+02  0.17636821981E+02  0.31328587505E+02  0.00000000000E+00 0.  1.
</event>
<event>
 7    1  0.2812635E-010  0.4778727E+02  0.7816164E-02  0.1312668E+00
        -11   -1    0    0    0    0  0.00000000000E+00  0.00000000000E+00  0.45593999997E+02  0.45594000000E+02  0.51100000000E-03 0.  1.
         11   -1    0    0    0    0 -0.00000000000E+00 -0.00000000000E+00 -0.45593999997E+02  0.45594000000E+02  0.51100000000E-03 0. -1.
    9900012    2    1    2    0    0 -0.36516163907E+01 -0.25022302896E+02  0.35272844236E+02  0.47787268612E+02  0.19999988911E+02 0.  0.
         12    1    1    2    0    0  0.36516163907E+01  0.25022302896E+02 -0.35272844236E+02  0.43400731388E+02  0.00000000000E+00 0. -1.
         11    1    3    3    0    0 -0.66535564166E+00  0.12360218892E+01  0.54293470720E+01  0.56078746535E+01  0.51100000000E-03 0. -1.
        -11    1    3    3    0    0 -0.71822710406E+01 -0.18048376733E+02  0.14352170320E+02  0.24151888398E+02  0.51100000000E-03 0.  1.
        -12    1    3    3    0    0  0.41960102916E+01 -0.82099480521E+01  0.15491326844E+02  0.18027505561E+02  0.00000000000E+00 0.  1.
</event>
<event>
 7    1  0.2812635E-010  0.4778727E+02  0.7816164E-02  0.1312668E+00
        -11   -1    0    0    0    0  0.00000000000E+00  0.00000000000E+00  0.45593999997E+02  0.45594000000E+02  0.51100000000E-03 0.  1.
         11   -1    0    0    0    0 -0.00000000000E+00 -0.00000000000E+00 -0.45593999997E+02  0.45594000000E+02  0.51100000000E-03 0. -1.
    9900012    2    1    2    0    0  0.12749520007E+02  0.17431520701E+02  0.37645919224E+02  0.47787269493E+02  0.19999992926E+02 0.  0.
         12    1    1    2    0    0 -0.12749520007E+02 -0.17431520701E+02 -0.37645919224E+02  0.43400730507E+02  0.00000000000E+00 0. -1.
         11    1    3    3    0    0 -0.38894178402E+01  0.17687739108E+01  0.70403938794E+00  0.43303353224E+01  0.51100000000E-03 0. -1.
        -11    1    3    3    0    0  0.72512878184E+01  0.76840751989E+01  0.17277678338E+02  0.20252021027E+02  0.51100000000E-03 0.  1.
         12    1    3    3    0    0  0.93876500284E+01  0.79786715911E+01  0.19664201498E+02  0.23204913143E+02  0.00000000000E+00 0. -1.
</event>
<event>
 7    1  0.2812635E-010  0.4778727E+02  0.7816164E-02  0.1312668E+00
        -11   -1    0    0    0    0  0.00000000000E+00  0.00000000000E+00  0.45593999997E+02  0.45594000000E+02  0.51100000000E-03 0. -1.
         11   -1    0    0    0    0 -0.00000000000E+00 -0.00000000000E+00 -0.45593999997E+02  0.45594000000E+02  0.51100000000E-03 0.  1.
    9900012    2    1    2    0    0 -0.16135940108E+02 -0.14925002799E+02 -0.37423245965E+02  0.47787267169E+02  0.19999982328E+02 0.  0.
         12    1    1    2    0    0  0.16135940108E+02  0.14925002799E+02  0.37423245965E+02  0.43400732831E+02  0.00000000000E+00 0. -1.
         11    1    3    3    0    0 -0.66402193622E+01 -0.21042008372E+01 -0.13004434923E+01  0.70859951933E+01  0.51100000000E-03 0. -1.
        -11    1    3    3    0    0 -0.70655898744E+01 -0.12838756678E+02 -0.22419457390E+02  0.26784105421E+02  0.51100000000E-03 0.  1.
        -12    1    3    3    0    0 -0.24301308714E+01  0.17954715574E-01 -0.13703345083E+02  0.13917166554E+02  0.00000000000E+00 0.  1.
</event>
<event>
 7    1  0.2812635E-010  0.4778727E+02  0.7816164E-02  0.1312668E+00
        -11   -1    0    0    0    0  0.00000000000E+00  0.00000000000E+00  0.45593999997E+02  0.45594000000E+02  0.51100000000E-03 0. -1.
         11   -1    0    0    0    0 -0.00000000000E+00 -0.00000000000E+00 -0.45593999997E+02  0.45594000000E+02  0.51100000000E-03 0.  1.
    9900012    2    1    2    0    0 -0.97263208181E+01  0.35188624159E+02 -0.23468764418E+02  0.47787268553E+02  0.19999988639E+02 0.  0.
         12    1    1    2    0    0  0.97263208181E+01 -0.35188624159E+02  0.23468764418E+02  0.43400731447E+02  0.00000000000E+00 0. -1.
         11    1    3    3    0    0 -0.33029563800E+01  0.14608347611E+01 -0.17653681001E+00  0.36158988584E+01  0.51100000000E-03 0. -1.
        -11    1    3    3    0    0  0.84189399760E+00  0.29021563933E+01 -0.88724053627E+01  0.93728797291E+01  0.51100000000E-03 0.  1.
        -12    1    3    3    0    0 -0.72652584357E+01  0.30825633005E+02 -0.14419822245E+02  0.34798489965E+02  0.00000000000E+00 0.  1.
</event>
<event>
 7    1  0.2812635E-010  0.4778726E+02  0.7816164E-02  0.1312668E+00
        -11   -1    0    0    0    0  0.00000000000E+00  0.00000000000E+00  0.45593999997E+02  0.45594000000E+02  0.51100000000E-03 0.  1.
         11   -1    0    0    0    0 -0.00000000000E+00 -0.00000000000E+00 -0.45593999997E+02  0.45594000000E+02  0.51100000000E-03 0. -1.
    9900012    2    1    2    0    0 -0.21469793855E+01 -0.37878994736E+02  0.21075972055E+02  0.47787258523E+02  0.19999942910E+02 0.  0.
         12    1    1    2    0    0  0.21469793855E+01  0.37878994736E+02 -0.21075972055E+02  0.43400741477E+02  0.00000000000E+00 0. -1.
         11    1    3    3    0    0  0.53113466137E+01 -0.34805123116E+01  0.67773961518E+01  0.92874898471E+01  0.51100000000E-03 0. -1.
        -11    1    3    3    0    0 -0.70523543282E+01 -0.23515824398E+02  0.75380455993E+01  0.25681741187E+02  0.51100000000E-03 0.  1.
        -12    1    3    3    0    0 -0.40597167088E+00 -0.10882658026E+02  0.67605303044E+01  0.12818027489E+02  0.00000000000E+00 0.  1.
</event>
<event>
 7    1  0.2812635E-010  0.4778727E+02  0.7816164E-02  0.1312668E+00
        -11   -1    0    0    0    0  0.00000000000E+00  0.00000000000E+00  0.45593999997E+02  0.45594000000E+02  0.51100000000E-03 0. -1.
         11   -1    0    0    0    0 -0.00000000000E+00 -0.00000000000E+00 -0.45593999997E+02  0.45594000000E+02  0.51100000000E-03 0.  1.
    9900012    2    1    2    0    0 -0.82900810666E+01 -0.39979969824E+02 -0.14713938293E+02  0.47787269461E+02  0.19999992779E+02 0.  0.
         12    1    1    2    0    0  0.82900810666E+01  0.39979969824E+02  0.14713938293E+02  0.43400730539E+02  0.00000000000E+00 0. -1.
         11    1    3    3    0    0 -0.20370737119E+01 -0.11258118843E+02 -0.35496396236E+01  0.11978933630E+02  0.51100000000E-03 0. -1.
        -11    1    3    3    0    0 -0.10052501729E+02 -0.17654039902E+02 -0.12771828702E+02  0.23996614856E+02  0.51100000000E-03 0.  1.
        -12    1    3    3    0    0  0.37994943747E+01 -0.11067811079E+02  0.16075300323E+01  0.11811720975E+02  0.00000000000E+00 0.  1.
</event>
<event>
 7    1  0.2812635E-010  0.4778727E+02  0.7816164E-02  0.1312668E+00
        -11   -1    0    0    0    0  0.00000000000E+00  0.00000000000E+00  0.45593999997E+02  0.45594000000E+02  0.51100000000E-03 0. -1.
         11   -1    0    0    0    0 -0.00000000000E+00 -0.00000000000E+00 -0.45593999997E+02  0.45594000000E+02  0.51100000000E-03 0.  1.
    9900012    2    1    2    0    0  0.37250693903E+01 -0.58771785239E+01 -0.42839301847E+02  0.47787272447E+02  0.20000006396E+02 0.  0.
         12    1    1    2    0    0 -0.37250693903E+01  0.58771785239E+01  0.42839301847E+02  0.43400727553E+02  0.00000000000E+00 0. -1.
         11    1    3    3    0    0  0.78621739849E+01 -0.56255799279E+01 -0.75821984986E+01  0.12286198095E+02  0.51100000000E-03 0. -1.
        -11    1    3    3    0    0 -0.35520123165E+01 -0.16304253726E+00 -0.30922258047E+02  0.31126024760E+02  0.51100000000E-03 0.  1.
         12    1    3    3    0    0 -0.58509227798E+00 -0.88556058669E-01 -0.43348453013E+01  0.43750495923E+01  0.00000000000E+00 0. -1.
</event>
<event>
 7    1  0.2812635E-010  0.4778726E+02  0.7816164E-02  0.1312668E+00
        -11   -1    0    0    0    0  0.00000000000E+00  0.00000000000E+00  0.45593999997E+02  0.45594000000E+02  0.51100000000E-03 0.  1.
         11   -1    0    0    0    0 -0.00000000000E+00 -0.00000000000E+00 -0.45593999997E+02  0.45594000000E+02  0.51100000000E-03 0. -1.
    9900012    2    1    2    0    0 -0.38264279551E+01 -0.37214961477E+02 -0.22000659049E+02  0.47787263748E+02  0.19999966732E+02 0.  0.
         12    1    1    2    0    0  0.38264279551E+01  0.37214961477E+02  0.22000659049E+02  0.43400736252E+02  0.00000000000E+00 0. -1.
         11    1    3    3    0    0  0.42157516002E+01 -0.98124344963E+01  0.13541743673E+01  0.10765232035E+02  0.51100000000E-03 0. -1.
        -11    1    3    3    0    0 -0.72040696388E+00 -0.18380052729E+01 -0.72161540696E+00  0.21018988162E+01  0.51100000000E-03 0.  1.
         12    1    3    3    0    0 -0.73217725915E+01 -0.25564521708E+02 -0.22633218009E+02  0.34920132896E+02  0.00000000000E+00 0. -1.
</event>
<event>
 7    1  0.2812635E-010  0.4778727E+02  0.7816164E-02  0.1312668E+00
        -11   -1    0    0    0    0  0.00000000000E+00  0.00000000000E+00  0.45593999997E+02  0.45594000000E+02  0.51100000000E-03 0. -1.
         11   -1    0    0    0    0 -0.00000000000E+00 -0.00000000000E+00 -0.45593999997E+02  0.45594000000E+02  0.51100000000E-03 0.  1.
    9900012    2    1    2    0    0  0.28198985308E+02  0.28547690863E+02 -0.16536914361E+02  0.47787274631E+02  0.20000016352E+02 0.  0.
         12    1    1    2    0    0 -0.28198985308E+02 -0.28547690863E+02  0.16536914361E+02  0.43400725369E+02  0.00000000000E+00 0. -1.
         11    1    3    3    0    0  0.14528635721E+02  0.14945869649E+02 -0.48857566825E+01  0.21408663996E+02  0.51100000000E-03 0. -1.
        -11    1    3    3    0    0  0.11977940422E+02  0.22751429827E+01 -0.54453777443E+01  0.13352882512E+02  0.51100000000E-03 0.  1.
        -12    1    3    3    0    0  0.16924091651E+01  0.11326678232E+02 -0.62057799337E+01  0.13025728123E+02  0.00000000000E+00 0.  1.
</event>
<event>
 7    1  0.2812635E-010  0.4778727E+02  0.7816164E-02  0.1312668E+00
        -11   -1    0    0    0    0  0.00000000000E+00  0.00000000000E+00  0.45593999997E+02  0.45594000000E+02  0.51100000000E-03 0.  1.
         11   -1    0    0    0    0 -0.00000000000E+00 -0.00000000000E+00 -0.45593999997E+02  0.45594000000E+02  0.51100000000E-03 0. -1.
    9900012    2    1    2    0    0 -0.80385677549E+01 -0.16189451809E+02  0.39457653989E+02  0.47787269825E+02  0.19999994438E+02 0.  0.
         12    1    1    2    0    0  0.80385677549E+01  0.16189451809E+02 -0.39457653989E+02  0.43400730175E+02  0.00000000000E+00 0. -1.
         11    1    3    3    0    0 -0.14103186357E+01  0.21627717758E-02  0.10214700880E+01  0.17413801232E+01  0.51100000000E-03 0. -1.
        -11    1    3    3    0    0 -0.91645360287E+01 -0.94270832327E+00  0.19759356627E+02  0.21801596138E+02  0.51100000000E-03 0.  1.
        -12    1    3    3    0    0  0.25362869094E+01 -0.15248906258E+02  0.18676827274E+02  0.24244293563E+02  0.00000000000E+00 0.  1.
</event>
<event>
 7    1  0.2812635E-010  0.4778726E+02  0.7816164E-02  0.1312668E+00
        -11   -1    0    0    0    0  0.00000000000E+00  0.00000000000E+00  0.45593999997E+02  0.45594000000E+02  0.51100000000E-03 0. -1.
         11   -1    0    0    0    0 -0.00000000000E+00 -0.00000000000E+00 -0.45593999997E+02  0.45594000000E+02  0.51100000000E-03 0.  1.
    9900012    2    1    2    0    0  0.81819357047E+01 -0.32666405592E+02 -0.27378570942E+02  0.47787259534E+02  0.19999947518E+02 0.  0.
         12    1    1    2    0    0 -0.81819357047E+01  0.32666405592E+02  0.27378570942E+02  0.43400740466E+02  0.00000000000E+00 0. -1.
         11    1    3    3    0    0 -0.13470657408E+01 -0.24975341349E+02 -0.12285585819E+02  0.27866070423E+02  0.51100000000E-03 0. -1.
        -11    1    3    3    0    0  0.39375417495E+01 -0.21389859199E+01 -0.86535840932E+01  0.97449481125E+01  0.51100000000E-03 0.  1.
         12    1    3    3    0    0  0.55914596960E+01 -0.55520783231E+01 -0.64394010298E+01  0.10176240998E+02  0.00000000000E+00 0. -1.
</event>
<event>
 7    1  0.2812635E-010  0.4778727E+02  0.7816164E-02  0.1312668E+00
        -11   -1    0    0    0    0  0.00000000000E+00  0.00000000000E+00  0.45593999997E+02  0.45594000000E+02  0.51100000000E-03 0.  1.
         11   -1    0    0    0    0 -0.00000000000E+00 -0.00000000000E+00 -0.45593999997E+02  0.45594000000E+02  0.51100000000E-03 0. -1.
    9900012    2    1    2    0    0 -0.11266971643E+02  0.81944160380E+01  0.41103895819E+02  0.47787270101E+02  0.19999995700E+02 0.  0.
         12    1    1    2    0    0  0.11266971643E+02 -0.81944160380E+01 -0.41103895819E+02  0.43400729899E+02  0.00000000000E+00 0. -1.
         11    1    3    3    0    0 -0.12257615854E+02  0.23601385287E+01  0.14693125582E+02  0.19279713170E+02  0.51100000000E-03 0.  1.
        -11    1    3    3    0    0 -0.94106977100E+00 -0.37989845305E+00 -0.26551200965E+00  0.10490147935E+01  0.51100000000E-03 0. -1.
         12    1    3    3    0    0  0.19317139817E+01  0.62141759623E+01  0.26676282247E+02  0.27458542138E+02  0.00000000000E+00 0. -1.
</event>
<event>
 7    1  0.2812635E-010  0.4778727E+02  0.7816164E-02  0.1312668E+00
        -11   -1    0    0    0    0  0.00000000000E+00  0.00000000000E+00  0.45593999997E+02  0.45594000000E+02  0.51100000000E-03 0.  1.
         11   -1    0    0    0    0 -0.00000000000E+00 -0.00000000000E+00 -0.45593999997E+02  0.45594000000E+02  0.51100000000E-03 0. -1.
    9900012    2    1    2    0    0  0.39933981950E+02 -0.15527872798E+02  0.69127045873E+01  0.47787271519E+02  0.20000002162E+02 0.  0.
         12    1    1    2    0    0 -0.39933981950E+02  0.15527872798E+02 -0.69127045873E+01  0.43400728481E+02  0.00000000000E+00 0. -1.
         11    1    3    3    0    0  0.56937680649E+01  0.36149503614E+01  0.45032889732E+00  0.67594124944E+01  0.51100000000E-03 0. -1.
        -11    1    3    3    0    0  0.26395888380E+02 -0.11077840430E+02  0.78728961442E+01  0.29689122013E+02  0.51100000000E-03 0.  1.
         12    1    3    3    0    0  0.78443255048E+01 -0.80649827292E+01 -0.14105204543E+01  0.11338737011E+02  0.00000000000E+00 0. -1.
</event>
<event>
 7    1  0.2812635E-010  0.4778727E+02  0.7816164E-02  0.1312668E+00
        -11   -1    0    0    0    0  0.00000000000E+00  0.00000000000E+00  0.45593999997E+02  0.45594000000E+02  0.51100000000E-03 0.  1.
         11   -1    0    0    0    0 -0.00000000000E+00 -0.00000000000E+00 -0.45593999997E+02  0.45594000000E+02  0.51100000000E-03 0. -1.
    9900012    2    1    2    0    0  0.31281620396E+02  0.28795543672E+02  0.87120819231E+01  0.47787268654E+02  0.19999989100E+02 0.  0.
         12    1    1    2    0    0 -0.31281620396E+02 -0.28795543672E+02 -0.87120819231E+01  0.43400731346E+02  0.00000000000E+00 0. -1.
         11    1    3    3    0    0 -0.12836967423E+01  0.18571559827E+01  0.31041734315E+01  0.38383327922E+01  0.51100000000E-03 0. -1.
        -11    1    3    3    0    0  0.20205457474E+02  0.19953580642E+02 -0.71806070547E+00  0.28406363787E+02  0.51100000000E-03 0.  1.
         12    1    3    3    0    0  0.12359859664E+02  0.69848070474E+01  0.63259691971E+01  0.15542572074E+02  0.00000000000E+00 0. -1.
</event>
<event>
 7    1  0.2812635E-010  0.4778727E+02  0.7816164E-02  0.1312668E+00
        -11   -1    0    0    0    0  0.00000000000E+00  0.00000000000E+00  0.45593999997E+02  0.45594000000E+02  0.51100000000E-03 0.  1.
         11   -1    0    0    0    0 -0.00000000000E+00 -0.00000000000E+00 -0.45593999997E+02  0.45594000000E+02  0.51100000000E-03 0. -1.
    9900012    2    1    2    0    0  0.37942903557E+02  0.21226449830E+01 -0.20963147276E+02  0.47787273097E+02  0.20000009358E+02 0.  0.
         12    1    1    2    0    0 -0.37942903557E+02 -0.21226449830E+01  0.20963147276E+02  0.43400726903E+02  0.00000000000E+00 0. -1.
         11    1    3    3    0    0  0.69885646729E+01  0.59452310111E+01 -0.16012045496E+01  0.93139499802E+01  0.51100000000E-03 0. -1.
        -11    1    3    3    0    0  0.18467588853E+02 -0.70154239309E+01 -0.15211410917E+02  0.24933010916E+02  0.51100000000E-03 0.  1.
        -12    1    3    3    0    0  0.12486750031E+02  0.31928379028E+01 -0.41505318085E+01  0.13540312201E+02  0.00000000000E+00 0.  1.
</event>
<event>
 7    1  0.2812635E-010  0.4778727E+02  0.7816164E-02  0.1312668E+00
        -11   -1    0    0    0    0  0.00000000000E+00  0.00000000000E+00  0.45593999997E+02  0.45594000000E+02  0.51100000000E-03 0.  1.
         11   -1    0    0    0    0 -0.00000000000E+00 -0.00000000000E+00 -0.45593999997E+02  0.45594000000E+02  0.51100000000E-03 0. -1.
    9900012    2    1    2    0    0  0.41295290675E+02  0.72405574450E+01  0.11220359163E+02  0.47787272312E+02  0.20000005781E+02 0.  0.
         12    1    1    2    0    0 -0.41295290675E+02 -0.72405574450E+01 -0.11220359163E+02  0.43400727688E+02  0.00000000000E+00 0. -1.
         11    1    3    3    0    0  0.13851599692E+02 -0.56255287810E+01  0.59376508523E+01  0.16086301190E+02  0.51100000000E-03 0.  1.
        -11    1    3    3    0    0  0.13156777240E+02  0.10049455235E+02  0.43048726718E+01  0.17106263965E+02  0.51100000000E-03 0. -1.
        -12    1    3    3    0    0  0.14286913743E+02  0.28166309912E+01  0.97783563926E+00  0.14594707157E+02  0.00000000000E+00 0.  1.
</event>
<event>
 7    1  0.2812635E-010  0.4778727E+02  0.7816164E-02  0.1312668E+00
        -11   -1    0    0    0    0  0.00000000000E+00  0.00000000000E+00  0.45593999997E+02  0.45594000000E+02  0.51100000000E-03 0.  1.
         11   -1    0    0    0    0 -0.00000000000E+00 -0.00000000000E+00 -0.45593999997E+02  0.45594000000E+02  0.51100000000E-03 0. -1.
    9900012    2    1    2    0    0  0.11766973416E+02  0.39458519499E+02  0.13718127977E+02  0.47787268905E+02  0.19999990245E+02 0.  0.
         12    1    1    2    0    0 -0.11766973416E+02 -0.39458519499E+02 -0.13718127977E+02  0.43400731095E+02  0.00000000000E+00 0. -1.
         11    1    3    3    0    0  0.62562933606E+01  0.13336764427E+02  0.56439701710E+01  0.15775452182E+02  0.51100000000E-03 0. -1.
        -11    1    3    3    0    0  0.81035796834E+01  0.16980990545E+02 -0.10421190205E+01  0.18844310969E+02  0.51100000000E-03 0.  1.
        -12    1    3    3    0    0 -0.25928996277E+01  0.91407645268E+01  0.91162768261E+01  0.13167505754E+02  0.00000000000E+00 0.  1.
</event>
<event>
 7    1  0.2812635E-010  0.4778727E+02  0.7816164E-02  0.1312668E+00
        -11   -1    0    0    0    0  0.00000000000E+00  0.00000000000E+00  0.45593999997E+02  0.45594000000E+02  0.51100000000E-03 0. -1.
         11   -1    0    0    0    0 -0.00000000000E+00 -0.00000000000E+00 -0.45593999997E+02  0.45594000000E+02  0.51100000000E-03 0.  1.
    9900012    2    1    2    0    0  0.34481168307E+01 -0.21348270534E+02 -0.37629573248E+02  0.47787274807E+02  0.20000017156E+02 0.  0.
         12    1    1    2    0    0 -0.34481168307E+01  0.21348270534E+02  0.37629573248E+02  0.43400725193E+02  0.00000000000E+00 0. -1.
         11    1    3    3    0    0 -0.47669535025E+01 -0.56815858327E+01 -0.34349456227E+01  0.81733172556E+01  0.51100000000E-03 0. -1.
        -11    1    3    3    0    0  0.76192666922E+01 -0.98303567199E+01 -0.14699564261E+02  0.19255293503E+02  0.51100000000E-03 0.  1.
        -12    1    3    3    0    0  0.59580364098E+00 -0.58363279812E+01 -0.19495063363E+02  0.20358664048E+02  0.00000000000E+00 0.  1.
</event>
<event>
 7    1  0.2812635E-010  0.4778727E+02  0.7816164E-02  0.1312668E+00
        -11   -1    0    0    0    0  0.00000000000E+00  0.00000000000E+00  0.45593999997E+02  0.45594000000E+02  0.51100000000E-03 0.  1.
         11   -1    0    0    0    0 -0.00000000000E+00 -0.00000000000E+00 -0.45593999997E+02  0.45594000000E+02  0.51100000000E-03 0. -1.
    9900012    2    1    2    0    0 -0.20969346832E+01 -0.41769070850E+02  0.11600483022E+02  0.47787267044E+02  0.19999981761E+02 0.  0.
         12    1    1    2    0    0  0.20969346832E+01  0.41769070850E+02 -0.11600483022E+02  0.43400732956E+02  0.00000000000E+00 0. -1.
         11    1    3    3    0    0  0.27640454022E+01 -0.26413629145E+02  0.13763083437E+01  0.26593495003E+02  0.51100000000E-03 0. -1.
        -11    1    3    3    0    0 -0.31453866867E+01 -0.79316751804E+00  0.42832583780E+01  0.53729763367E+01  0.51100000000E-03 0.  1.
        -12    1    3    3    0    0 -0.17155933986E+01 -0.14562274187E+02  0.59409163007E+01  0.15820795704E+02  0.00000000000E+00 0.  1.
</event>
<event>
 7    1  0.2812635E-010  0.4778727E+02  0.7816164E-02  0.1312668E+00
        -11   -1    0    0    0    0  0.00000000000E+00  0.00000000000E+00  0.45593999997E+02  0.45594000000E+02  0.51100000000E-03 0. -1.
         11   -1    0    0    0    0 -0.00000000000E+00 -0.00000000000E+00 -0.45593999997E+02  0.45594000000E+02  0.51100000000E-03 0.  1.
    9900012    2    1    2    0    0  0.29890584853E+02 -0.18839994828E+02  0.25203785939E+02  0.47787270817E+02  0.19999998961E+02 0.  0.
         12    1    1    2    0    0 -0.29890584853E+02  0.18839994828E+02 -0.25203785939E+02  0.43400729183E+02  0.00000000000E+00 0. -1.
         11    1    3    3    0    0  0.69339185854E+01 -0.22114407821E+01  0.15348029878E+02  0.16986221436E+02  0.51100000000E-03 0. -1.
        -11    1    3    3    0    0  0.16936886796E+02 -0.84467517319E+01  0.76039500143E+01  0.20396710648E+02  0.51100000000E-03 0.  1.
         12    1    3    3    0    0  0.60197794721E+01 -0.81818023143E+01  0.22518060469E+01  0.10404338733E+02  0.00000000000E+00 0. -1.
</event>
<event>
 7    1  0.2812635E-010  0.4778725E+02  0.7816164E-02  0.1312668E+00
        -11   -1    0    0    0    0  0.00000000000E+00  0.00000000000E+00  0.45593999997E+02  0.45594000000E+02  0.51100000000E-03 0. -1.
         11   -1    0    0    0    0 -0.00000000000E+00 -0.00000000000E+00 -0.45593999997E+02  0.45594000000E+02  0.51100000000E-03 0.  1.
    9900012    2    1    2    0    0  0.43322045327E+02 -0.22366496923E+01 -0.13501741408E+01  0.47787249046E+02  0.19999899701E+02 0.  0.
         12    1    1    2    0    0 -0.43322045327E+02  0.22366496923E+01  0.13501741408E+01  0.43400750954E+02  0.00000000000E+00 0. -1.
         11    1    3    3    0    0 -0.13660218128E+01 -0.10014765221E+01  0.22426696226E+00  0.17085861842E+01  0.51100000000E-03 0. -1.
        -11    1    3    3    0    0  0.28403034750E+02  0.45118018375E+01 -0.16926873094E+01  0.28808921004E+02  0.51100000000E-03 0.  1.
         12    1    3    3    0    0  0.16285032390E+02 -0.57469750077E+01  0.11824620634E+00  0.17269741858E+02  0.00000000000E+00 0. -1.
</event>
<event>
 7    1  0.2812635E-010  0.4778727E+02  0.7816164E-02  0.1312668E+00
        -11   -1    0    0    0    0  0.00000000000E+00  0.00000000000E+00  0.45593999997E+02  0.45594000000E+02  0.51100000000E-03 0. -1.
         11   -1    0    0    0    0 -0.00000000000E+00 -0.00000000000E+00 -0.45593999997E+02  0.45594000000E+02  0.51100000000E-03 0.  1.
    9900012    2    1    2    0    0 -0.14509060250E+02  0.34680251958E+02 -0.21688488067E+02  0.47787271667E+02  0.20000002840E+02 0.  0.
         12    1    1    2    0    0  0.14509060250E+02 -0.34680251958E+02  0.21688488067E+02  0.43400728333E+02  0.00000000000E+00 0. -1.
         11    1    3    3    0    0 -0.70705503793E+01  0.11945279563E+01 -0.66414559435E+01  0.97738690914E+01  0.51100000000E-03 0. -1.
        -11    1    3    3    0    0 -0.79654305393E+01  0.24594859588E+02 -0.96238821276E+01  0.27585762801E+02  0.51100000000E-03 0.  1.
        -12    1    3    3    0    0  0.52692066896E+00  0.88908644132E+01 -0.54231499954E+01  0.10427639775E+02  0.00000000000E+00 0.  1.
</event>
<event>
 7    1  0.2812635E-010  0.4778727E+02  0.7816164E-02  0.1312668E+00
        -11   -1    0    0    0    0  0.00000000000E+00  0.00000000000E+00  0.45593999997E+02  0.45594000000E+02  0.51100000000E-03 0. -1.
         11   -1    0    0    0    0 -0.00000000000E+00 -0.00000000000E+00 -0.45593999997E+02  0.45594000000E+02  0.51100000000E-03 0.  1.
    9900012    2    1    2    0    0 -0.12659842367E+02 -0.31850908779E+02 -0.26624632426E+02  0.47787273616E+02  0.20000011726E+02 0.  0.
         12    1    1    2    0    0  0.12659842367E+02  0.31850908779E+02  0.26624632426E+02  0.43400726384E+02  0.00000000000E+00 0. -1.
         11    1    3    3    0    0 -0.13346719482E+02 -0.29865430280E+02 -0.15330327448E+02  0.36126137168E+02  0.51100000000E-03 0. -1.
        -11    1    3    3    0    0 -0.47994130449E+00 -0.29323868820E+00 -0.51826098214E+01  0.52130391717E+01  0.51100000000E-03 0.  1.
         12    1    3    3    0    0  0.11668184192E+01 -0.16922398102E+01 -0.61116951566E+01  0.64480972764E+01  0.00000000000E+00 0. -1.
</event>
<event>
 7    1  0.2812635E-010  0.4778733E+02  0.7816164E-02  0.1312667E+00
        -11   -1    0    0    0    0  0.00000000000E+00  0.00000000000E+00  0.45593999997E+02  0.45594000000E+02  0.51100000000E-03 0.  1.
         11   -1    0    0    0    0 -0.00000000000E+00 -0.00000000000E+00 -0.45593999997E+02  0.45594000000E+02  0.51100000000E-03 0. -1.
    9900012    2    1    2    0    0 -0.30163893928E+02  0.10991948247E+02  0.29205045887E+02  0.47787330323E+02  0.20000270271E+02 0.  0.
         12    1    1    2    0    0  0.30163893928E+02 -0.10991948247E+02 -0.29205045887E+02  0.43400669677E+02  0.00000000000E+00 0. -1.
         11    1    3    3    0    0 -0.15190647205E+02  0.32281629126E+01  0.21749038470E+02  0.26724473296E+02  0.51100000000E-03 0. -1.
        -11    1    3    3    0    0 -0.13968262315E+02  0.95478638257E+01  0.45731253506E+01  0.17526766144E+02  0.51100000000E-03 0.  1.
         12    1    3    3    0    0 -0.10049844080E+01 -0.17840784910E+01  0.28828820667E+01  0.35360908830E+01  0.00000000000E+00 0. -1.
</event>
<event>
 7    1  0.2812635E-010  0.4778727E+02  0.7816164E-02  0.1312668E+00
        -11   -1    0    0    0    0  0.00000000000E+00  0.00000000000E+00  0.45593999997E+02  0.45594000000E+02  0.51100000000E-03 0. -1.
         11   -1    0    0    0    0 -0.00000000000E+00 -0.00000000000E+00 -0.45593999997E+02  0.45594000000E+02  0.51100000000E-03 0.  1.
    9900012    2    1    2    0    0  0.38726811727E+01  0.43207787349E+02  0.13088925600E+01  0.47787265596E+02  0.19999975159E+02 0.  0.
         12    1    1    2    0    0 -0.38726811727E+01 -0.43207787349E+02 -0.13088925600E+01  0.43400734404E+02  0.00000000000E+00 0. -1.
         11    1    3    3    0    0 -0.59012387792E+00 -0.90182105594E+00 -0.66109461353E+00  0.12643471665E+01  0.51100000000E-03 0. -1.
        -11    1    3    3    0    0 -0.22812035575E+01  0.29059816353E+02  0.54848799227E+01  0.29660760681E+02  0.51100000000E-03 0.  1.
        -12    1    3    3    0    0  0.67440086081E+01  0.15049792052E+02 -0.35148927492E+01  0.16862157749E+02  0.00000000000E+00 0.  1.
</event>
<event>
 7    1  0.2812635E-010  0.4778727E+02  0.7816164E-02  0.1312668E+00
        -11   -1    0    0    0    0  0.00000000000E+00  0.00000000000E+00  0.45593999997E+02  0.45594000000E+02  0.51100000000E-03 0.  1.
         11   -1    0    0    0    0 -0.00000000000E+00 -0.00000000000E+00 -0.45593999997E+02  0.45594000000E+02  0.51100000000E-03 0. -1.
    9900012    2    1    2    0    0 -0.20413407938E+02  0.34673234356E+01  0.38143069052E+02  0.47787271064E+02  0.20000000091E+02 0.  0.
         12    1    1    2    0    0  0.20413407938E+02 -0.34673234356E+01 -0.38143069052E+02  0.43400728936E+02  0.00000000000E+00 0. -1.
         11    1    3    3    0    0 -0.17367100102E+02  0.35367349941E+01  0.15682868042E+02  0.23665946223E+02  0.51100000000E-03 0. -1.
        -11    1    3    3    0    0  0.19166994405E+01 -0.25752141544E+01  0.91415375985E+01  0.96888169873E+01  0.51100000000E-03 0.  1.
         12    1    3    3    0    0 -0.49630072769E+01  0.25058025959E+01  0.13318663412E+02  0.14432507854E+02  0.00000000000E+00 0. -1.
</event>
<event>
 7    1  0.2812635E-010  0.4778726E+02  0.7816164E-02  0.1312668E+00
        -11   -1    0    0    0    0  0.00000000000E+00  0.00000000000E+00  0.45593999997E+02  0.45594000000E+02  0.51100000000E-03 0.  1.
         11   -1    0    0    0    0 -0.00000000000E+00 -0.00000000000E+00 -0.45593999997E+02  0.45594000000E+02  0.51100000000E-03 0. -1.
    9900012    2    1    2    0    0  0.19517501491E+02  0.29812353925E+02  0.24777300774E+02  0.47787263317E+02  0.19999964767E+02 0.  0.
         12    1    1    2    0    0 -0.19517501491E+02 -0.29812353925E+02 -0.24777300774E+02  0.43400736683E+02  0.00000000000E+00 0. -1.
         11    1    3    3    0    0  0.52999446211E+00  0.98979214136E+01  0.16277566462E+01  0.10044866072E+02  0.51100000000E-03 0. -1.
        -11    1    3    3    0    0  0.18221768050E+02  0.15440921302E+02  0.23064831808E+02  0.33203032213E+02  0.51100000000E-03 0.  1.
        -12    1    3    3    0    0  0.76573897836E+00  0.44735112088E+01  0.84712319813E-01  0.45393650322E+01  0.00000000000E+00 0.  1.
</event>
<event>
 7    1  0.2812635E-010  0.4778727E+02  0.7816164E-02  0.1312668E+00
        -11   -1    0    0    0    0  0.00000000000E+00  0.00000000000E+00  0.45593999997E+02  0.45594000000E+02  0.51100000000E-03 0.  1.
         11   -1    0    0    0    0 -0.00000000000E+00 -0.00000000000E+00 -0.45593999997E+02  0.45594000000E+02  0.51100000000E-03 0. -1.
    9900012    2    1    2    0    0  0.41629773454E+02 -0.17288735366E+01  0.12148938306E+02  0.47787265634E+02  0.19999975331E+02 0.  0.
         12    1    1    2    0    0 -0.41629773454E+02  0.17288735366E+01 -0.12148938306E+02  0.43400734366E+02  0.00000000000E+00 0. -1.
         11    1    3    3    0    0  0.14130160349E+02 -0.51758575303E+01  0.59921769833E+01  0.16197441709E+02  0.51100000000E-03 0. -1.
        -11    1    3    3    0    0  0.10231450701E+02  0.55442146962E+01  0.79637913903E+01  0.14101165683E+02  0.51100000000E-03 0.  1.
        -12    1    3    3    0    0  0.17268162404E+02 -0.20972307025E+01 -0.18070300677E+01  0.17488658242E+02  0.00000000000E+00 0.  1.
</event>
<event>
 7    1  0.2812635E-010  0.4778727E+02  0.7816164E-02  0.1312668E+00
        -11   -1    0    0    0    0  0.00000000000E+00  0.00000000000E+00  0.45593999997E+02  0.45594000000E+02  0.51100000000E-03 0.  1.
         11   -1    0    0    0    0 -0.00000000000E+00 -0.00000000000E+00 -0.45593999997E+02  0.45594000000E+02  0.51100000000E-03 0. -1.
    9900012    2    1    2    0    0  0.40724880674E+02 -0.20552784742E+01  0.14862137235E+02  0.47787271910E+02  0.20000003949E+02 0.  0.
         12    1    1    2    0    0 -0.40724880674E+02  0.20552784742E+01 -0.14862137235E+02  0.43400728090E+02  0.00000000000E+00 0. -1.
         11    1    3    3    0    0  0.11836944051E+02  0.31515536628E+01 -0.19248938653E+01  0.12399627075E+02  0.51100000000E-03 0. -1.
        -11    1    3    3    0    0  0.12012057870E+02 -0.24774017346E+01  0.13231505621E+01  0.12336035882E+02  0.51100000000E-03 0.  1.
         12    1    3    3    0    0  0.16875878753E+02 -0.27294304024E+01  0.15463880538E+02  0.23051608953E+02  0.00000000000E+00 0. -1.
</event>
<event>
 7    1  0.2812635E-010  0.4778728E+02  0.7816164E-02  0.1312668E+00
        -11   -1    0    0    0    0  0.00000000000E+00  0.00000000000E+00  0.45593999997E+02  0.45594000000E+02  0.51100000000E-03 0.  1.
         11   -1    0    0    0    0 -0.00000000000E+00 -0.00000000000E+00 -0.45593999997E+02  0.45594000000E+02  0.51100000000E-03 0. -1.
    9900012    2    1    2    0    0 -0.23737867722E+02  0.15395219751E+00  0.36333352022E+02  0.47787279563E+02  0.20000038841E+02 0.  0.
         12    1    1    2    0    0  0.23737867722E+02 -0.15395219751E+00 -0.36333352022E+02  0.43400720437E+02  0.00000000000E+00 0. -1.
         11    1    3    3    0    0  0.58753033220E+00  0.33220334075E+01  0.13922784622E+01  0.36495941458E+01  0.51100000000E-03 0. -1.
        -11    1    3    3    0    0 -0.17886061070E+02 -0.55634470353E+00  0.31849122864E+02  0.36532004154E+02  0.51100000000E-03 0.  1.
        -12    1    3    3    0    0 -0.64393369843E+01 -0.26117365065E+01  0.30919506957E+01  0.76056812635E+01  0.00000000000E+00 0.  1.
</event>
<event>
 7    1  0.2812635E-010  0.4778727E+02  0.7816164E-02  0.1312668E+00
        -11   -1    0    0    0    0  0.00000000000E+00  0.00000000000E+00  0.45593999997E+02  0.45594000000E+02  0.51100000000E-03 0.  1.
         11   -1    0    0    0    0 -0.00000000000E+00 -0.00000000000E+00 -0.45593999997E+02  0.45594000000E+02  0.51100000000E-03 0. -1.
    9900012    2    1    2    0    0  0.15184021399E+02 -0.15792868530E+02  0.37465376107E+02  0.47787267183E+02  0.19999982392E+02 0.  0.
         12    1    1    2    0    0 -0.15184021399E+02  0.15792868530E+02 -0.37465376107E+02  0.43400732817E+02  0.00000000000E+00 0. -1.
         11    1    3    3    0    0  0.12790187069E+02 -0.13963211155E+02  0.29235809350E+02  0.34832351337E+02  0.51100000000E-03 0. -1.
        -11    1    3    3    0    0  0.31700112971E+01 -0.37910564310E+00  0.10024195591E+02  0.10520322725E+02  0.51100000000E-03 0.  1.
         12    1    3    3    0    0 -0.77617696750E+00 -0.14505517322E+01 -0.17946288345E+01  0.24345931213E+01  0.00000000000E+00 0. -1.
</event>
<event>
 7    1  0.2812635E-010  0.4778728E+02  0.7816164E-02  0.1312668E+00
        -11   -1    0    0    0    0  0.00000000000E+00  0.00000000000E+00  0.45593999997E+02  0.45594000000E+02  0.51100000000E-03 0.  1.
         11   -1    0    0    0    0 -0.00000000000E+00 -0.00000000000E+00 -0.45593999997E+02  0.45594000000E+02  0.51100000000E-03 0. -1.
    9900012    2    1    2    0    0  0.17167128763E+02 -0.35894033195E+01  0.39699222484E+02  0.47787281205E+02  0.20000046325E+02 0.  0.
         12    1    1    2    0    0 -0.17167128763E+02  0.35894033195E+01 -0.39699222484E+02  0.43400718795E+02  0.00000000000E+00 0. -1.
         11    1    3    3    0    0  0.22096278410E+01 -0.27190635238E+01  0.26543600228E+01  0.43956102004E+01  0.51100000000E-03 0. -1.
        -11    1    3    3    0    0 -0.12997110005E+01 -0.37452259851E+01  0.15710807541E+01  0.42643008056E+01  0.51100000000E-03 0.  1.
        -12    1    3    3    0    0  0.16257211922E+02  0.28748861894E+01  0.35473781707E+02  0.39127370199E+02  0.00000000000E+00 0.  1.
</event>
<event>
 7    1  0.2812635E-010  0.4778726E+02  0.7816164E-02  0.1312668E+00
        -11   -1    0    0    0    0  0.00000000000E+00  0.00000000000E+00  0.45593999997E+02  0.45594000000E+02  0.51100000000E-03 0. -1.
         11   -1    0    0    0    0 -0.00000000000E+00 -0.00000000000E+00 -0.45593999997E+02  0.45594000000E+02  0.51100000000E-03 0.  1.
    9900012    2    1    2    0    0 -0.29631768365E+02  0.31531483051E+02  0.33687261206E+01  0.47787257662E+02  0.19999938983E+02 0.  0.
         12    1    1    2    0    0  0.29631768365E+02 -0.31531483051E+02 -0.33687261206E+01  0.43400742338E+02  0.00000000000E+00 0. -1.
         11    1    3    3    0    0 -0.10648930846E+01  0.91657991589E+01 -0.22280243497E+01  0.94926268370E+01  0.51100000000E-03 0. -1.
        -11    1    3    3    0    0 -0.18190178577E+02  0.73513308973E+01  0.24032964351E+01  0.19766145214E+02  0.51100000000E-03 0.  1.
        -12    1    3    3    0    0 -0.10376696703E+02  0.15014352995E+02  0.31934540353E+01  0.18528485610E+02  0.00000000000E+00 0.  1.
</event>
<event>
 7    1  0.2812635E-010  0.4778727E+02  0.7816164E-02  0.1312668E+00
        -11   -1    0    0    0    0  0.00000000000E+00  0.00000000000E+00  0.45593999997E+02  0.45594000000E+02  0.51100000000E-03 0. -1.
         11   -1    0    0    0    0 -0.00000000000E+00 -0.00000000000E+00 -0.45593999997E+02  0.45594000000E+02  0.51100000000E-03 0.  1.
    9900012    2    1    2    0    0 -0.24762421536E+02 -0.21955483338E+02 -0.28078503463E+02  0.47787272752E+02  0.20000007786E+02 0.  0.
         12    1    1    2    0    0  0.24762421536E+02  0.21955483338E+02  0.28078503463E+02  0.43400727248E+02  0.00000000000E+00 0. -1.
         11    1    3    3    0    0 -0.66476822692E+01 -0.51696864040E+01 -0.26586712799E+01  0.88309608936E+01  0.51100000000E-03 0. -1.
        -11    1    3    3    0    0 -0.99146230228E+01 -0.62867380035E+01 -0.18534938330E+01  0.11885211991E+02  0.51100000000E-03 0.  1.
        -12    1    3    3    0    0 -0.82001162443E+01 -0.10499058930E+02 -0.23566338350E+02  0.27071099868E+02  0.00000000000E+00 0.  1.
</event>
<event>
 7    1  0.2812635E-010  0.4778727E+02  0.7816164E-02  0.1312668E+00
        -11   -1    0    0    0    0  0.00000000000E+00  0.00000000000E+00  0.45593999997E+02  0.45594000000E+02  0.51100000000E-03 0.  1.
         11   -1    0    0    0    0 -0.00000000000E+00 -0.00000000000E+00 -0.45593999997E+02  0.45594000000E+02  0.51100000000E-03 0. -1.
    9900012    2    1    2    0    0  0.96696127042E+01  0.40801151818E+02  0.11197670382E+02  0.47787271648E+02  0.20000002751E+02 0.  0.
         12    1    1    2    0    0 -0.96696127042E+01 -0.40801151818E+02 -0.11197670382E+02  0.43400728352E+02  0.00000000000E+00 0. -1.
         11    1    3    3    0    0 -0.76993306764E+00 -0.17267302912E+01  0.24282460118E+00  0.19061370557E+01  0.51100000000E-03 0. -1.
        -11    1    3    3    0    0  0.84449240230E+01  0.17338558701E+02  0.46842853210E+01  0.19846533421E+02  0.51100000000E-03 0.  1.
         12    1    3    3    0    0  0.19946217489E+01  0.25189323408E+02  0.62705604595E+01  0.26034601171E+02  0.00000000000E+00 0. -1.
</event>
<event>
 7    1  0.2812635E-010  0.4778727E+02  0.7816164E-02  0.1312668E+00
        -11   -1    0    0    0    0  0.00000000000E+00  0.00000000000E+00  0.45593999997E+02  0.45594000000E+02  0.51100000000E-03 0.  1.
         11   -1    0    0    0    0 -0.00000000000E+00 -0.00000000000E+00 -0.45593999997E+02  0.45594000000E+02  0.51100000000E-03 0. -1.
    9900012    2    1    2    0    0  0.13919266098E+02  0.31655934294E+02  0.26225541262E+02  0.47787272366E+02  0.20000006023E+02 0.  0.
         12    1    1    2    0    0 -0.13919266098E+02 -0.31655934294E+02 -0.26225541262E+02  0.43400727634E+02  0.00000000000E+00 0. -1.
         11    1    3    3    0    0  0.54089999349E+01  0.74339181979E+01 -0.12677884884E+01  0.92805014940E+01  0.51100000000E-03 0. -1.
        -11    1    3    3    0    0  0.73317217999E+01  0.24544914910E+02  0.26908536462E+02  0.37152070296E+02  0.51100000000E-03 0.  1.
        -12    1    3    3    0    0  0.11785443629E+01 -0.32289881405E+00  0.58479328879E+00  0.13547005758E+01  0.00000000000E+00 0.  1.
</event>
<event>
 7    1  0.2812635E-010  0.4778727E+02  0.7816164E-02  0.1312668E+00
        -11   -1    0    0    0    0  0.00000000000E+00  0.00000000000E+00  0.45593999997E+02  0.45594000000E+02  0.51100000000E-03 0. -1.
         11   -1    0    0    0    0 -0.00000000000E+00 -0.00000000000E+00 -0.45593999997E+02  0.45594000000E+02  0.51100000000E-03 0.  1.
    9900012    2    1    2    0    0  0.96365579821E+00  0.24944248652E+02 -0.35503223358E+02  0.47787273715E+02  0.20000012175E+02 0.  0.
         12    1    1    2    0    0 -0.96365579821E+00 -0.24944248652E+02  0.35503223358E+02  0.43400726285E+02  0.00000000000E+00 0. -1.
         11    1    3    3    0    0  0.66389254214E+01  0.17238974975E+02 -0.19067804445E+02  0.26548799512E+02  0.51100000000E-03 0.  1.
        -11    1    3    3    0    0 -0.65219460115E+01  0.70680560646E+01 -0.17350962357E+02  0.19838071764E+02  0.51100000000E-03 0. -1.
        -12    1    3    3    0    0  0.84667638836E+00  0.63721761208E+00  0.91554344442E+00  0.14004024387E+01  0.00000000000E+00 0.  1.
</event>
<event>
 7    1  0.2812635E-010  0.4778726E+02  0.7816164E-02  0.1312668E+00
        -11   -1    0    0    0    0  0.00000000000E+00  0.00000000000E+00  0.45593999997E+02  0.45594000000E+02  0.51100000000E-03 0.  1.
         11   -1    0    0    0    0 -0.00000000000E+00 -0.00000000000E+00 -0.45593999997E+02  0.45594000000E+02  0.51100000000E-03 0. -1.
    9900012    2    1    2    0    0 -0.40633019635E+02  0.14738402691E+02  0.39193145722E+01  0.47787264692E+02  0.19999971038E+02 0.  0.
         12    1    1    2    0    0  0.40633019635E+02 -0.14738402691E+02 -0.39193145722E+01  0.43400735308E+02  0.00000000000E+00 0. -1.
         11    1    3    3    0    0 -0.22731489548E+02  0.11367427889E+02 -0.26901065391E+01  0.25557302427E+02  0.51100000000E-03 0. -1.
        -11    1    3    3    0    0 -0.70976553355E+01  0.59151515258E+01 -0.13834567984E+00  0.92403933154E+01  0.51100000000E-03 0.  1.
         12    1    3    3    0    0 -0.10803874752E+02 -0.25441767234E+01  0.67477667911E+01  0.12989568950E+02  0.00000000000E+00 0. -1.
</event>
<event>
 7    1  0.2812635E-010  0.4778727E+02  0.7816164E-02  0.1312668E+00
        -11   -1    0    0    0    0  0.00000000000E+00  0.00000000000E+00  0.45593999997E+02  0.45594000000E+02  0.51100000000E-03 0.  1.
         11   -1    0    0    0    0 -0.00000000000E+00 -0.00000000000E+00 -0.45593999997E+02  0.45594000000E+02  0.51100000000E-03 0. -1.
    9900012    2    1    2    0    0  0.15750323808E+02 -0.10135340967E+02  0.39151313845E+02  0.47787271753E+02  0.20000003230E+02 0.  0.
         12    1    1    2    0    0 -0.15750323808E+02  0.10135340967E+02 -0.39151313845E+02  0.43400728247E+02  0.00000000000E+00 0. -1.
         11    1    3    3    0    0  0.37164686055E+00  0.37666471183E+01  0.67630436768E+00  0.38448848828E+01  0.51100000000E-03 0. -1.
        -11    1    3    3    0    0  0.12687070500E+02 -0.91143513562E+01  0.30362621250E+02  0.34145598955E+02  0.51100000000E-03 0.  1.
         12    1    3    3    0    0  0.26916064472E+01 -0.47876367286E+01  0.81123882272E+01  0.97967879155E+01  0.00000000000E+00 0. -1.
</event>
<event>
 7    1  0.2812635E-010  0.4778727E+02  0.7816164E-02  0.1312668E+00
        -11   -1    0    0    0    0  0.00000000000E+00  0.00000000000E+00  0.45593999997E+02  0.45594000000E+02  0.51100000000E-03 0.  1.
         11   -1    0    0    0    0 -0.00000000000E+00 -0.00000000000E+00 -0.45593999997E+02  0.45594000000E+02  0.51100000000E-03 0. -1.
    9900012    2    1    2    0    0  0.16640092108E+02  0.38710019231E+02  0.10405048100E+02  0.47787270972E+02  0.19999999670E+02 0.  0.
         12    1    1    2    0    0 -0.16640092108E+02 -0.38710019231E+02 -0.10405048100E+02  0.43400729028E+02  0.00000000000E+00 0. -1.
         11    1    3    3    0    0  0.12030441280E+02  0.85300708039E+01  0.16298286957E+01  0.14837451504E+02  0.51100000000E-03 0. -1.
        -11    1    3    3    0    0  0.64918608885E+01  0.26407487349E+02  0.58428524053E+01  0.27814359069E+02  0.51100000000E-03 0.  1.
        -12    1    3    3    0    0 -0.18822100606E+01  0.37724610773E+01  0.29323669992E+01  0.51354603990E+01  0.00000000000E+00 0.  1.
</event>
<event>
 7    1  0.2812635E-010  0.4778727E+02  0.7816164E-02  0.1312668E+00
        -11   -1    0    0    0    0  0.00000000000E+00  0.00000000000E+00  0.45593999997E+02  0.45594000000E+02  0.51100000000E-03 0.  1.
         11   -1    0    0    0    0 -0.00000000000E+00 -0.00000000000E+00 -0.45593999997E+02  0.45594000000E+02  0.51100000000E-03 0. -1.
    9900012    2    1    2    0    0 -0.30068194035E+02  0.30957791938E+02 -0.45980484923E+01  0.47787271618E+02  0.20000002614E+02 0.  0.
         12    1    1    2    0    0  0.30068194035E+02 -0.30957791938E+02  0.45980484923E+01  0.43400728382E+02  0.00000000000E+00 0. -1.
         11    1    3    3    0    0 -0.16451590607E+02  0.20871581123E+02 -0.10075653969E+02  0.28421761649E+02  0.51100000000E-03 0.  1.
        -11    1    3    3    0    0 -0.49494411106E+01  0.81334565212E+01  0.41351040390E+01  0.10380229668E+02  0.51100000000E-03 0. -1.
         12    1    3    3    0    0 -0.86671623176E+01  0.19527542933E+01  0.13425014381E+01  0.89852803006E+01  0.00000000000E+00 0. -1.
</event>
<event>
 7    1  0.2812635E-010  0.4778727E+02  0.7816164E-02  0.1312668E+00
        -11   -1    0    0    0    0  0.00000000000E+00  0.00000000000E+00  0.45593999997E+02  0.45594000000E+02  0.51100000000E-03 0. -1.
         11   -1    0    0    0    0 -0.00000000000E+00 -0.00000000000E+00 -0.45593999997E+02  0.45594000000E+02  0.51100000000E-03 0.  1.
    9900012    2    1    2    0    0  0.85597392680E+01  0.35660463556E+02 -0.23209602997E+02  0.47787268800E+02  0.19999989768E+02 0.  0.
         12    1    1    2    0    0 -0.85597392680E+01 -0.35660463556E+02  0.23209602997E+02  0.43400731200E+02  0.00000000000E+00 0. -1.
         11    1    3    3    0    0 -0.17622496023E+01  0.54154138913E+01 -0.28105414279E+01  0.63506987532E+01  0.51100000000E-03 0. -1.
        -11    1    3    3    0    0 -0.59168548940E+00  0.14404743705E+01 -0.81339996815E+01  0.82817274291E+01  0.51100000000E-03 0.  1.
        -12    1    3    3    0    0  0.10913674360E+02  0.28804575294E+02 -0.12265061888E+02  0.33154842618E+02  0.00000000000E+00 0.  1.
</event>
<event>
 7    1  0.2812635E-010  0.4778727E+02  0.7816164E-02  0.1312668E+00
        -11   -1    0    0    0    0  0.00000000000E+00  0.00000000000E+00  0.45593999997E+02  0.45594000000E+02  0.51100000000E-03 0.  1.
         11   -1    0    0    0    0 -0.00000000000E+00 -0.00000000000E+00 -0.45593999997E+02  0.45594000000E+02  0.51100000000E-03 0. -1.
    9900012    2    1    2    0    0  0.38604547335E+02 -0.16061911188E+02 -0.11633019475E+02  0.47787271802E+02  0.20000003456E+02 0.  0.
         12    1    1    2    0    0 -0.38604547335E+02  0.16061911188E+02  0.11633019475E+02  0.43400728198E+02  0.00000000000E+00 0. -1.
         11    1    3    3    0    0  0.31305469581E+02 -0.13394481739E+02 -0.11421508866E+02  0.35915114252E+02  0.51100000000E-03 0. -1.
        -11    1    3    3    0    0  0.86195462554E+01  0.16195553559E+00 -0.92127996373E+00  0.86701536479E+01  0.51100000000E-03 0.  1.
         12    1    3    3    0    0 -0.13204685009E+01 -0.28293849847E+01  0.70976935450E+00  0.32020039023E+01  0.00000000000E+00 0. -1.
</event>
<event>
 7    1  0.2812635E-010  0.4778727E+02  0.7816164E-02  0.1312668E+00
        -11   -1    0    0    0    0  0.00000000000E+00  0.00000000000E+00  0.45593999997E+02  0.45594000000E+02  0.51100000000E-03 0. -1.
         11   -1    0    0    0    0 -0.00000000000E+00 -0.00000000000E+00 -0.45593999997E+02  0.45594000000E+02  0.51100000000E-03 0.  1.
    9900012    2    1    2    0    0 -0.68955532982E+01  0.35100688691E+02  0.24576737559E+02  0.47787273843E+02  0.20000012760E+02 0.  0.
         12    1    1    2    0    0  0.68955532982E+01 -0.35100688691E+02 -0.24576737559E+02  0.43400726157E+02  0.00000000000E+00 0. -1.
         11    1    3    3    0    0 -0.18337137965E+01  0.12301983997E+01 -0.25752659389E+01  0.33923280070E+01  0.51100000000E-03 0. -1.
        -11    1    3    3    0    0 -0.13609586407E+01  0.26427165958E+02  0.23193740561E+02  0.35188022259E+02  0.51100000000E-03 0.  1.
        -12    1    3    3    0    0 -0.37008808611E+01  0.74433243339E+01  0.39582629367E+01  0.92069235775E+01  0.00000000000E+00 0.  1.
</event>
<event>
 7    1  0.2812635E-010  0.4778727E+02  0.7816164E-02  0.1312668E+00
        -11   -1    0    0    0    0  0.00000000000E+00  0.00000000000E+00  0.45593999997E+02  0.45594000000E+02  0.51100000000E-03 0.  1.
         11   -1    0    0    0    0 -0.00000000000E+00 -0.00000000000E+00 -0.45593999997E+02  0.45594000000E+02  0.51100000000E-03 0. -1.
    9900012    2    1    2    0    0  0.19361159357E+02 -0.13562943754E+02  0.36398008874E+02  0.47787274374E+02  0.20000015180E+02 0.  0.
         12    1    1    2    0    0 -0.19361159357E+02  0.13562943754E+02 -0.36398008874E+02  0.43400725626E+02  0.00000000000E+00 0. -1.
         11    1    3    3    0    0  0.38720169055E+01  0.21737078196E+00  0.20471033149E+02  0.20835137711E+02  0.51100000000E-03 0. -1.
        -11    1    3    3    0    0  0.12693754210E+02 -0.94403808078E+01  0.14810854775E+02  0.21670570024E+02  0.51100000000E-03 0.  1.
        -12    1    3    3    0    0  0.27953882410E+01 -0.43399337283E+01  0.11161209491E+01  0.52815666385E+01  0.00000000000E+00 0.  1.
</event>
<event>
 7    1  0.2812635E-010  0.4778727E+02  0.7816164E-02  0.1312668E+00
        -11   -1    0    0    0    0  0.00000000000E+00  0.00000000000E+00  0.45593999997E+02  0.45594000000E+02  0.51100000000E-03 0.  1.
         11   -1    0    0    0    0 -0.00000000000E+00 -0.00000000000E+00 -0.45593999997E+02  0.45594000000E+02  0.51100000000E-03 0. -1.
    9900012    2    1    2    0    0  0.22814683495E+01 -0.66709417015E+01  0.42824251283E+02  0.47787273520E+02  0.20000011287E+02 0.  0.
         12    1    1    2    0    0 -0.22814683495E+01  0.66709417015E+01 -0.42824251283E+02  0.43400726480E+02  0.00000000000E+00 0. -1.
         11    1    3    3    0    0  0.19260257689E+01 -0.11214045299E+02  0.39962098672E+02  0.41550375664E+02  0.51100000000E-03 0. -1.
        -11    1    3    3    0    0 -0.13736611179E+01  0.19744471889E+01  0.16235178301E+01  0.29019298707E+01  0.51100000000E-03 0.  1.
         12    1    3    3    0    0  0.17291036985E+01  0.25686564086E+01  0.12386347810E+01  0.33349679858E+01  0.00000000000E+00 0. -1.
</event>
<event>
 7    1  0.2812635E-010  0.4778727E+02  0.7816164E-02  0.1312668E+00
        -11   -1    0    0    0    0  0.00000000000E+00  0.00000000000E+00  0.45593999997E+02  0.45594000000E+02  0.51100000000E-03 0.  1.
         11   -1    0    0    0    0 -0.00000000000E+00 -0.00000000000E+00 -0.45593999997E+02  0.45594000000E+02  0.51100000000E-03 0. -1.
    9900012    2    1    2    0    0 -0.17761128614E+02 -0.27337606953E+02  0.28649974319E+02  0.47787268762E+02  0.19999989592E+02 0.  0.
         12    1    1    2    0    0  0.17761128614E+02  0.27337606953E+02 -0.28649974319E+02  0.43400731238E+02  0.00000000000E+00 0. -1.
         11    1    3    3    0    0  0.12251823009E+01 -0.40810652825E+01 -0.11222720377E+01  0.44063204943E+01  0.51100000000E-03 0. -1.
        -11    1    3    3    0    0 -0.93158845861E+01 -0.11464709749E+02  0.21342041538E+02  0.25955885894E+02  0.51100000000E-03 0.  1.
         12    1    3    3    0    0 -0.96704263284E+01 -0.11791831922E+02  0.84302048185E+01  0.17425062374E+02  0.00000000000E+00 0. -1.
</event>
<event>
 7    1  0.2812635E-010  0.4778727E+02  0.7816164E-02  0.1312668E+00
        -11   -1    0    0    0    0  0.00000000000E+00  0.00000000000E+00  0.45593999997E+02  0.45594000000E+02  0.51100000000E-03 0.  1.
         11   -1    0    0    0    0 -0.00000000000E+00 -0.00000000000E+00 -0.45593999997E+02  0.45594000000E+02  0.51100000000E-03 0. -1.
    9900012    2    1    2    0    0  0.12922406464E+01  0.29622616113E+02  0.31693123888E+02  0.47787269902E+02  0.19999994792E+02 0.  0.
         12    1    1    2    0    0 -0.12922406464E+01 -0.29622616113E+02 -0.31693123888E+02  0.43400730098E+02  0.00000000000E+00 0. -1.
         11    1    3    3    0    0 -0.45197161873E+00 -0.23812657830E+01  0.15375017128E+01  0.28702990874E+01  0.51100000000E-03 0. -1.
        -11    1    3    3    0    0 -0.36156196744E+01  0.15725531260E+02  0.15305827996E+02  0.22240355437E+02  0.51100000000E-03 0.  1.
         12    1    3    3    0    0  0.53598319395E+01  0.16278350636E+02  0.14849794179E+02  0.22676615378E+02  0.00000000000E+00 0. -1.
</event>
<event>
 7    1  0.2812635E-010  0.4778727E+02  0.7816164E-02  0.1312668E+00
        -11   -1    0    0    0    0  0.00000000000E+00  0.00000000000E+00  0.45593999997E+02  0.45594000000E+02  0.51100000000E-03 0.  1.
         11   -1    0    0    0    0 -0.00000000000E+00 -0.00000000000E+00 -0.45593999997E+02  0.45594000000E+02  0.51100000000E-03 0. -1.
    9900012    2    1    2    0    0  0.72856195556E+01  0.13682550914E+02  0.40538016962E+02  0.47787271078E+02  0.20000000151E+02 0.  0.
         12    1    1    2    0    0 -0.72856195556E+01 -0.13682550914E+02 -0.40538016962E+02  0.43400728922E+02  0.00000000000E+00 0. -1.
         11    1    3    3    0    0  0.79574819871E+01 -0.31557201267E+00  0.12279088744E+02  0.14635474913E+02  0.51100000000E-03 0. -1.
        -11    1    3    3    0    0  0.39346066817E+01  0.21824850445E+01  0.55814203513E+01  0.71691438895E+01  0.51100000000E-03 0.  1.
         12    1    3    3    0    0 -0.46064691132E+01  0.11815637882E+02  0.22677507866E+02  0.25982652275E+02  0.00000000000E+00 0. -1.
</event>
<event>
 7    1  0.2812635E-010  0.4778727E+02  0.7816164E-02  0.1312668E+00
        -11   -1    0    0    0    0  0.00000000000E+00  0.00000000000E+00  0.45593999997E+02  0.45594000000E+02  0.51100000000E-03 0.  1.
         11   -1    0    0    0    0 -0.00000000000E+00 -0.00000000000E+00 -0.45593999997E+02  0.45594000000E+02  0.51100000000E-03 0. -1.
    9900012    2    1    2    0    0  0.43244069106E+02  0.18555081494E+01  0.31829002223E+01  0.47787271007E+02  0.19999999827E+02 0.  0.
         12    1    1    2    0    0 -0.43244069106E+02 -0.18555081494E+01 -0.31829002223E+01  0.43400728993E+02  0.00000000000E+00 0. -1.
         11    1    3    3    0    0  0.30396275702E+02 -0.22641552305E+01  0.61351845997E+01  0.31091807053E+02  0.51100000000E-03 0. -1.
        -11    1    3    3    0    0  0.10672272935E+02 -0.47151414164E+00  0.25775369379E+00  0.10685793018E+02  0.51100000000E-03 0.  1.
         12    1    3    3    0    0  0.21755204690E+01  0.45911775216E+01 -0.32100380712E+01  0.60096709364E+01  0.00000000000E+00 0. -1.
</event>
<event>
 7    1  0.2812635E-010  0.4778727E+02  0.7816164E-02  0.1312668E+00
        -11   -1    0    0    0    0  0.00000000000E+00  0.00000000000E+00  0.45593999997E+02  0.45594000000E+02  0.51100000000E-03 0. -1.
         11   -1    0    0    0    0 -0.00000000000E+00 -0.00000000000E+00 -0.45593999997E+02  0.45594000000E+02  0.51100000000E-03 0.  1.
    9900012    2    1    2    0    0 -0.26573181668E+02 -0.34285170173E+02 -0.14199991755E+01  0.47787271027E+02  0.19999999919E+02 0.  0.
         12    1    1    2    0    0  0.26573181668E+02  0.34285170173E+02  0.14199991755E+01  0.43400728973E+02  0.00000000000E+00 0. -1.
         11    1    3    3    0    0 -0.95908731727E+01 -0.51098461406E+01 -0.16616909771E+01  0.10993479566E+02  0.51100000000E-03 0. -1.
        -11    1    3    3    0    0 -0.15216915830E+01 -0.15232127244E+02 -0.33414592706E+01  0.15668394811E+02  0.51100000000E-03 0.  1.
        -12    1    3    3    0    0 -0.15460616912E+02 -0.13943196789E+02  0.35831510722E+01  0.21125396650E+02  0.00000000000E+00 0.  1.
</event>
<event>
 7    1  0.2812635E-010  0.4778727E+02  0.7816164E-02  0.1312668E+00
        -11   -1    0    0    0    0  0.00000000000E+00  0.00000000000E+00  0.45593999997E+02  0.45594000000E+02  0.51100000000E-03 0. -1.
         11   -1    0    0    0    0 -0.00000000000E+00 -0.00000000000E+00 -0.45593999997E+02  0.45594000000E+02  0.51100000000E-03 0.  1.
    9900012    2    1    2    0    0  0.32807843415E+02 -0.20259589271E+02  0.19920283773E+02  0.47787271290E+02  0.20000001119E+02 0.  0.
         12    1    1    2    0    0 -0.32807843415E+02  0.20259589271E+02 -0.19920283773E+02  0.43400728710E+02  0.00000000000E+00 0. -1.
         11    1    3    3    0    0  0.35876181949E+01 -0.11876066517E+02  0.84476167572E+01  0.15009136863E+02  0.51100000000E-03 0. -1.
        -11    1    3    3    0    0  0.25725742246E+02 -0.87855530829E+01  0.10018877106E+02  0.28972015046E+02  0.51100000000E-03 0.  1.
         12    1    3    3    0    0  0.34944829737E+01  0.40203032940E+00  0.14537899097E+01  0.38061193808E+01  0.00000000000E+00 0. -1.
</event>
<event>
 7    1  0.2983106E-010  0.4778727E+02  0.7816164E-02  0.1312668E+00
        -11   -1    0    0    0    0  0.00000000000E+00  0.00000000000E+00  0.45593999997E+02  0.45594000000E+02  0.51100000000E-03 0. -1.
         11   -1    0    0    0    0 -0.00000000000E+00 -0.00000000000E+00 -0.45593999997E+02  0.45594000000E+02  0.51100000000E-03 0.  1.
    9900012    2    1    2    0    0 -0.25185241376E+02 -0.31251042829E+02 -0.16513599922E+02  0.47787273699E+02  0.20000012102E+02 0.  0.
         12    1    1    2    0    0  0.25185241376E+02  0.31251042829E+02  0.16513599922E+02  0.43400726301E+02  0.00000000000E+00 0. -1.
         11    1    3    3    0    0 -0.92558404640E+00 -0.50051052872E+01  0.38776046741E+01  0.63987188587E+01  0.51100000000E-03 0. -1.
        -11    1    3    3    0    0 -0.18038641257E+02 -0.18179691129E+02 -0.12471951743E+02  0.28485844353E+02  0.51100000000E-03 0.  1.
         12    1    3    3    0    0 -0.62210160728E+01 -0.80662464129E+01 -0.79192528533E+01  0.12902710488E+02  0.00000000000E+00 0. -1.
</event>
<event>
 7    1  0.2812635E-010  0.4778728E+02  0.7816164E-02  0.1312668E+00
        -11   -1    0    0    0    0  0.00000000000E+00  0.00000000000E+00  0.45593999997E+02  0.45594000000E+02  0.51100000000E-03 0.  1.
         11   -1    0    0    0    0 -0.00000000000E+00 -0.00000000000E+00 -0.45593999997E+02  0.45594000000E+02  0.51100000000E-03 0. -1.
    9900012    2    1    2    0    0  0.26996545239E+02  0.68121008064E+01  0.33292701793E+02  0.47787283820E+02  0.20000058250E+02 0.  0.
         12    1    1    2    0    0 -0.26996545239E+02 -0.68121008064E+01 -0.33292701793E+02  0.43400716180E+02  0.00000000000E+00 0. -1.
         11    1    3    3    0    0 -0.18563676935E+01  0.53933898004E+00  0.39161441050E+01  0.43672843348E+01  0.51100000000E-03 0. -1.
        -11    1    3    3    0    0  0.23566671761E+02  0.33454296826E+01  0.15828142998E+02  0.28585136499E+02  0.51100000000E-03 0.  1.
        -12    1    3    3    0    0  0.52862411714E+01  0.29273321437E+01  0.13548414690E+02  0.14834862986E+02  0.00000000000E+00 0.  1.
</event>
<event>
 7    1  0.2812635E-010  0.4778728E+02  0.7816164E-02  0.1312668E+00
        -11   -1    0    0    0    0  0.00000000000E+00  0.00000000000E+00  0.45593999997E+02  0.45594000000E+02  0.51100000000E-03 0.  1.
         11   -1    0    0    0    0 -0.00000000000E+00 -0.00000000000E+00 -0.45593999997E+02  0.45594000000E+02  0.51100000000E-03 0. -1.
    9900012    2    1    2    0    0  0.16753538924E+02  0.39881671606E+02  0.35204805510E+01  0.47787279040E+02  0.20000036453E+02 0.  0.
         12    1    1    2    0    0 -0.16753538924E+02 -0.39881671606E+02 -0.35204805510E+01  0.43400720960E+02  0.00000000000E+00 0. -1.
         11    1    3    3    0    0  0.83801635781E+01  0.16227333379E+02 -0.19850348990E+01  0.18371005797E+02  0.51100000000E-03 0. -1.
        -11    1    3    3    0    0  0.10113506872E+02  0.13028945738E+02  0.80493759563E+01  0.18352899004E+02  0.51100000000E-03 0.  1.
        -12    1    3    3    0    0 -0.17401315260E+01  0.10625392489E+02 -0.25438605062E+01  0.11063374239E+02  0.00000000000E+00 0.  1.
</event>
<event>
 7    1  0.2812635E-010  0.4778727E+02  0.7816164E-02  0.1312668E+00
        -11   -1    0    0    0    0  0.00000000000E+00  0.00000000000E+00  0.45593999997E+02  0.45594000000E+02  0.51100000000E-03 0. -1.
         11   -1    0    0    0    0 -0.00000000000E+00 -0.00000000000E+00 -0.45593999997E+02  0.45594000000E+02  0.51100000000E-03 0.  1.
    9900012    2    1    2    0    0 -0.33258372166E+02  0.18555166002E+02  0.20813695380E+02  0.47787269363E+02  0.19999992333E+02 0.  0.
         12    1    1    2    0    0  0.33258372166E+02 -0.18555166002E+02 -0.20813695380E+02  0.43400730637E+02  0.00000000000E+00 0. -1.
         11    1    3    3    0    0  0.90532433442E+00 -0.20926557678E+01  0.66046350118E+00  0.23738223629E+01  0.51100000000E-03 0. -1.
        -11    1    3    3    0    0 -0.25022593758E+02  0.17867832881E+02  0.12578358087E+02  0.33220546995E+02  0.51100000000E-03 0.  1.
        -12    1    3    3    0    0 -0.91411027424E+01  0.27799888886E+01  0.75748737921E+01  0.12192900005E+02  0.00000000000E+00 0.  1.
</event>
<event>
 7    1  0.2812635E-010  0.4778726E+02  0.7816164E-02  0.1312668E+00
        -11   -1    0    0    0    0  0.00000000000E+00  0.00000000000E+00  0.45593999997E+02  0.45594000000E+02  0.51100000000E-03 0.  1.
         11   -1    0    0    0    0 -0.00000000000E+00 -0.00000000000E+00 -0.45593999997E+02  0.45594000000E+02  0.51100000000E-03 0. -1.
    9900012    2    1    2    0    0  0.31378517655E+02 -0.29688089862E+02  0.41988413665E+01  0.47787259007E+02  0.19999945119E+02 0.  0.
         12    1    1    2    0    0 -0.31378517655E+02  0.29688089862E+02 -0.41988413665E+01  0.43400740993E+02  0.00000000000E+00 0. -1.
         11    1    3    3    0    0  0.21349187451E+01 -0.48336378292E+01 -0.31546134983E+01  0.61541465124E+01  0.51100000000E-03 0. -1.
        -11    1    3    3    0    0  0.27761626905E+02 -0.16499231335E+02  0.41371332107E+01  0.32558385011E+02  0.51100000000E-03 0.  1.
        -12    1    3    3    0    0  0.14819720054E+01 -0.83552206976E+01  0.32163216541E+01  0.90747274843E+01  0.00000000000E+00 0.  1.
</event>
<event>
 7    1  0.2812635E-010  0.4778728E+02  0.7816164E-02  0.1312668E+00
        -11   -1    0    0    0    0  0.00000000000E+00  0.00000000000E+00  0.45593999997E+02  0.45594000000E+02  0.51100000000E-03 0.  1.
         11   -1    0    0    0    0 -0.00000000000E+00 -0.00000000000E+00 -0.45593999997E+02  0.45594000000E+02  0.51100000000E-03 0. -1.
    9900012    2    1    2    0    0 -0.38061249929E+02  0.19948975903E+02  0.60829178225E+01  0.47787282552E+02  0.20000052470E+02 0.  0.
         12    1    1    2    0    0  0.38061249929E+02 -0.19948975903E+02 -0.60829178225E+01  0.43400717448E+02  0.00000000000E+00 0. -1.
         11    1    3    3    0    0 -0.11525805345E+02  0.50434163567E+01 -0.18837017241E+01  0.12721185866E+02  0.51100000000E-03 0. -1.
        -11    1    3    3    0    0 -0.25643382816E+02  0.98115158281E+01  0.25458066457E+01  0.27574083065E+02  0.51100000000E-03 0.  1.
        -12    1    3    3    0    0 -0.89206176742E+00  0.50940437183E+01  0.54208129008E+01  0.74920136216E+01  0.00000000000E+00 0.  1.
</event>
<event>
 7    1  0.2812635E-010  0.4778727E+02  0.7816164E-02  0.1312668E+00
        -11   -1    0    0    0    0  0.00000000000E+00  0.00000000000E+00  0.45593999997E+02  0.45594000000E+02  0.51100000000E-03 0.  1.
         11   -1    0    0    0    0 -0.00000000000E+00 -0.00000000000E+00 -0.45593999997E+02  0.45594000000E+02  0.51100000000E-03 0. -1.
    9900012    2    1    2    0    0 -0.30706954330E+02 -0.60234474698E+01  0.30073647000E+02  0.47787271809E+02  0.20000003484E+02 0.  0.
         12    1    1    2    0    0  0.30706954330E+02  0.60234474698E+01 -0.30073647000E+02  0.43400728191E+02  0.00000000000E+00 0. -1.
         11    1    3    3    0    0 -0.25495303226E+02 -0.98228082177E+01  0.16771745182E+02  0.32059156018E+02  0.51100000000E-03 0. -1.
        -11    1    3    3    0    0 -0.34479861349E+01  0.48529320846E+00  0.24836292387E+01  0.42769770096E+01  0.51100000000E-03 0.  1.
         12    1    3    3    0    0 -0.17636649692E+01  0.33140675394E+01  0.10818272579E+02  0.11451138781E+02  0.00000000000E+00 0. -1.
</event>
<event>
 7    1  0.2812635E-010  0.4778728E+02  0.7816164E-02  0.1312668E+00
        -11   -1    0    0    0    0  0.00000000000E+00  0.00000000000E+00  0.45593999997E+02  0.45594000000E+02  0.51100000000E-03 0. -1.
         11   -1    0    0    0    0 -0.00000000000E+00 -0.00000000000E+00 -0.45593999997E+02  0.45594000000E+02  0.51100000000E-03 0.  1.
    9900012    2    1    2    0    0 -0.29489702326E+02  0.49927381963E+00 -0.31839133514E+02  0.47787282949E+02  0.20000054277E+02 0.  0.
         12    1    1    2    0    0  0.29489702326E+02 -0.49927381963E+00  0.31839133514E+02  0.43400717051E+02  0.00000000000E+00 0. -1.
         11    1    3    3    0    0 -0.56349995597E+01  0.43577326512E+01 -0.16247426613E+02  0.17740403764E+02  0.51100000000E-03 0. -1.
        -11    1    3    3    0    0 -0.14528185113E+02 -0.63739966028E+01 -0.80420133464E+01  0.17786792130E+02  0.51100000000E-03 0.  1.
         12    1    3    3    0    0 -0.93265176540E+01  0.25155377712E+01 -0.75496935546E+01  0.12260087055E+02  0.00000000000E+00 0. -1.
</event>
<event>
 7    1  0.2812635E-010  0.4778727E+02  0.7816164E-02  0.1312668E+00
        -11   -1    0    0    0    0  0.00000000000E+00  0.00000000000E+00  0.45593999997E+02  0.45594000000E+02  0.51100000000E-03 0.  1.
         11   -1    0    0    0    0 -0.00000000000E+00 -0.00000000000E+00 -0.45593999997E+02  0.45594000000E+02  0.51100000000E-03 0. -1.
    9900012    2    1    2    0    0  0.17454618458E+01  0.33541464762E+02  0.27487211258E+02  0.47787270995E+02  0.19999999773E+02 0.  0.
         12    1    1    2    0    0 -0.17454618458E+01 -0.33541464762E+02 -0.27487211258E+02  0.43400729005E+02  0.00000000000E+00 0. -1.
         11    1    3    3    0    0 -0.64071383714E+01  0.26543877029E+02  0.19132248451E+02  0.33341742019E+02  0.51100000000E-03 0. -1.
        -11    1    3    3    0    0  0.64641497232E+01  0.75591967800E+01  0.75769553384E+01  0.12503477119E+02  0.51100000000E-03 0.  1.
         12    1    3    3    0    0  0.16884504940E+01 -0.56160904675E+00  0.77800746906E+00  0.19420518567E+01  0.00000000000E+00 0. -1.
</event>
<event>
 7    1  0.2812635E-010  0.4778727E+02  0.7816164E-02  0.1312668E+00
        -11   -1    0    0    0    0  0.00000000000E+00  0.00000000000E+00  0.45593999997E+02  0.45594000000E+02  0.51100000000E-03 0. -1.
         11   -1    0    0    0    0 -0.00000000000E+00 -0.00000000000E+00 -0.45593999997E+02  0.45594000000E+02  0.51100000000E-03 0.  1.
    9900012    2    1    2    0    0  0.28494926159E+02 -0.32225264949E+02 -0.57614697423E+01  0.47787273607E+02  0.20000011684E+02 0.  0.
         12    1    1    2    0    0 -0.28494926159E+02  0.32225264949E+02  0.57614697423E+01  0.43400726393E+02  0.00000000000E+00 0. -1.
         11    1    3    3    0    0  0.10237201244E+02 -0.19041681744E+02 -0.15679947450E+01  0.21675897691E+02  0.51100000000E-03 0. -1.
        -11    1    3    3    0    0  0.55797032373E+01  0.59586304122E+00  0.26106450863E+01  0.61889909523E+01  0.51100000000E-03 0.  1.
        -12    1    3    3    0    0  0.12678021678E+02 -0.13779446247E+02 -0.68041200836E+01  0.19922384964E+02  0.00000000000E+00 0.  1.
</event>
<event>
 7    1  0.2812635E-010  0.4778727E+02  0.7816164E-02  0.1312668E+00
        -11   -1    0    0    0    0  0.00000000000E+00  0.00000000000E+00  0.45593999997E+02  0.45594000000E+02  0.51100000000E-03 0.  1.
         11   -1    0    0    0    0 -0.00000000000E+00 -0.00000000000E+00 -0.45593999997E+02  0.45594000000E+02  0.51100000000E-03 0. -1.
    9900012    2    1    2    0    0  0.37437220543E+02  0.19157277996E+02 -0.10727368418E+02  0.47787271718E+02  0.20000003071E+02 0.  0.
         12    1    1    2    0    0 -0.37437220543E+02 -0.19157277996E+02  0.10727368418E+02  0.43400728282E+02  0.00000000000E+00 0. -1.
         11    1    3    3    0    0  0.91215919887E+01  0.60529183879E+01 -0.70251836892E+01  0.13007477371E+02  0.51100000000E-03 0. -1.
        -11    1    3    3    0    0  0.27751557228E+02  0.15124975025E+02 -0.54217211000E+01  0.32067255231E+02  0.51100000000E-03 0.  1.
        -12    1    3    3    0    0  0.56407132635E+00 -0.20206154174E+01  0.17195363708E+01  0.27125391162E+01  0.00000000000E+00 0.  1.
</event>
<event>
 7    1  0.2947102E-010  0.4778728E+02  0.7816164E-02  0.1312668E+00
        -11   -1    0    0    0    0  0.00000000000E+00  0.00000000000E+00  0.45593999997E+02  0.45594000000E+02  0.51100000000E-03 0.  1.
         11   -1    0    0    0    0 -0.00000000000E+00 -0.00000000000E+00 -0.45593999997E+02  0.45594000000E+02  0.51100000000E-03 0. -1.
    9900012    2    1    2    0    0  0.34678793067E+02  0.12049123910E+02  0.23147846761E+02  0.47787275522E+02  0.20000020414E+02 0.  0.
         12    1    1    2    0    0 -0.34678793067E+02 -0.12049123910E+02 -0.23147846761E+02  0.43400724478E+02  0.00000000000E+00 0. -1.
         11    1    3    3    0    0  0.16245698405E+02  0.81248032000E+01  0.41438940390E+01  0.18630807867E+02  0.51100000000E-03 0. -1.
        -11    1    3    3    0    0  0.17366666417E+02 -0.68273381064E+00  0.15142524198E+02  0.23051318123E+02  0.51100000000E-03 0.  1.
         12    1    3    3    0    0  0.10664282454E+01  0.46070545207E+01  0.38614285242E+01  0.61051495319E+01  0.00000000000E+00 0. -1.
</event>
<event>
 7    1  0.2812635E-010  0.4778727E+02  0.7816164E-02  0.1312668E+00
        -11   -1    0    0    0    0  0.00000000000E+00  0.00000000000E+00  0.45593999997E+02  0.45594000000E+02  0.51100000000E-03 0.  1.
         11   -1    0    0    0    0 -0.00000000000E+00 -0.00000000000E+00 -0.45593999997E+02  0.45594000000E+02  0.51100000000E-03 0. -1.
    9900012    2    1    2    0    0  0.19320527295E+01 -0.64428976234E+00  0.43352914769E+02  0.47787272402E+02  0.20000006189E+02 0.  0.
         12    1    1    2    0    0 -0.19320527295E+01  0.64428976234E+00 -0.43352914769E+02  0.43400727598E+02  0.00000000000E+00 0. -1.
         11    1    3    3    0    0  0.41587854451E+01  0.32546797930E+00  0.68714819341E+00  0.42277179051E+01  0.51100000000E-03 0. -1.
        -11    1    3    3    0    0  0.20314971917E+01 -0.19812003149E+01  0.30477027399E+02  0.30608844063E+02  0.51100000000E-03 0.  1.
        -12    1    3    3    0    0 -0.42582299073E+01  0.10114425732E+01  0.12188739177E+02  0.12950710434E+02  0.00000000000E+00 0.  1.
</event>
<event>
 7    1  0.2812635E-010  0.4778727E+02  0.7816164E-02  0.1312668E+00
        -11   -1    0    0    0    0  0.00000000000E+00  0.00000000000E+00  0.45593999997E+02  0.45594000000E+02  0.51100000000E-03 0.  1.
         11   -1    0    0    0    0 -0.00000000000E+00 -0.00000000000E+00 -0.45593999997E+02  0.45594000000E+02  0.51100000000E-03 0. -1.
    9900012    2    1    2    0    0  0.21777548836E+02 -0.11512206675E+02  0.35732767341E+02  0.47787271922E+02  0.20000004001E+02 0.  0.
         12    1    1    2    0    0 -0.21777548836E+02  0.11512206675E+02 -0.35732767341E+02  0.43400728078E+02  0.00000000000E+00 0. -1.
         11    1    3    3    0    0  0.99112499770E+01 -0.53836605594E+01  0.57543937961E+01  0.12662137471E+02  0.51100000000E-03 0. -1.
        -11    1    3    3    0    0  0.12430602411E+02 -0.22515701834E+01  0.28039252792E+02  0.30753685014E+02  0.51100000000E-03 0.  1.
        -12    1    3    3    0    0 -0.56430355226E+00 -0.38769759318E+01  0.19391207537E+01  0.43714494361E+01  0.00000000000E+00 0.  1.
</event>
<event>
 7    1  0.2812635E-010  0.4778727E+02  0.7816164E-02  0.1312668E+00
        -11   -1    0    0    0    0  0.00000000000E+00  0.00000000000E+00  0.45593999997E+02  0.45594000000E+02  0.51100000000E-03 0.  1.
         11   -1    0    0    0    0 -0.00000000000E+00 -0.00000000000E+00 -0.45593999997E+02  0.45594000000E+02  0.51100000000E-03 0. -1.
    9900012    2    1    2    0    0  0.43096604115E+01 -0.37581672797E+02  0.21276000249E+02  0.47787268558E+02  0.19999988665E+02 0.  0.
         12    1    1    2    0    0 -0.43096604115E+01  0.37581672797E+02 -0.21276000249E+02  0.43400731442E+02  0.00000000000E+00 0. -1.
         11    1    3    3    0    0  0.94609491594E+01 -0.12819356926E+02  0.13975561729E+02  0.21193437590E+02  0.51100000000E-03 0. -1.
        -11    1    3    3    0    0 -0.40769901921E+01 -0.10415259380E+02  0.32385940278E+01  0.11644224685E+02  0.51100000000E-03 0.  1.
         12    1    3    3    0    0 -0.10742985558E+01 -0.14347056491E+02  0.40618444923E+01  0.14949606283E+02  0.00000000000E+00 0. -1.
</event>
<event>
 7    1  0.2812635E-010  0.4778727E+02  0.7816164E-02  0.1312668E+00
        -11   -1    0    0    0    0  0.00000000000E+00  0.00000000000E+00  0.45593999997E+02  0.45594000000E+02  0.51100000000E-03 0. -1.
         11   -1    0    0    0    0 -0.00000000000E+00 -0.00000000000E+00 -0.45593999997E+02  0.45594000000E+02  0.51100000000E-03 0.  1.
    9900012    2    1    2    0    0  0.34858272079E+01 -0.30850861963E+02 -0.30326502239E+02  0.47787269439E+02  0.19999992678E+02 0.  0.
         12    1    1    2    0    0 -0.34858272079E+01  0.30850861963E+02  0.30326502239E+02  0.43400730561E+02  0.00000000000E+00 0. -1.
         11    1    3    3    0    0 -0.26637153892E+01 -0.47994289369E+01 -0.26250575758E+01  0.60844741212E+01  0.51100000000E-03 0. -1.
        -11    1    3    3    0    0  0.33668202566E+01 -0.10836414839E+02 -0.17358168970E+01  0.11479391350E+02  0.51100000000E-03 0.  1.
        -12    1    3    3    0    0  0.27827223405E+01 -0.15215018187E+02 -0.25965627767E+02  0.30223403968E+02  0.00000000000E+00 0.  1.
</event>
<event>
 7    1  0.2812635E-010  0.4778727E+02  0.7816164E-02  0.1312668E+00
        -11   -1    0    0    0    0  0.00000000000E+00  0.00000000000E+00  0.45593999997E+02  0.45594000000E+02  0.51100000000E-03 0. -1.
         11   -1    0    0    0    0 -0.00000000000E+00 -0.00000000000E+00 -0.45593999997E+02  0.45594000000E+02  0.51100000000E-03 0.  1.
    9900012    2    1    2    0    0  0.28288253071E+02 -0.26735119010E+02 -0.19199771985E+02  0.47787273110E+02  0.20000009420E+02 0.  0.
         12    1    1    2    0    0 -0.28288253071E+02  0.26735119010E+02  0.19199771985E+02  0.43400726890E+02  0.00000000000E+00 0. -1.
         11    1    3    3    0    0  0.20050448515E+02 -0.23671246277E+02 -0.57427873002E+01  0.31548819189E+02  0.51100000000E-03 0. -1.
        -11    1    3    3    0    0  0.63273067250E+01 -0.17264627145E+01 -0.82989671091E+01  0.10577728454E+02  0.51100000000E-03 0.  1.
         12    1    3    3    0    0  0.19104978308E+01 -0.13374100183E+01 -0.51580175752E+01  0.56607254681E+01  0.00000000000E+00 0. -1.
</event>
<event>
 7    1  0.2812635E-010  0.4778727E+02  0.7816164E-02  0.1312668E+00
        -11   -1    0    0    0    0  0.00000000000E+00  0.00000000000E+00  0.45593999997E+02  0.45594000000E+02  0.51100000000E-03 0. -1.
         11   -1    0    0    0    0 -0.00000000000E+00 -0.00000000000E+00 -0.45593999997E+02  0.45594000000E+02  0.51100000000E-03 0.  1.
    9900012    2    1    2    0    0 -0.42578702589E+02 -0.17855201527E+01  0.82152157088E+01  0.47787265380E+02  0.19999974174E+02 0.  0.
         12    1    1    2    0    0  0.42578702589E+02  0.17855201527E+01 -0.82152157088E+01  0.43400734620E+02  0.00000000000E+00 0. -1.
         11    1    3    3    0    0 -0.24661367542E+02 -0.77492710056E+01  0.18148350360E+01  0.25913854917E+02  0.51100000000E-03 0. -1.
        -11    1    3    3    0    0 -0.13715024241E+02  0.23255032366E+01  0.72529137693E+00  0.13929677062E+02  0.51100000000E-03 0.  1.
         12    1    3    3    0    0 -0.42023108066E+01  0.36382476163E+01  0.56750892959E+01  0.79437334012E+01  0.00000000000E+00 0. -1.
</event>
<event>
 7    1  0.2812635E-010  0.4778727E+02  0.7816164E-02  0.1312668E+00
        -11   -1    0    0    0    0  0.00000000000E+00  0.00000000000E+00  0.45593999997E+02  0.45594000000E+02  0.51100000000E-03 0.  1.
         11   -1    0    0    0    0 -0.00000000000E+00 -0.00000000000E+00 -0.45593999997E+02  0.45594000000E+02  0.51100000000E-03 0. -1.
    9900012    2    1    2    0    0 -0.40639883928E+02  0.69960224936E+01  0.13530665367E+02  0.47787269572E+02  0.19999993287E+02 0.  0.
         12    1    1    2    0    0  0.40639883928E+02 -0.69960224936E+01 -0.13530665367E+02  0.43400730428E+02  0.00000000000E+00 0. -1.
         11    1    3    3    0    0 -0.28974955055E+02  0.47854110857E+00  0.11796438168E+02  0.31287904624E+02  0.51100000000E-03 0. -1.
        -11    1    3    3    0    0 -0.89052456805E+01  0.34619737768E+01  0.54101511843E+01  0.10979908887E+02  0.51100000000E-03 0.  1.
         12    1    3    3    0    0 -0.27596831927E+01  0.30555076083E+01 -0.36759239857E+01  0.55194560617E+01  0.00000000000E+00 0. -1.
</event>
<event>
 7    1  0.2812635E-010  0.4778727E+02  0.7816164E-02  0.1312668E+00
        -11   -1    0    0    0    0  0.00000000000E+00  0.00000000000E+00  0.45593999997E+02  0.45594000000E+02  0.51100000000E-03 0. -1.
         11   -1    0    0    0    0 -0.00000000000E+00 -0.00000000000E+00 -0.45593999997E+02  0.45594000000E+02  0.51100000000E-03 0.  1.
    9900012    2    1    2    0    0 -0.31047383979E+02 -0.80861078058E+01 -0.29228375275E+02  0.47787272902E+02  0.20000008470E+02 0.  0.
         12    1    1    2    0    0  0.31047383979E+02  0.80861078058E+01  0.29228375275E+02  0.43400727098E+02  0.00000000000E+00 0. -1.
         11    1    3    3    0    0 -0.21136103764E+02 -0.68129777315E+01 -0.10558690664E+02  0.24589377720E+02  0.51100000000E-03 0. -1.
        -11    1    3    3    0    0 -0.84492610899E+01  0.12153971222E+01 -0.66061727945E+01  0.10793920621E+02  0.51100000000E-03 0.  1.
         12    1    3    3    0    0 -0.14620191253E+01 -0.24885271964E+01 -0.12063511817E+02  0.12403974560E+02  0.00000000000E+00 0. -1.
</event>
<event>
 7    1  0.2812635E-010  0.4778726E+02  0.7816164E-02  0.1312668E+00
        -11   -1    0    0    0    0  0.00000000000E+00  0.00000000000E+00  0.45593999997E+02  0.45594000000E+02  0.51100000000E-03 0. -1.
         11   -1    0    0    0    0 -0.00000000000E+00 -0.00000000000E+00 -0.45593999997E+02  0.45594000000E+02  0.51100000000E-03 0.  1.
    9900012    2    1    2    0    0 -0.34980239122E+02  0.20936198159E+02 -0.14888999307E+02  0.47787264721E+02  0.19999971170E+02 0.  0.
         12    1    1    2    0    0  0.34980239122E+02 -0.20936198159E+02  0.14888999307E+02  0.43400735279E+02  0.00000000000E+00 0. -1.
         11    1    3    3    0    0 -0.91634132541E+01 -0.80559397944E+00 -0.35478549668E+01  0.98592291408E+01  0.51100000000E-03 0. -1.
        -11    1    3    3    0    0 -0.12458515821E+02  0.14865052833E+02 -0.12141447938E+02  0.22882289450E+02  0.51100000000E-03 0.  1.
         12    1    3    3    0    0 -0.13358310047E+02  0.68767393050E+01  0.80030359761E+00  0.15045746130E+02  0.00000000000E+00 0. -1.
</event>
<event>
 7    1  0.2812635E-010  0.4778727E+02  0.7816164E-02  0.1312668E+00
        -11   -1    0    0    0    0  0.00000000000E+00  0.00000000000E+00  0.45593999997E+02  0.45594000000E+02  0.51100000000E-03 0.  1.
         11   -1    0    0    0    0 -0.00000000000E+00 -0.00000000000E+00 -0.45593999997E+02  0.45594000000E+02  0.51100000000E-03 0. -1.
    9900012    2    1    2    0    0  0.15051535996E+02 -0.33032440161E+02  0.23789339026E+02  0.47787268553E+02  0.19999988640E+02 0.  0.
         12    1    1    2    0    0 -0.15051535996E+02  0.33032440161E+02 -0.23789339026E+02  0.43400731447E+02  0.00000000000E+00 0. -1.
         11    1    3    3    0    0  0.25274015981E+01  0.11671756112E+01 -0.58459822322E-01  0.27845063399E+01  0.51100000000E-03 0. -1.
        -11    1    3    3    0    0  0.10944993331E+02 -0.33397261411E+02  0.19241214510E+02  0.40067371824E+02  0.51100000000E-03 0.  1.
        -12    1    3    3    0    0  0.15791410675E+01 -0.80235436143E+00  0.46065843380E+01  0.49353903893E+01  0.00000000000E+00 0.  1.
</event>
<event>
 7    1  0.2812635E-010  0.4778728E+02  0.7816164E-02  0.1312668E+00
        -11   -1    0    0    0    0  0.00000000000E+00  0.00000000000E+00  0.45593999997E+02  0.45594000000E+02  0.51100000000E-03 0. -1.
         11   -1    0    0    0    0 -0.00000000000E+00 -0.00000000000E+00 -0.45593999997E+02  0.45594000000E+02  0.51100000000E-03 0.  1.
    9900012    2    1    2    0    0 -0.34237677689E+02 -0.26379830297E+02  0.39380559460E+01  0.47787282210E+02  0.20000050909E+02 0.  0.
         12    1    1    2    0    0  0.34237677689E+02  0.26379830297E+02 -0.39380559460E+01  0.43400717790E+02  0.00000000000E+00 0. -1.
         11    1    3    3    0    0 -0.86199074524E+01  0.15613559609E+01 -0.27021191112E+01  0.91674470206E+01  0.51100000000E-03 0. -1.
        -11    1    3    3    0    0 -0.87075232766E+01 -0.96663427862E+01  0.38383340557E+01  0.13564363349E+02  0.51100000000E-03 0.  1.
         12    1    3    3    0    0 -0.16910246960E+02 -0.18274843471E+02  0.28018410015E+01  0.25055471841E+02  0.00000000000E+00 0. -1.
</event>
<event>
 7    1  0.2812635E-010  0.4778727E+02  0.7816164E-02  0.1312668E+00
        -11   -1    0    0    0    0  0.00000000000E+00  0.00000000000E+00  0.45593999997E+02  0.45594000000E+02  0.51100000000E-03 0. -1.
         11   -1    0    0    0    0 -0.00000000000E+00 -0.00000000000E+00 -0.45593999997E+02  0.45594000000E+02  0.51100000000E-03 0.  1.
    9900012    2    1    2    0    0  0.62792956048E+01  0.21290197522E+02 -0.37295057161E+02  0.47787270139E+02  0.19999995871E+02 0.  0.
         12    1    1    2    0    0 -0.62792956048E+01 -0.21290197522E+02  0.37295057161E+02  0.43400729861E+02  0.00000000000E+00 0. -1.
         11    1    3    3    0    0 -0.43947885690E+01  0.27820580187E+01 -0.60819237639E+01  0.80027376764E+01  0.51100000000E-03 0.  1.
        -11    1    3    3    0    0  0.90061351593E+01  0.18557412951E+02 -0.21000697720E+02  0.29436666777E+02  0.51100000000E-03 0. -1.
        -12    1    3    3    0    0  0.16679490145E+01 -0.49273447273E-01 -0.10212435677E+02  0.10347865685E+02  0.00000000000E+00 0.  1.
</event>
<event>
 7    1  0.2812635E-010  0.4778727E+02  0.7816164E-02  0.1312668E+00
        -11   -1    0    0    0    0  0.00000000000E+00  0.00000000000E+00  0.45593999997E+02  0.45594000000E+02  0.51100000000E-03 0. -1.
         11   -1    0    0    0    0 -0.00000000000E+00 -0.00000000000E+00 -0.45593999997E+02  0.45594000000E+02  0.51100000000E-03 0.  1.
    9900012    2    1    2    0    0  0.12895934255E+02 -0.38082293913E+02  0.16341874842E+02  0.47787273009E+02  0.20000008956E+02 0.  0.
         12    1    1    2    0    0 -0.12895934255E+02  0.38082293913E+02 -0.16341874842E+02  0.43400726991E+02  0.00000000000E+00 0. -1.
         11    1    3    3    0    0  0.36916850784E+01 -0.14941281503E+02  0.13614078045E+02  0.20547835724E+02  0.51100000000E-03 0. -1.
        -11    1    3    3    0    0  0.10328188853E+02 -0.23561377992E+02  0.32511628341E+01  0.25930292669E+02  0.51100000000E-03 0.  1.
        -12    1    3    3    0    0 -0.11239396756E+01  0.42036558184E+00 -0.52336603674E+00  0.13091446158E+01  0.00000000000E+00 0.  1.
</event>
<event>
 7    1  0.2812635E-010  0.4778728E+02  0.7816164E-02  0.1312668E+00
        -11   -1    0    0    0    0  0.00000000000E+00  0.00000000000E+00  0.45593999997E+02  0.45594000000E+02  0.51100000000E-03 0. -1.
         11   -1    0    0    0    0 -0.00000000000E+00 -0.00000000000E+00 -0.45593999997E+02  0.45594000000E+02  0.51100000000E-03 0.  1.
    9900012    2    1    2    0    0 -0.37149649783E+02 -0.22393218436E+02 -0.14386949629E+01  0.47787279336E+02  0.20000037805E+02 0.  0.
         12    1    1    2    0    0  0.37149649783E+02  0.22393218436E+02  0.14386949629E+01  0.43400720664E+02  0.00000000000E+00 0. -1.
         11    1    3    3    0    0  0.18712812125E+01 -0.18466415202E+01  0.16799156775E+00  0.26343879191E+01  0.51100000000E-03 0. -1.
        -11    1    3    3    0    0 -0.22059435388E+02 -0.12746964653E+02 -0.55430886916E+01  0.26073542721E+02  0.51100000000E-03 0.  1.
        -12    1    3    3    0    0 -0.16961495608E+02 -0.77996122623E+01  0.39364021610E+01  0.19079348696E+02  0.00000000000E+00 0.  1.
</event>
<event>
 7    1  0.2812635E-010  0.4778727E+02  0.7816164E-02  0.1312668E+00
        -11   -1    0    0    0    0  0.00000000000E+00  0.00000000000E+00  0.45593999997E+02  0.45594000000E+02  0.51100000000E-03 0. -1.
         11   -1    0    0    0    0 -0.00000000000E+00 -0.00000000000E+00 -0.45593999997E+02  0.45594000000E+02  0.51100000000E-03 0.  1.
    9900012    2    1    2    0    0 -0.30159744505E+01 -0.22309715836E+02 -0.37105302877E+02  0.47787273921E+02  0.20000013117E+02 0.  0.
         12    1    1    2    0    0  0.30159744505E+01  0.22309715836E+02  0.37105302877E+02  0.43400726079E+02  0.00000000000E+00 0. -1.
         11    1    3    3    0    0  0.32209281410E+01  0.22209584335E+01 -0.35003946792E+01  0.52497426245E+01  0.51100000000E-03 0. -1.
        -11    1    3    3    0    0 -0.44070457011E+00 -0.11128114622E+02 -0.17995089670E+02  0.21162523669E+02  0.51100000000E-03 0.  1.
         12    1    3    3    0    0 -0.57961980214E+01 -0.13402559648E+02 -0.15609818528E+02  0.21375007628E+02  0.00000000000E+00 0. -1.
</event>
<event>
 7    1  0.2812635E-010  0.4778728E+02  0.7816164E-02  0.1312668E+00
        -11   -1    0    0    0    0  0.00000000000E+00  0.00000000000E+00  0.45593999997E+02  0.45594000000E+02  0.51100000000E-03 0.  1.
         11   -1    0    0    0    0 -0.00000000000E+00 -0.00000000000E+00 -0.45593999997E+02  0.45594000000E+02  0.51100000000E-03 0. -1.
    9900012    2    1    2    0    0 -0.26910123448E+02 -0.22949067157E+02  0.25155684037E+02  0.47787275735E+02  0.20000021385E+02 0.  0.
         12    1    1    2    0    0  0.26910123448E+02  0.22949067157E+02 -0.25155684037E+02  0.43400724265E+02  0.00000000000E+00 0. -1.
         11    1    3    3    0    0 -0.11878246354E+01  0.25671671864E+00  0.17749054280E+00  0.12281424966E+01  0.51100000000E-03 0. -1.
        -11    1    3    3    0    0 -0.10063934228E+02  0.11023244833E+01  0.42393754571E+01  0.10975891578E+02  0.51100000000E-03 0.  1.
        -12    1    3    3    0    0 -0.15658364585E+02 -0.24308108359E+02  0.20738818037E+02  0.35583241660E+02  0.00000000000E+00 0.  1.
</event>
<event>
 7    1  0.2812635E-010  0.4778727E+02  0.7816164E-02  0.1312668E+00
        -11   -1    0    0    0    0  0.00000000000E+00  0.00000000000E+00  0.45593999997E+02  0.45594000000E+02  0.51100000000E-03 0.  1.
         11   -1    0    0    0    0 -0.00000000000E+00 -0.00000000000E+00 -0.45593999997E+02  0.45594000000E+02  0.51100000000E-03 0. -1.
    9900012    2    1    2    0    0 -0.30285614767E+02  0.26987851196E+02  0.15429226329E+02  0.47787267298E+02  0.19999982917E+02 0.  0.
         12    1    1    2    0    0  0.30285614767E+02 -0.26987851196E+02 -0.15429226329E+02  0.43400732702E+02  0.00000000000E+00 0. -1.
         11    1    3    3    0    0 -0.45132143265E+01  0.97350835101E+00  0.84162300585E+01  0.95994661687E+01  0.51100000000E-03 0. -1.
        -11    1    3    3    0    0 -0.14089366574E+02  0.18746523817E+02  0.68382687177E+01  0.24427532110E+02  0.51100000000E-03 0.  1.
         12    1    3    3    0    0 -0.11683033867E+02  0.72678190277E+01  0.17472755279E+00  0.13760269019E+02  0.00000000000E+00 0. -1.
</event>
<event>
 7    1  0.2812635E-010  0.4778727E+02  0.7816164E-02  0.1312668E+00
        -11   -1    0    0    0    0  0.00000000000E+00  0.00000000000E+00  0.45593999997E+02  0.45594000000E+02  0.51100000000E-03 0.  1.
         11   -1    0    0    0    0 -0.00000000000E+00 -0.00000000000E+00 -0.45593999997E+02  0.45594000000E+02  0.51100000000E-03 0. -1.
    9900012    2    1    2    0    0  0.99112837349E+01  0.57575551274E+01  0.41859768213E+02  0.47787272113E+02  0.20000004872E+02 0.  0.
         12    1    1    2    0    0 -0.99112837349E+01 -0.57575551274E+01 -0.41859768213E+02  0.43400727887E+02  0.00000000000E+00 0. -1.
         11    1    3    3    0    0  0.90736774759E+01 -0.58387606979E+00  0.22867122260E+02  0.24608490708E+02  0.51100000000E-03 0.  1.
        -11    1    3    3    0    0 -0.52321280314E+01  0.17170135236E+01  0.97057801494E+01  0.11159097981E+02  0.51100000000E-03 0. -1.
        -12    1    3    3    0    0  0.60697342904E+01  0.46244176736E+01  0.92868658031E+01  0.12019683424E+02  0.00000000000E+00 0.  1.
</event>
<event>
 7    1  0.2812635E-010  0.4778722E+02  0.7816164E-02  0.1312668E+00
        -11   -1    0    0    0    0  0.00000000000E+00  0.00000000000E+00  0.45593999997E+02  0.45594000000E+02  0.51100000000E-03 0.  1.
         11   -1    0    0    0    0 -0.00000000000E+00 -0.00000000000E+00 -0.45593999997E+02  0.45594000000E+02  0.51100000000E-03 0. -1.
    9900012    2    1    2    0    0 -0.16878526494E+02 -0.30244049512E+02  0.26154168223E+02  0.47787220019E+02  0.19999767355E+02 0.  0.
         12    1    1    2    0    0  0.16878526494E+02  0.30244049512E+02 -0.26154168223E+02  0.43400779981E+02  0.00000000000E+00 0. -1.
         11    1    3    3    0    0 -0.95405544903E+01 -0.15164714487E+02  0.40153649097E+01  0.18360661782E+02  0.51100000000E-03 0. -1.
        -11    1    3    3    0    0 -0.58773468834E+00 -0.11852207737E+02  0.14449896489E+02  0.18698122074E+02  0.51100000000E-03 0.  1.
         12    1    3    3    0    0 -0.67502373155E+01 -0.32271272872E+01  0.76889068243E+01  0.10728436163E+02  0.00000000000E+00 0. -1.
</event>
<event>
 7    1  0.2812635E-010  0.4778727E+02  0.7816164E-02  0.1312668E+00
        -11   -1    0    0    0    0  0.00000000000E+00  0.00000000000E+00  0.45593999997E+02  0.45594000000E+02  0.51100000000E-03 0.  1.
         11   -1    0    0    0    0 -0.00000000000E+00 -0.00000000000E+00 -0.45593999997E+02  0.45594000000E+02  0.51100000000E-03 0. -1.
    9900012    2    1    2    0    0  0.15365597363E+02  0.27824095917E+02  0.29552357675E+02  0.47787265674E+02  0.19999975514E+02 0.  0.
         12    1    1    2    0    0 -0.15365597363E+02 -0.27824095917E+02 -0.29552357675E+02  0.43400734326E+02  0.00000000000E+00 0. -1.
         11    1    3    3    0    0  0.13187180477E+02  0.14123396803E+02  0.77826629326E+01  0.20831272376E+02  0.51100000000E-03 0. -1.
        -11    1    3    3    0    0 -0.98807113054E+00  0.48723714552E+01  0.25896590301E+01  0.56055884892E+01  0.51100000000E-03 0.  1.
         12    1    3    3    0    0  0.31664880158E+01  0.88283276587E+01  0.19180035712E+02  0.21350404809E+02  0.00000000000E+00 0. -1.
</event>
<event>
 7    1  0.2812635E-010  0.4778727E+02  0.7816164E-02  0.1312668E+00
        -11   -1    0    0    0    0  0.00000000000E+00  0.00000000000E+00  0.45593999997E+02  0.45594000000E+02  0.51100000000E-03 0.  1.
         11   -1    0    0    0    0 -0.00000000000E+00 -0.00000000000E+00 -0.45593999997E+02  0.45594000000E+02  0.51100000000E-03 0. -1.
    9900012    2    1    2    0    0 -0.33373930489E+02  0.83710465398E+01  0.26452410675E+02  0.47787266285E+02  0.19999978302E+02 0.  0.
         12    1    1    2    0    0  0.33373930489E+02 -0.83710465398E+01 -0.26452410675E+02  0.43400733715E+02  0.00000000000E+00 0. -1.
         11    1    3    3    0    0 -0.23308357895E+02  0.13073466565E+02  0.23887326416E+02  0.35844099087E+02  0.51100000000E-03 0.  1.
        -11    1    3    3    0    0 -0.71225251781E+01 -0.18650100253E+01  0.54386116085E+00  0.73827103784E+01  0.51100000000E-03 0. -1.
        -12    1    3    3    0    0 -0.29430474155E+01 -0.28374099995E+01  0.20212230982E+01  0.45604568201E+01  0.00000000000E+00 0.  1.
</event>
<event>
 7    1  0.2812635E-010  0.4778727E+02  0.7816164E-02  0.1312668E+00
        -11   -1    0    0    0    0  0.00000000000E+00  0.00000000000E+00  0.45593999997E+02  0.45594000000E+02  0.51100000000E-03 0. -1.
         11   -1    0    0    0    0 -0.00000000000E+00 -0.00000000000E+00 -0.45593999997E+02  0.45594000000E+02  0.51100000000E-03 0.  1.
    9900012    2    1    2    0    0  0.71797607751E+00  0.40166450369E+02 -0.16424493865E+02  0.47787271624E+02  0.20000002640E+02 0.  0.
         12    1    1    2    0    0 -0.71797607751E+00 -0.40166450369E+02  0.16424493865E+02  0.43400728376E+02  0.00000000000E+00 0. -1.
         11    1    3    3    0    0 -0.69513191311E-01  0.17841668039E+02  0.11976947368E+01  0.17881958043E+02  0.51100000000E-03 0. -1.
        -11    1    3    3    0    0  0.36177115021E+01  0.10339950340E+02 -0.12353880781E+02  0.16511231940E+02  0.51100000000E-03 0.  1.
        -12    1    3    3    0    0 -0.28302222333E+01  0.11984831990E+02 -0.52683078203E+01  0.13394081641E+02  0.00000000000E+00 0.  1.
</event>
<event>
 7    1  0.2812635E-010  0.4778727E+02  0.7816164E-02  0.1312668E+00
        -11   -1    0    0    0    0  0.00000000000E+00  0.00000000000E+00  0.45593999997E+02  0.45594000000E+02  0.51100000000E-03 0.  1.
         11   -1    0    0    0    0 -0.00000000000E+00 -0.00000000000E+00 -0.45593999997E+02  0.45594000000E+02  0.51100000000E-03 0. -1.
    9900012    2    1    2    0    0 -0.15191416780E+02  0.22328890508E+02  0.33974471611E+02  0.47787271707E+02  0.20000003022E+02 0.  0.
         12    1    1    2    0    0  0.15191416780E+02 -0.22328890508E+02 -0.33974471611E+02  0.43400728293E+02  0.00000000000E+00 0. -1.
         11    1    3    3    0    0 -0.90971272509E+01  0.17702963247E+02  0.31482651866E+02  0.37246610593E+02  0.51100000000E-03 0. -1.
        -11    1    3    3    0    0 -0.30144369258E+01  0.58901235253E+01  0.44291971006E+00  0.66314827341E+01  0.51100000000E-03 0.  1.
         12    1    3    3    0    0 -0.30798526030E+01 -0.12641962639E+01  0.20489000353E+01  0.39091783798E+01  0.00000000000E+00 0. -1.
</event>
<event>
 7    1  0.2812635E-010  0.4778729E+02  0.7816164E-02  0.1312668E+00
        -11   -1    0    0    0    0  0.00000000000E+00  0.00000000000E+00  0.45593999997E+02  0.45594000000E+02  0.51100000000E-03 0.  1.
         11   -1    0    0    0    0 -0.00000000000E+00 -0.00000000000E+00 -0.45593999997E+02  0.45594000000E+02  0.51100000000E-03 0. -1.
    9900012    2    1    2    0    0 -0.12458783389E+02 -0.17541600671E+02  0.37692081275E+02  0.47787285392E+02  0.20000065417E+02 0.  0.
         12    1    1    2    0    0  0.12458783389E+02  0.17541600671E+02 -0.37692081275E+02  0.43400714608E+02  0.00000000000E+00 0. -1.
         11    1    3    3    0    0 -0.95347647634E+01 -0.13104547074E+02  0.16111820419E+02  0.22852388291E+02  0.51100000000E-03 0.  1.
        -11    1    3    3    0    0  0.20719628168E+01  0.27765130450E+01  0.40381695232E+01  0.53206078564E+01  0.51100000000E-03 0. -1.
         12    1    3    3    0    0 -0.49959814427E+01 -0.72135666410E+01  0.17542091333E+02  0.19614289245E+02  0.00000000000E+00 0. -1.
</event>
<event>
 7    1  0.2812635E-010  0.4778728E+02  0.7816164E-02  0.1312668E+00
        -11   -1    0    0    0    0  0.00000000000E+00  0.00000000000E+00  0.45593999997E+02  0.45594000000E+02  0.51100000000E-03 0.  1.
         11   -1    0    0    0    0 -0.00000000000E+00 -0.00000000000E+00 -0.45593999997E+02  0.45594000000E+02  0.51100000000E-03 0. -1.
    9900012    2    1    2    0    0  0.27140990143E+02 -0.33671651998E+02  0.36344759851E+01  0.47787275237E+02  0.20000019117E+02 0.  0.
         12    1    1    2    0    0 -0.27140990143E+02  0.33671651998E+02 -0.36344759851E+01  0.43400724763E+02  0.00000000000E+00 0. -1.
         11    1    3    3    0    0  0.59554999463E+01 -0.33178457784E+01 -0.59343339953E+01  0.90383848362E+01  0.51100000000E-03 0. -1.
        -11    1    3    3    0    0  0.59520263152E+01 -0.13800256309E+02  0.31612591558E+01  0.15357970281E+02  0.51100000000E-03 0.  1.
         12    1    3    3    0    0  0.15233463882E+02 -0.16553549911E+02  0.64075508246E+01  0.23390920120E+02  0.00000000000E+00 0. -1.
</event>
<event>
 7    1  0.2812635E-010  0.4778727E+02  0.7816164E-02  0.1312668E+00
        -11   -1    0    0    0    0  0.00000000000E+00  0.00000000000E+00  0.45593999997E+02  0.45594000000E+02  0.51100000000E-03 0.  1.
         11   -1    0    0    0    0 -0.00000000000E+00 -0.00000000000E+00 -0.45593999997E+02  0.45594000000E+02  0.51100000000E-03 0. -1.
    9900012    2    1    2    0    0  0.19587037988E+02  0.30744169982E+02  0.23553499506E+02  0.47787269775E+02  0.19999994214E+02 0.  0.
         12    1    1    2    0    0 -0.19587037988E+02 -0.30744169982E+02 -0.23553499506E+02  0.43400730225E+02  0.00000000000E+00 0. -1.
         11    1    3    3    0    0  0.62680536950E+01  0.10373571428E+02  0.11445222544E+02  0.16670110997E+02  0.51100000000E-03 0. -1.
        -11    1    3    3    0    0  0.12862155988E+02  0.10173172775E+02  0.16156045530E+01  0.16478430729E+02  0.51100000000E-03 0.  1.
        -12    1    3    3    0    0  0.45682830514E+00  0.10197425779E+02  0.10492672409E+02  0.14638728049E+02  0.00000000000E+00 0.  1.
</event>
<event>
 7    1  0.2812635E-010  0.4778727E+02  0.7816164E-02  0.1312668E+00
        -11   -1    0    0    0    0  0.00000000000E+00  0.00000000000E+00  0.45593999997E+02  0.45594000000E+02  0.51100000000E-03 0.  1.
         11   -1    0    0    0    0 -0.00000000000E+00 -0.00000000000E+00 -0.45593999997E+02  0.45594000000E+02  0.51100000000E-03 0. -1.
    9900012    2    1    2    0    0 -0.35654267076E+02  0.20771578474E+02 -0.13451322776E+02  0.47787270543E+02  0.19999997712E+02 0.  0.
         12    1    1    2    0    0  0.35654267076E+02 -0.20771578474E+02  0.13451322776E+02  0.43400729457E+02  0.00000000000E+00 0. -1.
         11    1    3    3    0    0 -0.16984781017E+01 -0.24705254938E+01 -0.27016632154E+01  0.40357537670E+01  0.51100000000E-03 0. -1.
        -11    1    3    3    0    0 -0.21820668136E+02  0.17658277819E+02 -0.28073684679E+01  0.28210594666E+02  0.51100000000E-03 0.  1.
         12    1    3    3    0    0 -0.12135120839E+02  0.55838261484E+01 -0.79422910922E+01  0.15540922110E+02  0.00000000000E+00 0. -1.
</event>
<event>
 7    1  0.2812635E-010  0.4778727E+02  0.7816164E-02  0.1312668E+00
        -11   -1    0    0    0    0  0.00000000000E+00  0.00000000000E+00  0.45593999997E+02  0.45594000000E+02  0.51100000000E-03 0. -1.
         11   -1    0    0    0    0 -0.00000000000E+00 -0.00000000000E+00 -0.45593999997E+02  0.45594000000E+02  0.51100000000E-03 0.  1.
    9900012    2    1    2    0    0  0.39972980893E+02  0.14112744935E+02 -0.93066969410E+01  0.47787269833E+02  0.19999994478E+02 0.  0.
         12    1    1    2    0    0 -0.39972980893E+02 -0.14112744935E+02  0.93066969410E+01  0.43400730167E+02  0.00000000000E+00 0. -1.
         11    1    3    3    0    0  0.54678284453E+01  0.47729068957E+01 -0.75676188537E+01  0.10485544503E+02  0.51100000000E-03 0. -1.
        -11    1    3    3    0    0  0.23803072626E+02  0.12827112364E+01 -0.18019017792E+01  0.23905615759E+02  0.51100000000E-03 0.  1.
         12    1    3    3    0    0  0.10702079821E+02  0.80571268033E+01  0.62823691872E-01  0.13396109571E+02  0.00000000000E+00 0. -1.
</event>
<event>
 7    1  0.2812635E-010  0.4778727E+02  0.7816164E-02  0.1312668E+00
        -11   -1    0    0    0    0  0.00000000000E+00  0.00000000000E+00  0.45593999997E+02  0.45594000000E+02  0.51100000000E-03 0.  1.
         11   -1    0    0    0    0 -0.00000000000E+00 -0.00000000000E+00 -0.45593999997E+02  0.45594000000E+02  0.51100000000E-03 0. -1.
    9900012    2    1    2    0    0 -0.29322876743E+02  0.17266753458E+02  0.26937917578E+02  0.47787270987E+02  0.19999999738E+02 0.  0.
         12    1    1    2    0    0  0.29322876743E+02 -0.17266753458E+02 -0.26937917578E+02  0.43400729013E+02  0.00000000000E+00 0. -1.
         11    1    3    3    0    0 -0.21811827763E+02  0.15244260974E+02  0.11622731512E+02  0.29038443675E+02  0.51100000000E-03 0. -1.
        -11    1    3    3    0    0 -0.85505665612E+01  0.15656338518E+01  0.97217924660E+01  0.13041343753E+02  0.51100000000E-03 0.  1.
         12    1    3    3    0    0  0.10395175813E+01  0.45685863177E+00  0.55933935997E+01  0.57074835587E+01  0.00000000000E+00 0. -1.
</event>
<event>
 7    1  0.2812635E-010  0.4778727E+02  0.7816164E-02  0.1312668E+00
        -11   -1    0    0    0    0  0.00000000000E+00  0.00000000000E+00  0.45593999997E+02  0.45594000000E+02  0.51100000000E-03 0. -1.
         11   -1    0    0    0    0 -0.00000000000E+00 -0.00000000000E+00 -0.45593999997E+02  0.45594000000E+02  0.51100000000E-03 0.  1.
    9900012    2    1    2    0    0 -0.38763444494E+02 -0.19496373894E+02  0.95404653912E+00  0.47787269259E+02  0.19999991861E+02 0.  0.
         12    1    1    2    0    0  0.38763444494E+02  0.19496373894E+02 -0.95404653912E+00  0.43400730741E+02  0.00000000000E+00 0. -1.
         11    1    3    3    0    0  0.48484026241E-01 -0.21433386363E+01 -0.73857591421E+00  0.22675418084E+01  0.51100000000E-03 0. -1.
        -11    1    3    3    0    0 -0.70873485814E+01 -0.37461973881E+01  0.69405883996E+01  0.10603597143E+02  0.51100000000E-03 0.  1.
        -12    1    3    3    0    0 -0.31724579939E+02 -0.13606837869E+02 -0.52479659463E+01  0.34916130308E+02  0.00000000000E+00 0.  1.
</event>
<event>
 7    1  0.2812635E-010  0.4778728E+02  0.7816164E-02  0.1312668E+00
        -11   -1    0    0    0    0  0.00000000000E+00  0.00000000000E+00  0.45593999997E+02  0.45594000000E+02  0.51100000000E-03 0.  1.
         11   -1    0    0    0    0 -0.00000000000E+00 -0.00000000000E+00 -0.45593999997E+02  0.45594000000E+02  0.51100000000E-03 0. -1.
    9900012    2    1    2    0    0  0.95202552471E+01 -0.41482250799E+02  0.84976415117E+01  0.47787282234E+02  0.20000051017E+02 0.  0.
         12    1    1    2    0    0 -0.95202552471E+01  0.41482250799E+02 -0.84976415117E+01  0.43400717766E+02  0.00000000000E+00 0. -1.
         11    1    3    3    0    0 -0.22052743362E+01 -0.12505731674E+02  0.79954161914E+01  0.15006106754E+02  0.51100000000E-03 0. -1.
        -11    1    3    3    0    0  0.41255486354E+01 -0.16730788913E+02  0.45283066419E+01  0.17816986572E+02  0.51100000000E-03 0.  1.
         12    1    3    3    0    0  0.75999809479E+01 -0.12245730212E+02 -0.40260813216E+01  0.14964188907E+02  0.00000000000E+00 0. -1.
</event>
<event>
 7    1  0.2812635E-010  0.4778728E+02  0.7816164E-02  0.1312668E+00
        -11   -1    0    0    0    0  0.00000000000E+00  0.00000000000E+00  0.45593999997E+02  0.45594000000E+02  0.51100000000E-03 0.  1.
         11   -1    0    0    0    0 -0.00000000000E+00 -0.00000000000E+00 -0.45593999997E+02  0.45594000000E+02  0.51100000000E-03 0. -1.
    9900012    2    1    2    0    0 -0.37939847564E+02  0.11318182952E+02  0.17778905531E+02  0.47787276729E+02  0.20000025920E+02 0.  0.
         12    1    1    2    0    0  0.37939847564E+02 -0.11318182952E+02 -0.17778905531E+02  0.43400723271E+02  0.00000000000E+00 0. -1.
         11    1    3    3    0    0 -0.64774525700E+01 -0.49583113718E+01  0.15654702355E+01  0.83061989367E+01  0.51100000000E-03 0. -1.
        -11    1    3    3    0    0 -0.26267401022E+02  0.14452809174E+02  0.11108431168E+02  0.31972758604E+02  0.51100000000E-03 0.  1.
         12    1    3    3    0    0 -0.51949939720E+01  0.18236851501E+01  0.51050041272E+01  0.75083191884E+01  0.00000000000E+00 0. -1.
</event>
<event>
 7    1  0.2812635E-010  0.4778728E+02  0.7816164E-02  0.1312668E+00
        -11   -1    0    0    0    0  0.00000000000E+00  0.00000000000E+00  0.45593999997E+02  0.45594000000E+02  0.51100000000E-03 0.  1.
         11   -1    0    0    0    0 -0.00000000000E+00 -0.00000000000E+00 -0.45593999997E+02  0.45594000000E+02  0.51100000000E-03 0. -1.
    9900012    2    1    2    0    0 -0.18718078409E+02  0.84119277957E+01  0.38242593265E+02  0.47787275027E+02  0.20000018157E+02 0.  0.
         12    1    1    2    0    0  0.18718078409E+02 -0.84119277957E+01 -0.38242593265E+02  0.43400724973E+02  0.00000000000E+00 0. -1.
         11    1    3    3    0    0 -0.10120659686E+02  0.48035140733E+01  0.28459781474E+02  0.30585301400E+02  0.51100000000E-03 0. -1.
        -11    1    3    3    0    0 -0.25402258983E+01  0.32613622353E+01  0.10314029556E+02  0.11111635216E+02  0.51100000000E-03 0.  1.
         12    1    3    3    0    0 -0.60571928239E+01  0.34705148706E+00 -0.53121776408E+00  0.60903384105E+01  0.00000000000E+00 0. -1.
</event>
<event>
 7    1  0.2812635E-010  0.4778732E+02  0.7816164E-02  0.1312668E+00
        -11   -1    0    0    0    0  0.00000000000E+00  0.00000000000E+00  0.45593999997E+02  0.45594000000E+02  0.51100000000E-03 0.  1.
         11   -1    0    0    0    0 -0.00000000000E+00 -0.00000000000E+00 -0.45593999997E+02  0.45594000000E+02  0.51100000000E-03 0. -1.
    9900012    2    1    2    0    0  0.40789840444E+02  0.62452583673E+01  0.13446363450E+02  0.47787319987E+02  0.20000223150E+02 0.  0.
         12    1    1    2    0    0 -0.40789840444E+02 -0.62452583673E+01 -0.13446363450E+02  0.43400680013E+02  0.00000000000E+00 0. -1.
         11    1    3    3    0    0  0.25330380196E+02 -0.35007301149E+01  0.98631568877E+01  0.27407392000E+02  0.51100000000E-03 0. -1.
        -11    1    3    3    0    0  0.96174663187E+00  0.45668685953E+01  0.78021466251E+00  0.47318052085E+01  0.51100000000E-03 0.  1.
         12    1    3    3    0    0  0.14497713617E+02  0.51791198870E+01  0.28029918994E+01  0.15648122779E+02  0.00000000000E+00 0. -1.
</event>
<event>
 7    1  0.2812635E-010  0.4778727E+02  0.7816164E-02  0.1312668E+00
        -11   -1    0    0    0    0  0.00000000000E+00  0.00000000000E+00  0.45593999997E+02  0.45594000000E+02  0.51100000000E-03 0. -1.
         11   -1    0    0    0    0 -0.00000000000E+00 -0.00000000000E+00 -0.45593999997E+02  0.45594000000E+02  0.51100000000E-03 0.  1.
    9900012    2    1    2    0    0 -0.63548898678E+01  0.38531898870E+02  0.18934933691E+02  0.47787267637E+02  0.19999984464E+02 0.  0.
         12    1    1    2    0    0  0.63548898678E+01 -0.38531898870E+02 -0.18934933691E+02  0.43400732363E+02  0.00000000000E+00 0. -1.
         11    1    3    3    0    0  0.22195787335E+01  0.17834850988E+00  0.21229550341E+01  0.30765689141E+01  0.51100000000E-03 0. -1.
        -11    1    3    3    0    0 -0.97620841393E+01  0.37495349723E+02  0.13399426863E+02  0.40996880102E+02  0.51100000000E-03 0.  1.
        -12    1    3    3    0    0  0.11876155380E+01  0.85820063711E+00  0.34125517940E+01  0.37138186205E+01  0.00000000000E+00 0.  1.
</event>
<event>
 7    1  0.2812635E-010  0.4778727E+02  0.7816164E-02  0.1312668E+00
        -11   -1    0    0    0    0  0.00000000000E+00  0.00000000000E+00  0.45593999997E+02  0.45594000000E+02  0.51100000000E-03 0. -1.
         11   -1    0    0    0    0 -0.00000000000E+00 -0.00000000000E+00 -0.45593999997E+02  0.45594000000E+02  0.51100000000E-03 0.  1.
    9900012    2    1    2    0    0  0.20751805942E+02  0.36737198926E+02 -0.10166830065E+02  0.47787266500E+02  0.19999979279E+02 0.  0.
         12    1    1    2    0    0 -0.20751805942E+02 -0.36737198926E+02  0.10166830065E+02  0.43400733500E+02  0.00000000000E+00 0. -1.
         11    1    3    3    0    0  0.40639571391E+01  0.97088130577E+00  0.19126393239E+01  0.45952744840E+01  0.51100000000E-03 0. -1.
        -11    1    3    3    0    0  0.13911250158E+02  0.28803955578E+02 -0.14763964154E+02  0.35230177060E+02  0.51100000000E-03 0.  1.
        -12    1    3    3    0    0  0.27765986452E+01  0.69623620424E+01  0.26844947649E+01  0.79618149557E+01  0.00000000000E+00 0.  1.
</event>
<event>
 7    1  0.2812635E-010  0.4778727E+02  0.7816164E-02  0.1312668E+00
        -11   -1    0    0    0    0  0.00000000000E+00  0.00000000000E+00  0.45593999997E+02  0.45594000000E+02  0.51100000000E-03 0. -1.
         11   -1    0    0    0    0 -0.00000000000E+00 -0.00000000000E+00 -0.45593999997E+02  0.45594000000E+02  0.51100000000E-03 0.  1.
    9900012    2    1    2    0    0  0.19855269504E+01 -0.21180180042E+02 -0.37829628630E+02  0.47787272515E+02  0.20000006707E+02 0.  0.
         12    1    1    2    0    0 -0.19855269504E+01  0.21180180042E+02  0.37829628630E+02  0.43400727485E+02  0.00000000000E+00 0. -1.
         11    1    3    3    0    0 -0.74125112232E+00 -0.90202825969E+01 -0.19260189088E+01  0.92533507689E+01  0.51100000000E-03 0. -1.
        -11    1    3    3    0    0  0.45425493271E+01 -0.57349643157E+01 -0.18756815734E+02  0.20133124617E+02  0.51100000000E-03 0.  1.
         12    1    3    3    0    0 -0.18157712543E+01 -0.64249331292E+01 -0.17146793987E+02  0.18400797129E+02  0.00000000000E+00 0. -1.
</event>
<event>
 7    1  0.2812635E-010  0.4778727E+02  0.7816164E-02  0.1312668E+00
        -11   -1    0    0    0    0  0.00000000000E+00  0.00000000000E+00  0.45593999997E+02  0.45594000000E+02  0.51100000000E-03 0. -1.
         11   -1    0    0    0    0 -0.00000000000E+00 -0.00000000000E+00 -0.45593999997E+02  0.45594000000E+02  0.51100000000E-03 0.  1.
    9900012    2    1    2    0    0  0.11974737629E+02 -0.10263631841E+02 -0.40433736644E+02  0.47787267991E+02  0.19999986080E+02 0.  0.
         12    1    1    2    0    0 -0.11974737629E+02  0.10263631841E+02  0.40433736644E+02  0.43400732009E+02  0.00000000000E+00 0. -1.
         11    1    3    3    0    0  0.19068420672E+01  0.20451873256E+00 -0.17161910390E+02  0.17268730211E+02  0.51100000000E-03 0. -1.
        -11    1    3    3    0    0  0.72201240228E+01 -0.12898442084E+02 -0.22114672430E+02  0.26599976241E+02  0.51100000000E-03 0.  1.
        -12    1    3    3    0    0  0.28477715393E+01  0.24302915105E+01 -0.11571538245E+01  0.39185615396E+01  0.00000000000E+00 0.  1.
</event>
<event>
 7    1  0.2812635E-010  0.4778728E+02  0.7816164E-02  0.1312668E+00
        -11   -1    0    0    0    0  0.00000000000E+00  0.00000000000E+00  0.45593999997E+02  0.45594000000E+02  0.51100000000E-03 0.  1.
         11   -1    0    0    0    0 -0.00000000000E+00 -0.00000000000E+00 -0.45593999997E+02  0.45594000000E+02  0.51100000000E-03 0. -1.
    9900012    2    1    2    0    0 -0.14891049979E+02 -0.24093724006E+01  0.40694893689E+02  0.47787276306E+02  0.20000023988E+02 0.  0.
         12    1    1    2    0    0  0.14891049979E+02  0.24093724006E+01 -0.40694893689E+02  0.43400723694E+02  0.00000000000E+00 0. -1.
         11    1    3    3    0    0 -0.57820315641E+01 -0.87134757808E+01  0.12751935698E+02  0.16491464868E+02  0.51100000000E-03 0. -1.
        -11    1    3    3    0    0 -0.30290744384E+01  0.71139163366E+01  0.18313374234E+02  0.19878701509E+02  0.51100000000E-03 0.  1.
        -12    1    3    3    0    0 -0.60799439762E+01 -0.80981295635E+00  0.96295837569E+01  0.11417109928E+02  0.00000000000E+00 0.  1.
</event>
<event>
 7    1  0.2812635E-010  0.4778727E+02  0.7816164E-02  0.1312668E+00
        -11   -1    0    0    0    0  0.00000000000E+00  0.00000000000E+00  0.45593999997E+02  0.45594000000E+02  0.51100000000E-03 0.  1.
         11   -1    0    0    0    0 -0.00000000000E+00 -0.00000000000E+00 -0.45593999997E+02  0.45594000000E+02  0.51100000000E-03 0. -1.
    9900012    2    1    2    0    0  0.20587896559E+02  0.37622346254E+02  0.66573895598E+01  0.47787271226E+02  0.20000000826E+02 0.  0.
         12    1    1    2    0    0 -0.20587896559E+02 -0.37622346254E+02 -0.66573895598E+01  0.43400728774E+02  0.00000000000E+00 0. -1.
         11    1    3    3    0    0  0.21916058921E+01  0.62618657825E+01  0.65150810377E+01  0.92984074257E+01  0.51100000000E-03 0. -1.
        -11    1    3    3    0    0  0.19421511222E+02  0.31141678453E+02 -0.12778181590E+01  0.36723726043E+02  0.51100000000E-03 0.  1.
        -12    1    3    3    0    0 -0.10252205548E+01  0.21880201868E+00  0.14201266811E+01  0.17651377566E+01  0.00000000000E+00 0.  1.
</event>
<event>
 7    1  0.2812635E-010  0.4778727E+02  0.7816164E-02  0.1312668E+00
        -11   -1    0    0    0    0  0.00000000000E+00  0.00000000000E+00  0.45593999997E+02  0.45594000000E+02  0.51100000000E-03 0.  1.
         11   -1    0    0    0    0 -0.00000000000E+00 -0.00000000000E+00 -0.45593999997E+02  0.45594000000E+02  0.51100000000E-03 0. -1.
    9900012    2    1    2    0    0 -0.21738352841E+02  0.34456924148E+02  0.14959532585E+02  0.47787271652E+02  0.20000002772E+02 0.  0.
         12    1    1    2    0    0  0.21738352841E+02 -0.34456924148E+02 -0.14959532585E+02  0.43400728348E+02  0.00000000000E+00 0. -1.
         11    1    3    3    0    0 -0.15534038676E+01 -0.66429828745E+00  0.41630911426E+01  0.44928480848E+01  0.51100000000E-03 0. -1.
        -11    1    3    3    0    0 -0.70907164471E+01  0.14430013564E+02 -0.10111112731E+01  0.16109807493E+02  0.51100000000E-03 0.  1.
        -12    1    3    3    0    0 -0.13094232526E+02  0.20691208871E+02  0.11807552716E+02  0.27184616075E+02  0.00000000000E+00 0.  1.
</event>
<event>
 7    1  0.2812635E-010  0.4778727E+02  0.7816164E-02  0.1312668E+00
        -11   -1    0    0    0    0  0.00000000000E+00  0.00000000000E+00  0.45593999997E+02  0.45594000000E+02  0.51100000000E-03 0.  1.
         11   -1    0    0    0    0 -0.00000000000E+00 -0.00000000000E+00 -0.45593999997E+02  0.45594000000E+02  0.51100000000E-03 0. -1.
    9900012    2    1    2    0    0  0.39007280821E+02  0.14026507437E+02 -0.12857388943E+02  0.47787270532E+02  0.19999997663E+02 0.  0.
         12    1    1    2    0    0 -0.39007280821E+02 -0.14026507437E+02  0.12857388943E+02  0.43400729468E+02  0.00000000000E+00 0. -1.
         11    1    3    3    0    0  0.21823936721E+02 -0.13814483877E+01 -0.54430953743E+01  0.22534859688E+02  0.51100000000E-03 0. -1.
        -11    1    3    3    0    0  0.47021124722E+01  0.88375330554E+01 -0.36317575978E+01  0.10649014777E+02  0.51100000000E-03 0.  1.
         12    1    3    3    0    0  0.12481231629E+02  0.65704227690E+01 -0.37825359707E+01  0.14603396067E+02  0.00000000000E+00 0. -1.
</event>
<event>
 7    1  0.2812635E-010  0.4778725E+02  0.7816164E-02  0.1312668E+00
        -11   -1    0    0    0    0  0.00000000000E+00  0.00000000000E+00  0.45593999997E+02  0.45594000000E+02  0.51100000000E-03 0.  1.
         11   -1    0    0    0    0 -0.00000000000E+00 -0.00000000000E+00 -0.45593999997E+02  0.45594000000E+02  0.51100000000E-03 0. -1.
    9900012    2    1    2    0    0  0.43145379175E+02  0.29618590502E+01 -0.36508707716E+01  0.47787248733E+02  0.19999898272E+02 0.  0.
         12    1    1    2    0    0 -0.43145379175E+02 -0.29618590502E+01  0.36508707716E+01  0.43400751267E+02  0.00000000000E+00 0. -1.
         11    1    3    3    0    0  0.68631008962E+01  0.52501829232E+01  0.29335670579E+01  0.91253707093E+01  0.51100000000E-03 0. -1.
        -11    1    3    3    0    0  0.34073527629E+02 -0.24126019363E+00 -0.84667356592E+01  0.35110526976E+02  0.51100000000E-03 0.  1.
        -12    1    3    3    0    0  0.22087506494E+01 -0.20470636794E+01  0.18822978297E+01  0.35513510470E+01  0.00000000000E+00 0.  1.
</event>
<event>
 7    1  0.2812635E-010  0.4778727E+02  0.7816164E-02  0.1312668E+00
        -11   -1    0    0    0    0  0.00000000000E+00  0.00000000000E+00  0.45593999997E+02  0.45594000000E+02  0.51100000000E-03 0.  1.
         11   -1    0    0    0    0 -0.00000000000E+00 -0.00000000000E+00 -0.45593999997E+02  0.45594000000E+02  0.51100000000E-03 0. -1.
    9900012    2    1    2    0    0 -0.17043584603E+02  0.17422626164E+02  0.35910884590E+02  0.47787270621E+02  0.19999998069E+02 0.  0.
         12    1    1    2    0    0  0.17043584603E+02 -0.17422626164E+02 -0.35910884590E+02  0.43400729379E+02  0.00000000000E+00 0. -1.
         11    1    3    3    0    0 -0.36943925420E+01  0.15997563033E+02  0.23843523050E+02  0.28949683089E+02  0.51100000000E-03 0. -1.
        -11    1    3    3    0    0 -0.43009203438E+01 -0.96066372021E+00  0.13479640296E+01  0.46084485322E+01  0.51100000000E-03 0.  1.
        -12    1    3    3    0    0 -0.90482717173E+01  0.23857268510E+01  0.10719397511E+02  0.14229139000E+02  0.00000000000E+00 0.  1.
</event>
<event>
 7    1  0.2812635E-010  0.4778727E+02  0.7816164E-02  0.1312668E+00
        -11   -1    0    0    0    0  0.00000000000E+00  0.00000000000E+00  0.45593999997E+02  0.45594000000E+02  0.51100000000E-03 0.  1.
         11   -1    0    0    0    0 -0.00000000000E+00 -0.00000000000E+00 -0.45593999997E+02  0.45594000000E+02  0.51100000000E-03 0. -1.
    9900012    2    1    2    0    0 -0.20744459966E+02 -0.25128907169E+02  0.28667551139E+02  0.47787273242E+02  0.20000010021E+02 0.  0.
         12    1    1    2    0    0  0.20744459966E+02  0.25128907169E+02 -0.28667551139E+02  0.43400726758E+02  0.00000000000E+00 0. -1.
         11    1    3    3    0    0 -0.16038122409E+00 -0.10458315722E+02  0.13774322970E+02  0.17295492576E+02  0.51100000000E-03 0. -1.
        -11    1    3    3    0    0 -0.16218618966E+02 -0.14397829458E+02  0.14525615666E+02  0.26102386960E+02  0.51100000000E-03 0.  1.
        -12    1    3    3    0    0 -0.43654597763E+01 -0.27276198837E+00  0.36761250306E+00  0.43893937067E+01  0.00000000000E+00 0.  1.
</event>
<event>
 7    1  0.2812635E-010  0.4778729E+02  0.7816164E-02  0.1312668E+00
        -11   -1    0    0    0    0  0.00000000000E+00  0.00000000000E+00  0.45593999997E+02  0.45594000000E+02  0.51100000000E-03 0.  1.
         11   -1    0    0    0    0 -0.00000000000E+00 -0.00000000000E+00 -0.45593999997E+02  0.45594000000E+02  0.51100000000E-03 0. -1.
    9900012    2    1    2    0    0 -0.20838523209E+02 -0.35784861314E+02  0.12993116217E+02  0.47787292427E+02  0.20000097493E+02 0.  0.
         12    1    1    2    0    0  0.20838523209E+02  0.35784861314E+02 -0.12993116217E+02  0.43400707573E+02  0.00000000000E+00 0. -1.
         11    1    3    3    0    0  0.18950657101E+01 -0.75341263461E+01  0.36588158047E+01  0.85872735602E+01  0.51100000000E-03 0. -1.
        -11    1    3    3    0    0 -0.17853077487E+02 -0.24064471340E+02  0.29003543660E+01  0.30103873710E+02  0.51100000000E-03 0.  1.
         12    1    3    3    0    0 -0.48805114319E+01 -0.41862636283E+01  0.64339460462E+01  0.90961451576E+01  0.00000000000E+00 0. -1.
</event>
<event>
 7    1  0.2812635E-010  0.4778727E+02  0.7816164E-02  0.1312668E+00
        -11   -1    0    0    0    0  0.00000000000E+00  0.00000000000E+00  0.45593999997E+02  0.45594000000E+02  0.51100000000E-03 0.  1.
         11   -1    0    0    0    0 -0.00000000000E+00 -0.00000000000E+00 -0.45593999997E+02  0.45594000000E+02  0.51100000000E-03 0. -1.
    9900012    2    1    2    0    0 -0.18397946350E+02  0.24710709290E+02  0.30569912228E+02  0.47787272850E+02  0.20000008232E+02 0.  0.
         12    1    1    2    0    0  0.18397946350E+02 -0.24710709290E+02 -0.30569912228E+02  0.43400727150E+02  0.00000000000E+00 0. -1.
         11    1    3    3    0    0 -0.78512194803E+01  0.24664297137E+02  0.22363841487E+02  0.34206879526E+02  0.51100000000E-03 0. -1.
        -11    1    3    3    0    0 -0.54953447051E+01 -0.11737171721E+01  0.40620768496E+01  0.69337503575E+01  0.51100000000E-03 0.  1.
         12    1    3    3    0    0 -0.50513821651E+01  0.12201293248E+01  0.41439938918E+01  0.66466429664E+01  0.00000000000E+00 0. -1.
</event>
<event>
 7    1  0.2812635E-010  0.4778727E+02  0.7816164E-02  0.1312668E+00
        -11   -1    0    0    0    0  0.00000000000E+00  0.00000000000E+00  0.45593999997E+02  0.45594000000E+02  0.51100000000E-03 0.  1.
         11   -1    0    0    0    0 -0.00000000000E+00 -0.00000000000E+00 -0.45593999997E+02  0.45594000000E+02  0.51100000000E-03 0. -1.
    9900012    2    1    2    0    0  0.13822546649E+02  0.30193730567E+02 -0.27944575391E+02  0.47787268955E+02  0.19999990475E+02 0.  0.
         12    1    1    2    0    0 -0.13822546649E+02 -0.30193730567E+02  0.27944575391E+02  0.43400731045E+02  0.00000000000E+00 0. -1.
         11    1    3    3    0    0 -0.36688421497E+01  0.49960025448E+01 -0.12867871220E+00  0.61997582711E+01  0.51100000000E-03 0. -1.
        -11    1    3    3    0    0  0.11286777713E+02  0.17931170899E+02 -0.21147967548E+02  0.29935844278E+02  0.51100000000E-03 0.  1.
        -12    1    3    3    0    0  0.62046110861E+01  0.72665571235E+01 -0.66679291309E+01  0.11651666407E+02  0.00000000000E+00 0.  1.
</event>
<event>
 7    1  0.2812635E-010  0.4778728E+02  0.7816164E-02  0.1312668E+00
        -11   -1    0    0    0    0  0.00000000000E+00  0.00000000000E+00  0.45593999997E+02  0.45594000000E+02  0.51100000000E-03 0. -1.
         11   -1    0    0    0    0 -0.00000000000E+00 -0.00000000000E+00 -0.45593999997E+02  0.45594000000E+02  0.51100000000E-03 0.  1.
    9900012    2    1    2    0    0 -0.12513982084E+02 -0.13387856085E+02 -0.39341942953E+02  0.47787275197E+02  0.20000018931E+02 0.  0.
         12    1    1    2    0    0  0.12513982084E+02  0.13387856085E+02  0.39341942953E+02  0.43400724803E+02  0.00000000000E+00 0. -1.
         11    1    3    3    0    0 -0.92714699752E+01 -0.39843130592E+01 -0.13985827197E+02  0.17246398717E+02  0.51100000000E-03 0. -1.
        -11    1    3    3    0    0  0.47321861202E+01 -0.27193510737E+01 -0.14546996584E+02  0.15537167232E+02  0.51100000000E-03 0.  1.
        -12    1    3    3    0    0 -0.79746982291E+01 -0.66841919526E+01 -0.10809119172E+02  0.15003709247E+02  0.00000000000E+00 0.  1.
</event>
<event>
 7    1  0.2812635E-010  0.4778728E+02  0.7816164E-02  0.1312668E+00
        -11   -1    0    0    0    0  0.00000000000E+00  0.00000000000E+00  0.45593999997E+02  0.45594000000E+02  0.51100000000E-03 0. -1.
         11   -1    0    0    0    0 -0.00000000000E+00 -0.00000000000E+00 -0.45593999997E+02  0.45594000000E+02  0.51100000000E-03 0.  1.
    9900012    2    1    2    0    0 -0.18609244731E+02 -0.37620714309E+02 -0.11045389599E+02  0.47787276896E+02  0.20000026680E+02 0.  0.
         12    1    1    2    0    0  0.18609244731E+02  0.37620714309E+02  0.11045389599E+02  0.43400723104E+02  0.00000000000E+00 0. -1.
         11    1    3    3    0    0 -0.13069779300E+01 -0.17153817077E+01  0.12041765880E+01  0.24699731231E+01  0.51100000000E-03 0. -1.
        -11    1    3    3    0    0 -0.83013610313E+01 -0.26115246243E+02 -0.24858570225E+00  0.27404022997E+02  0.51100000000E-03 0.  1.
        -12    1    3    3    0    0 -0.90009057696E+01 -0.97900863581E+01 -0.12000980485E+02  0.17913280776E+02  0.00000000000E+00 0.  1.
</event>
<event>
 7    1  0.2812635E-010  0.4778727E+02  0.7816164E-02  0.1312668E+00
        -11   -1    0    0    0    0  0.00000000000E+00  0.00000000000E+00  0.45593999997E+02  0.45594000000E+02  0.51100000000E-03 0. -1.
         11   -1    0    0    0    0 -0.00000000000E+00 -0.00000000000E+00 -0.45593999997E+02  0.45594000000E+02  0.51100000000E-03 0.  1.
    9900012    2    1    2    0    0  0.34641569387E+02 -0.15544663264E+02 -0.21022562906E+02  0.47787273777E+02  0.20000012457E+02 0.  0.
         12    1    1    2    0    0 -0.34641569387E+02  0.15544663264E+02  0.21022562906E+02  0.43400726223E+02  0.00000000000E+00 0. -1.
         11    1    3    3    0    0  0.12754929795E+02 -0.11948051282E+02 -0.10182965222E+01  0.17506601371E+02  0.51100000000E-03 0. -1.
        -11    1    3    3    0    0  0.10479027846E+02  0.58697198536E-01 -0.11688636341E+02  0.15698333979E+02  0.51100000000E-03 0.  1.
         12    1    3    3    0    0  0.11407611746E+02 -0.36553091807E+01 -0.83156300429E+01  0.14582338426E+02  0.00000000000E+00 0. -1.
</event>
<event>
 7    1  0.2812635E-010  0.4778729E+02  0.7816164E-02  0.1312668E+00
        -11   -1    0    0    0    0  0.00000000000E+00  0.00000000000E+00  0.45593999997E+02  0.45594000000E+02  0.51100000000E-03 0.  1.
         11   -1    0    0    0    0 -0.00000000000E+00 -0.00000000000E+00 -0.45593999997E+02  0.45594000000E+02  0.51100000000E-03 0. -1.
    9900012    2    1    2    0    0  0.50669452580E+01 -0.84600100347E+01  0.42265542474E+02  0.47787288201E+02  0.20000078225E+02 0.  0.
         12    1    1    2    0    0 -0.50669452580E+01  0.84600100347E+01 -0.42265542474E+02  0.43400711799E+02  0.00000000000E+00 0. -1.
         11    1    3    3    0    0 -0.31857093634E+01 -0.24934372666E+01  0.11649045647E+02  0.12331514031E+02  0.51100000000E-03 0. -1.
        -11    1    3    3    0    0  0.12326214344E+02 -0.60953062318E+01  0.22399652556E+02  0.26283697476E+02  0.51100000000E-03 0.  1.
        -12    1    3    3    0    0 -0.40735597227E+01  0.12873346360E+00  0.82168442707E+01  0.91720766944E+01  0.00000000000E+00 0.  1.
</event>
<event>
 7    1  0.2812635E-010  0.4778727E+02  0.7816164E-02  0.1312668E+00
        -11   -1    0    0    0    0  0.00000000000E+00  0.00000000000E+00  0.45593999997E+02  0.45594000000E+02  0.51100000000E-03 0.  1.
         11   -1    0    0    0    0 -0.00000000000E+00 -0.00000000000E+00 -0.45593999997E+02  0.45594000000E+02  0.51100000000E-03 0. -1.
    9900012    2    1    2    0    0 -0.20100160965E+02 -0.38241850957E+02  0.41434336248E+01  0.47787266393E+02  0.19999978792E+02 0.  0.
         12    1    1    2    0    0  0.20100160965E+02  0.38241850957E+02 -0.41434336248E+01  0.43400733607E+02  0.00000000000E+00 0. -1.
         11    1    3    3    0    0 -0.18461389719E+02 -0.27799073256E+02 -0.41335454660E+01  0.33625846943E+02  0.51100000000E-03 0. -1.
        -11    1    3    3    0    0 -0.15344937505E+01 -0.21507156055E+01  0.40964661769E+01  0.48745547577E+01  0.51100000000E-03 0.  1.
         12    1    3    3    0    0 -0.10427749568E+00 -0.82920620956E+01  0.41805129139E+01  0.92868646925E+01  0.00000000000E+00 0. -1.
</event>
<event>
 7    1  0.2812635E-010  0.4778727E+02  0.7816164E-02  0.1312668E+00
        -11   -1    0    0    0    0  0.00000000000E+00  0.00000000000E+00  0.45593999997E+02  0.45594000000E+02  0.51100000000E-03 0.  1.
         11   -1    0    0    0    0 -0.00000000000E+00 -0.00000000000E+00 -0.45593999997E+02  0.45594000000E+02  0.51100000000E-03 0. -1.
    9900012    2    1    2    0    0 -0.30258957538E+02 -0.78814282046E+01  0.30098203611E+02  0.47787270946E+02  0.19999999551E+02 0.  0.
         12    1    1    2    0    0  0.30258957538E+02  0.78814282046E+01 -0.30098203611E+02  0.43400729054E+02  0.00000000000E+00 0. -1.
         11    1    3    3    0    0  0.10341660853E+01  0.10364555489E+01 -0.11648192671E+01  0.18709740198E+01  0.51100000000E-03 0. -1.
        -11    1    3    3    0    0 -0.87989374132E+01 -0.13964206625E+01  0.13946726216E+02  0.16549394632E+02  0.51100000000E-03 0.  1.
         12    1    3    3    0    0 -0.22494186210E+02 -0.75214630910E+01  0.17316296662E+02  0.29366902294E+02  0.00000000000E+00 0. -1.
</event>
<event>
 7    1  0.2812635E-010  0.4778727E+02  0.7816164E-02  0.1312668E+00
        -11   -1    0    0    0    0  0.00000000000E+00  0.00000000000E+00  0.45593999997E+02  0.45594000000E+02  0.51100000000E-03 0.  1.
         11   -1    0    0    0    0 -0.00000000000E+00 -0.00000000000E+00 -0.45593999997E+02  0.45594000000E+02  0.51100000000E-03 0. -1.
    9900012    2    1    2    0    0  0.24577180761E+02 -0.23109326974E+02  0.27304663329E+02  0.47787269052E+02  0.19999990915E+02 0.  0.
         12    1    1    2    0    0 -0.24577180761E+02  0.23109326974E+02 -0.27304663329E+02  0.43400730948E+02  0.00000000000E+00 0. -1.
         11    1    3    3    0    0  0.42701453945E+01 -0.98330274775E+01  0.18975158985E+02  0.21794018212E+02  0.51100000000E-03 0. -1.
        -11    1    3    3    0    0  0.18692239173E+01 -0.88362019705E-01  0.12274794911E+01  0.22379705230E+01  0.51100000000E-03 0.  1.
         12    1    3    3    0    0  0.18437811449E+02 -0.13187937476E+02  0.71020248529E+01  0.23755280317E+02  0.00000000000E+00 0. -1.
</event>
<event>
 7    1  0.2812635E-010  0.4778727E+02  0.7816164E-02  0.1312668E+00
        -11   -1    0    0    0    0  0.00000000000E+00  0.00000000000E+00  0.45593999997E+02  0.45594000000E+02  0.51100000000E-03 0.  1.
         11   -1    0    0    0    0 -0.00000000000E+00 -0.00000000000E+00 -0.45593999997E+02  0.45594000000E+02  0.51100000000E-03 0. -1.
    9900012    2    1    2    0    0  0.29891905537E+01 -0.28539073682E+02  0.32560859161E+02  0.47787268024E+02  0.19999986227E+02 0.  0.
         12    1    1    2    0    0 -0.29891905537E+01  0.28539073682E+02 -0.32560859161E+02  0.43400731976E+02  0.00000000000E+00 0. -1.
         11    1    3    3    0    0  0.11824033191E+01 -0.13544384440E+02  0.25683572051E+02  0.29060184119E+02  0.51100000000E-03 0. -1.
        -11    1    3    3    0    0  0.46609150002E+01 -0.94574662365E+01  0.18121057201E+01  0.10698201889E+02  0.51100000000E-03 0.  1.
        -12    1    3    3    0    0 -0.28541277656E+01 -0.55372230055E+01  0.50651813895E+01  0.80288820158E+01  0.00000000000E+00 0.  1.
</event>
<event>
 7    1  0.2812635E-010  0.4778727E+02  0.7816164E-02  0.1312668E+00
        -11   -1    0    0    0    0  0.00000000000E+00  0.00000000000E+00  0.45593999997E+02  0.45594000000E+02  0.51100000000E-03 0. -1.
         11   -1    0    0    0    0 -0.00000000000E+00 -0.00000000000E+00 -0.45593999997E+02  0.45594000000E+02  0.51100000000E-03 0.  1.
    9900012    2    1    2    0    0 -0.20562620543E+01 -0.41572787898E+02 -0.12292201429E+02  0.47787272780E+02  0.20000007912E+02 0.  0.
         12    1    1    2    0    0  0.20562620543E+01  0.41572787898E+02  0.12292201429E+02  0.43400727220E+02  0.00000000000E+00 0. -1.
         11    1    3    3    0    0 -0.37357318820E+00 -0.34654460719E+02 -0.38506786680E+01  0.34869742344E+02  0.51100000000E-03 0. -1.
        -11    1    3    3    0    0  0.48263374940E-01  0.10520212880E+01 -0.28241594874E+01  0.30141259455E+01  0.51100000000E-03 0.  1.
        -12    1    3    3    0    0 -0.17309522411E+01 -0.79703484667E+01 -0.56173632741E+01  0.99034044901E+01  0.00000000000E+00 0.  1.
</event>
<event>
 7    1  0.2812635E-010  0.4778728E+02  0.7816164E-02  0.1312668E+00
        -11   -1    0    0    0    0  0.00000000000E+00  0.00000000000E+00  0.45593999997E+02  0.45594000000E+02  0.51100000000E-03 0.  1.
         11   -1    0    0    0    0 -0.00000000000E+00 -0.00000000000E+00 -0.45593999997E+02  0.45594000000E+02  0.51100000000E-03 0. -1.
    9900012    2    1    2    0    0  0.43204625352E+02 -0.40072534905E+01  0.96175531271E+00  0.47787277591E+02  0.20000029848E+02 0.  0.
         12    1    1    2    0    0 -0.43204625352E+02  0.40072534905E+01 -0.96175531271E+00  0.43400722409E+02  0.00000000000E+00 0. -1.
         11    1    3    3    0    0  0.28923965515E+01  0.38821760305E+01  0.43403749081E+01  0.65020076243E+01  0.51100000000E-03 0. -1.
        -11    1    3    3    0    0  0.25167463811E+02 -0.56010633785E+01 -0.30716538410E+01  0.25965519506E+02  0.51100000000E-03 0.  1.
         12    1    3    3    0    0  0.15144764990E+02 -0.22883661425E+01 -0.30696575440E+00  0.15319750461E+02  0.00000000000E+00 0. -1.
</event>
<event>
 7    1  0.2812635E-010  0.4778727E+02  0.7816164E-02  0.1312668E+00
        -11   -1    0    0    0    0  0.00000000000E+00  0.00000000000E+00  0.45593999997E+02  0.45594000000E+02  0.51100000000E-03 0.  1.
         11   -1    0    0    0    0 -0.00000000000E+00 -0.00000000000E+00 -0.45593999997E+02  0.45594000000E+02  0.51100000000E-03 0. -1.
    9900012    2    1    2    0    0 -0.32409810793E+02 -0.17047174112E+01  0.28815299241E+02  0.47787269967E+02  0.19999995086E+02 0.  0.
         12    1    1    2    0    0  0.32409810793E+02  0.17047174112E+01 -0.28815299241E+02  0.43400730033E+02  0.00000000000E+00 0. -1.
         11    1    3    3    0    0 -0.10656269048E+02 -0.66196104326E+00  0.17997699632E+02  0.20926334002E+02  0.51100000000E-03 0. -1.
        -11    1    3    3    0    0 -0.15795968303E+02 -0.59383122735E+01  0.74563243622E+01  0.18449198914E+02  0.51100000000E-03 0.  1.
         12    1    3    3    0    0 -0.59575734412E+01  0.48955559056E+01  0.33612752475E+01  0.84117370513E+01  0.00000000000E+00 0. -1.
</event>
<event>
 7    1  0.2812635E-010  0.4778727E+02  0.7816164E-02  0.1312668E+00
        -11   -1    0    0    0    0  0.00000000000E+00  0.00000000000E+00  0.45593999997E+02  0.45594000000E+02  0.51100000000E-03 0.  1.
         11   -1    0    0    0    0 -0.00000000000E+00 -0.00000000000E+00 -0.45593999997E+02  0.45594000000E+02  0.51100000000E-03 0. -1.
    9900012    2    1    2    0    0  0.10015394833E+02 -0.91321794636E+01  0.41230069598E+02  0.47787268734E+02  0.19999989464E+02 0.  0.
         12    1    1    2    0    0 -0.10015394833E+02  0.91321794636E+01 -0.41230069598E+02  0.43400731266E+02  0.00000000000E+00 0. -1.
         11    1    3    3    0    0 -0.47937766386E+01 -0.18741292007E+01  0.93866440049E+01  0.10705220253E+02  0.51100000000E-03 0. -1.
        -11    1    3    3    0    0  0.52743476589E+01 -0.73973101856E+01  0.11858285710E+02  0.14938469850E+02  0.51100000000E-03 0.  1.
         12    1    3    3    0    0  0.95348238122E+01  0.13925992276E+00  0.19985139883E+02  0.22143578631E+02  0.00000000000E+00 0. -1.
</event>
<event>
 7    1  0.2812635E-010  0.4778727E+02  0.7816164E-02  0.1312668E+00
        -11   -1    0    0    0    0  0.00000000000E+00  0.00000000000E+00  0.45593999997E+02  0.45594000000E+02  0.51100000000E-03 0.  1.
         11   -1    0    0    0    0 -0.00000000000E+00 -0.00000000000E+00 -0.45593999997E+02  0.45594000000E+02  0.51100000000E-03 0. -1.
    9900012    2    1    2    0    0 -0.18599322974E+02  0.37008066953E+02  0.12965009925E+02  0.47787270547E+02  0.19999997734E+02 0.  0.
         12    1    1    2    0    0  0.18599322974E+02 -0.37008066953E+02 -0.12965009925E+02  0.43400729453E+02  0.00000000000E+00 0. -1.
         11    1    3    3    0    0  0.38228689332E+01  0.73158874700E+01  0.42834427604E+01  0.92996999144E+01  0.51100000000E-03 0. -1.
        -11    1    3    3    0    0 -0.96878289779E+01  0.91517089233E+01  0.29482095694E+01  0.13649166511E+02  0.51100000000E-03 0.  1.
         12    1    3    3    0    0 -0.12734362929E+02  0.20540470559E+02  0.57333575953E+01  0.24838404122E+02  0.00000000000E+00 0. -1.
</event>
<event>
 7    1  0.2812635E-010  0.4778727E+02  0.7816164E-02  0.1312668E+00
        -11   -1    0    0    0    0  0.00000000000E+00  0.00000000000E+00  0.45593999997E+02  0.45594000000E+02  0.51100000000E-03 0.  1.
         11   -1    0    0    0    0 -0.00000000000E+00 -0.00000000000E+00 -0.45593999997E+02  0.45594000000E+02  0.51100000000E-03 0. -1.
    9900012    2    1    2    0    0 -0.54170311772E+00 -0.20246085267E+02  0.38385229783E+02  0.47787271015E+02  0.19999999867E+02 0.  0.
         12    1    1    2    0    0  0.54170311772E+00  0.20246085267E+02 -0.38385229783E+02  0.43400728985E+02  0.00000000000E+00 0. -1.
         11    1    3    3    0    0  0.75253751243E+01 -0.20259674418E+01  0.11307350647E+02  0.13732880024E+02  0.51100000000E-03 0. -1.
        -11    1    3    3    0    0 -0.72471363263E+01 -0.99831815688E+01  0.15187059427E+02  0.19566084777E+02  0.51100000000E-03 0.  1.
        -12    1    3    3    0    0 -0.81994191570E+00 -0.82369362562E+01  0.11890819709E+02  0.14488306215E+02  0.00000000000E+00 0.  1.
</event>
<event>
 7    1  0.2812635E-010  0.4778733E+02  0.7816164E-02  0.1312667E+00
        -11   -1    0    0    0    0  0.00000000000E+00  0.00000000000E+00  0.45593999997E+02  0.45594000000E+02  0.51100000000E-03 0.  1.
         11   -1    0    0    0    0 -0.00000000000E+00 -0.00000000000E+00 -0.45593999997E+02  0.45594000000E+02  0.51100000000E-03 0. -1.
    9900012    2    1    2    0    0  0.17057924576E+02 -0.23618363075E+02  0.32168590887E+02  0.47787330594E+02  0.20000271511E+02 0.  0.
         12    1    1    2    0    0 -0.17057924576E+02  0.23618363075E+02 -0.32168590887E+02  0.43400669406E+02  0.00000000000E+00 0. -1.
         11    1    3    3    0    0  0.72981586230E+01 -0.97216902301E+01  0.22262856172E+02  0.25365510943E+02  0.51100000000E-03 0. -1.
        -11    1    3    3    0    0  0.30774040300E+01 -0.32512358083E+01  0.87137448532E+01  0.97964432052E+01  0.51100000000E-03 0.  1.
         12    1    3    3    0    0  0.66823619233E+01 -0.10645437037E+02  0.11919898618E+01  0.12625376446E+02  0.00000000000E+00 0. -1.
</event>
<event>
 7    1  0.2812635E-010  0.4778726E+02  0.7816164E-02  0.1312668E+00
        -11   -1    0    0    0    0  0.00000000000E+00  0.00000000000E+00  0.45593999997E+02  0.45594000000E+02  0.51100000000E-03 0.  1.
         11   -1    0    0    0    0 -0.00000000000E+00 -0.00000000000E+00 -0.45593999997E+02  0.45594000000E+02  0.51100000000E-03 0. -1.
    9900012    2    1    2    0    0 -0.20461705460E+01 -0.21643573548E+01  0.43298412832E+02  0.47787264863E+02  0.19999971815E+02 0.  0.
         12    1    1    2    0    0  0.20461705460E+01  0.21643573548E+01 -0.43298412832E+02  0.43400735137E+02  0.00000000000E+00 0. -1.
         11    1    3    3    0    0 -0.18254984205E+01 -0.58551029535E+01  0.80403603212E+01  0.10112470986E+02  0.51100000000E-03 0. -1.
        -11    1    3    3    0    0 -0.23961079039E+01 -0.38853818159E+01  0.19844134576E+02  0.20362396771E+02  0.51100000000E-03 0.  1.
        -12    1    3    3    0    0  0.21754357785E+01  0.75761274146E+01  0.15413917935E+02  0.17312397106E+02  0.00000000000E+00 0.  1.
</event>
<event>
 7    1  0.2812635E-010  0.4778725E+02  0.7816164E-02  0.1312668E+00
        -11   -1    0    0    0    0  0.00000000000E+00  0.00000000000E+00  0.45593999997E+02  0.45594000000E+02  0.51100000000E-03 0.  1.
         11   -1    0    0    0    0 -0.00000000000E+00 -0.00000000000E+00 -0.45593999997E+02  0.45594000000E+02  0.51100000000E-03 0. -1.
    9900012    2    1    2    0    0  0.28660952089E+02  0.15686950270E+02  0.28567368672E+02  0.47787249589E+02  0.19999902174E+02 0.  0.
         12    1    1    2    0    0 -0.28660952089E+02 -0.15686950270E+02 -0.28567368672E+02  0.43400750411E+02  0.00000000000E+00 0. -1.
         11    1    3    3    0    0  0.13509828092E+02  0.76813968296E+01  0.38704457960E+01  0.16015606865E+02  0.51100000000E-03 0. -1.
        -11    1    3    3    0    0  0.73295471560E+01  0.69933645364E+01  0.67643556723E+01  0.12181375824E+02  0.51100000000E-03 0.  1.
         12    1    3    3    0    0  0.78215768408E+01  0.10121889040E+01  0.17932567204E+02  0.19590266899E+02  0.00000000000E+00 0. -1.
</event>
<event>
 7    1  0.2812635E-010  0.4778727E+02  0.7816164E-02  0.1312668E+00
        -11   -1    0    0    0    0  0.00000000000E+00  0.00000000000E+00  0.45593999997E+02  0.45594000000E+02  0.51100000000E-03 0.  1.
         11   -1    0    0    0    0 -0.00000000000E+00 -0.00000000000E+00 -0.45593999997E+02  0.45594000000E+02  0.51100000000E-03 0. -1.
    9900012    2    1    2    0    0 -0.30593923109E+02 -0.16667867255E+02  0.25880835848E+02  0.47787267353E+02  0.19999983171E+02 0.  0.
         12    1    1    2    0    0  0.30593923109E+02  0.16667867255E+02 -0.25880835848E+02  0.43400732647E+02  0.00000000000E+00 0. -1.
         11    1    3    3    0    0 -0.43415187763E+01  0.32104556790E+01  0.20733564258E+01  0.57839967221E+01  0.51100000000E-03 0. -1.
        -11    1    3    3    0    0 -0.23938954045E+02 -0.14842961220E+02  0.15892470130E+02  0.32341268151E+02  0.51100000000E-03 0.  1.
        -12    1    3    3    0    0 -0.23134502884E+01 -0.50353617137E+01  0.79150092926E+01  0.96620024802E+01  0.00000000000E+00 0.  1.
</event>
<event>
 7    1  0.2812635E-010  0.4778726E+02  0.7816164E-02  0.1312668E+00
        -11   -1    0    0    0    0  0.00000000000E+00  0.00000000000E+00  0.45593999997E+02  0.45594000000E+02  0.51100000000E-03 0.  1.
         11   -1    0    0    0    0 -0.00000000000E+00 -0.00000000000E+00 -0.45593999997E+02  0.45594000000E+02  0.51100000000E-03 0. -1.
    9900012    2    1    2    0    0  0.26217974143E+02 -0.29579034724E+02  0.17925472467E+02  0.47787262374E+02  0.19999960467E+02 0.  0.
         12    1    1    2    0    0 -0.26217974143E+02  0.29579034724E+02 -0.17925472467E+02  0.43400737626E+02  0.00000000000E+00 0. -1.
         11    1    3    3    0    0  0.10358121495E+02 -0.17613431366E+02  0.13152404969E+02  0.24300399217E+02  0.51100000000E-03 0. -1.
        -11    1    3    3    0    0  0.11554502997E+02 -0.59534784783E+01 -0.23621836932E+01  0.13210993814E+02  0.51100000000E-03 0.  1.
        -12    1    3    3    0    0  0.43053496515E+01 -0.60121248797E+01  0.71352511912E+01  0.10275869343E+02  0.00000000000E+00 0.  1.
</event>
<event>
 7    1  0.2812635E-010  0.4778727E+02  0.7816164E-02  0.1312668E+00
        -11   -1    0    0    0    0  0.00000000000E+00  0.00000000000E+00  0.45593999997E+02  0.45594000000E+02  0.51100000000E-03 0.  1.
         11   -1    0    0    0    0 -0.00000000000E+00 -0.00000000000E+00 -0.45593999997E+02  0.45594000000E+02  0.51100000000E-03 0. -1.
    9900012    2    1    2    0    0 -0.18553913936E+02  0.16180733265E+02  0.35742962187E+02  0.47787271927E+02  0.20000004026E+02 0.  0.
         12    1    1    2    0    0  0.18553913936E+02 -0.16180733265E+02 -0.35742962187E+02  0.43400728073E+02  0.00000000000E+00 0. -1.
         11    1    3    3    0    0 -0.47068270149E+01  0.14483326282E+02  0.15797687555E+02  0.21942832385E+02  0.51100000000E-03 0.  1.
        -11    1    3    3    0    0 -0.14528495056E+02  0.63676615279E+00  0.19812540514E+02  0.24576806172E+02  0.51100000000E-03 0. -1.
         12    1    3    3    0    0  0.68140813499E+00  0.10606408299E+01  0.13273411854E+00  0.12676333708E+01  0.00000000000E+00 0. -1.
</event>
<event>
 7    1  0.2812635E-010  0.4778727E+02  0.7816164E-02  0.1312668E+00
        -11   -1    0    0    0    0  0.00000000000E+00  0.00000000000E+00  0.45593999997E+02  0.45594000000E+02  0.51100000000E-03 0. -1.
         11   -1    0    0    0    0 -0.00000000000E+00 -0.00000000000E+00 -0.45593999997E+02  0.45594000000E+02  0.51100000000E-03 0.  1.
    9900012    2    1    2    0    0 -0.42160266056E+02  0.10067592308E+02 -0.21860688264E+01  0.47787270217E+02  0.19999996226E+02 0.  0.
         12    1    1    2    0    0  0.42160266056E+02 -0.10067592308E+02  0.21860688264E+01  0.43400729783E+02  0.00000000000E+00 0. -1.
         11    1    3    3    0    0 -0.30052881774E+02  0.96214107603E+01  0.59576464810E+01  0.32112938200E+02  0.51100000000E-03 0. -1.
        -11    1    3    3    0    0 -0.74968505780E+01  0.23882399756E+01 -0.70251544181E+01  0.10547950210E+02  0.51100000000E-03 0.  1.
        -12    1    3    3    0    0 -0.46105337038E+01 -0.19420584277E+01 -0.11185608893E+01  0.51263818072E+01  0.00000000000E+00 0.  1.
</event>
<event>
 7    1  0.2812635E-010  0.4778727E+02  0.7816164E-02  0.1312668E+00
        -11   -1    0    0    0    0  0.00000000000E+00  0.00000000000E+00  0.45593999997E+02  0.45594000000E+02  0.51100000000E-03 0. -1.
         11   -1    0    0    0    0 -0.00000000000E+00 -0.00000000000E+00 -0.45593999997E+02  0.45594000000E+02  0.51100000000E-03 0.  1.
    9900012    2    1    2    0    0 -0.20243178342E+02  0.42719576148E+00 -0.38388209474E+02  0.47787269681E+02  0.19999993782E+02 0.  0.
         12    1    1    2    0    0  0.20243178342E+02 -0.42719576148E+00  0.38388209474E+02  0.43400730319E+02  0.00000000000E+00 0. -1.
         11    1    3    3    0    0 -0.16144520118E+02  0.21988707947E+01 -0.13746784970E+02  0.21317942206E+02  0.51100000000E-03 0. -1.
        -11    1    3    3    0    0 -0.57278280448E+01  0.15684184429E+01 -0.14542708001E+02  0.15708542478E+02  0.51100000000E-03 0.  1.
         12    1    3    3    0    0  0.16291698210E+01 -0.33400934760E+01 -0.10098716503E+02  0.10760784996E+02  0.00000000000E+00 0. -1.
</event>
<event>
 7    1  0.2812635E-010  0.4778727E+02  0.7816164E-02  0.1312668E+00
        -11   -1    0    0    0    0  0.00000000000E+00  0.00000000000E+00  0.45593999997E+02  0.45594000000E+02  0.51100000000E-03 0.  1.
         11   -1    0    0    0    0 -0.00000000000E+00 -0.00000000000E+00 -0.45593999997E+02  0.45594000000E+02  0.51100000000E-03 0. -1.
    9900012    2    1    2    0    0  0.40854682275E+02  0.98807358653E+01  0.10811527290E+02  0.47787272732E+02  0.20000007695E+02 0.  0.
         12    1    1    2    0    0 -0.40854682275E+02 -0.98807358653E+01 -0.10811527290E+02  0.43400727268E+02  0.00000000000E+00 0. -1.
         11    1    3    3    0    0  0.15949203762E+02  0.83340571877E+01  0.74672110632E+01  0.19483142744E+02  0.51100000000E-03 0. -1.
        -11    1    3    3    0    0  0.12746411325E+02 -0.45174085169E+01 -0.20642525156E+01  0.13679880120E+02  0.51100000000E-03 0.  1.
        -12    1    3    3    0    0  0.12159067187E+02  0.60640871945E+01  0.54085687427E+01  0.14624249868E+02  0.00000000000E+00 0.  1.
</event>
<event>
 7    1  0.2812635E-010  0.4778727E+02  0.7816164E-02  0.1312668E+00
        -11   -1    0    0    0    0  0.00000000000E+00  0.00000000000E+00  0.45593999997E+02  0.45594000000E+02  0.51100000000E-03 0.  1.
         11   -1    0    0    0    0 -0.00000000000E+00 -0.00000000000E+00 -0.45593999997E+02  0.45594000000E+02  0.51100000000E-03 0. -1.
    9900012    2    1    2    0    0  0.33214920540E+02  0.12824732813E+02  0.24817703178E+02  0.47787272941E+02  0.20000008647E+02 0.  0.
         12    1    1    2    0    0 -0.33214920540E+02 -0.12824732813E+02 -0.24817703178E+02  0.43400727059E+02  0.00000000000E+00 0. -1.
         11    1    3    3    0    0  0.11174653509E+02  0.36620101745E+01  0.25400453874E+01  0.12030587284E+02  0.51100000000E-03 0. -1.
        -11    1    3    3    0    0  0.45430665111E+01 -0.39256916830E+01  0.61800208388E+01  0.86164474317E+01  0.51100000000E-03 0.  1.
        -12    1    3    3    0    0  0.17497200520E+02  0.13088414322E+02  0.16097636951E+02  0.27140238225E+02  0.00000000000E+00 0.  1.
</event>
<event>
 7    1  0.2812635E-010  0.4778727E+02  0.7816164E-02  0.1312668E+00
        -11   -1    0    0    0    0  0.00000000000E+00  0.00000000000E+00  0.45593999997E+02  0.45594000000E+02  0.51100000000E-03 0.  1.
         11   -1    0    0    0    0 -0.00000000000E+00 -0.00000000000E+00 -0.45593999997E+02  0.45594000000E+02  0.51100000000E-03 0. -1.
    9900012    2    1    2    0    0 -0.20644950234E+02 -0.16088499728E+02  0.34620361133E+02  0.47787271911E+02  0.20000003952E+02 0.  0.
         12    1    1    2    0    0  0.20644950234E+02  0.16088499728E+02 -0.34620361133E+02  0.43400728089E+02  0.00000000000E+00 0. -1.
         11    1    3    3    0    0 -0.12701794426E+02 -0.17050771245E+02  0.20861110296E+02  0.29786747132E+02  0.51100000000E-03 0. -1.
        -11    1    3    3    0    0 -0.16312252824E+01  0.41716488220E+01  0.45643755033E+01  0.63950820020E+01  0.51100000000E-03 0.  1.
        -12    1    3    3    0    0 -0.63119305259E+01 -0.32093773048E+01  0.91948753334E+01  0.11605442777E+02  0.00000000000E+00 0.  1.
</event>
<event>
 7    1  0.2812635E-010  0.4778725E+02  0.7816164E-02  0.1312668E+00
        -11   -1    0    0    0    0  0.00000000000E+00  0.00000000000E+00  0.45593999997E+02  0.45594000000E+02  0.51100000000E-03 0.  1.
         11   -1    0    0    0    0 -0.00000000000E+00 -0.00000000000E+00 -0.45593999997E+02  0.45594000000E+02  0.51100000000E-03 0. -1.
    9900012    2    1    2    0    0 -0.21219998364E+02 -0.37446031536E+02 -0.55795670688E+01  0.47787249118E+02  0.19999900030E+02 0.  0.
         12    1    1    2    0    0  0.21219998364E+02  0.37446031536E+02  0.55795670688E+01  0.43400750882E+02  0.00000000000E+00 0. -1.
         11    1    3    3    0    0 -0.54748122263E+01  0.47436653255E+00 -0.18814225083E+01  0.58084716954E+01  0.51100000000E-03 0. -1.
        -11    1    3    3    0    0 -0.12086538930E+02 -0.20487963926E+02 -0.35247791074E-02  0.23787414778E+02  0.51100000000E-03 0.  1.
         12    1    3    3    0    0 -0.36586472078E+01 -0.17432434143E+02 -0.36946197813E+01  0.18191362645E+02  0.00000000000E+00 0. -1.
</event>
<event>
 7    1  0.2812635E-010  0.4778727E+02  0.7816164E-02  0.1312668E+00
        -11   -1    0    0    0    0  0.00000000000E+00  0.00000000000E+00  0.45593999997E+02  0.45594000000E+02  0.51100000000E-03 0.  1.
         11   -1    0    0    0    0 -0.00000000000E+00 -0.00000000000E+00 -0.45593999997E+02  0.45594000000E+02  0.51100000000E-03 0. -1.
    9900012    2    1    2    0    0 -0.26183550444E+02  0.34599053934E+02 -0.97496600894E+00  0.47787269525E+02  0.19999993074E+02 0.  0.
         12    1    1    2    0    0  0.26183550444E+02 -0.34599053934E+02  0.97496600894E+00  0.43400730475E+02  0.00000000000E+00 0. -1.
         11    1    3    3    0    0 -0.34865625931E+01  0.77202329844E+01  0.75230085150E+01  0.11329332435E+02  0.51100000000E-03 0. -1.
        -11    1    3    3    0    0 -0.16027844096E+02  0.16808102530E+02 -0.39897950551E+01  0.23565282978E+02  0.51100000000E-03 0.  1.
         12    1    3    3    0    0 -0.66691437552E+01  0.10070718420E+02 -0.45081794689E+01  0.12892654112E+02  0.00000000000E+00 0. -1.
</event>
<event>
 7    1  0.2812635E-010  0.4778727E+02  0.7816164E-02  0.1312668E+00
        -11   -1    0    0    0    0  0.00000000000E+00  0.00000000000E+00  0.45593999997E+02  0.45594000000E+02  0.51100000000E-03 0. -1.
         11   -1    0    0    0    0 -0.00000000000E+00 -0.00000000000E+00 -0.45593999997E+02  0.45594000000E+02  0.51100000000E-03 0.  1.
    9900012    2    1    2    0    0 -0.62924642598E+01 -0.24691654950E+01 -0.42871105421E+02  0.47787267693E+02  0.19999984721E+02 0.  0.
         12    1    1    2    0    0  0.62924642598E+01  0.24691654950E+01  0.42871105421E+02  0.43400732307E+02  0.00000000000E+00 0. -1.
         11    1    3    3    0    0 -0.64086378390E+01  0.41826074659E+01 -0.27805347933E+02  0.28839247877E+02  0.51100000000E-03 0.  1.
        -11    1    3    3    0    0  0.28942999731E+01 -0.26480258795E+01 -0.98048059473E+00  0.40435573262E+01  0.51100000000E-03 0. -1.
         12    1    3    3    0    0 -0.27781263940E+01 -0.40037470814E+01 -0.14085276894E+02  0.14904462490E+02  0.00000000000E+00 0. -1.
</event>
<event>
 7    1  0.2812635E-010  0.4778728E+02  0.7816164E-02  0.1312668E+00
        -11   -1    0    0    0    0  0.00000000000E+00  0.00000000000E+00  0.45593999997E+02  0.45594000000E+02  0.51100000000E-03 0.  1.
         11   -1    0    0    0    0 -0.00000000000E+00 -0.00000000000E+00 -0.45593999997E+02  0.45594000000E+02  0.51100000000E-03 0. -1.
    9900012    2    1    2    0    0 -0.31541715640E+02 -0.74875902558E+01  0.28856173198E+02  0.47787279211E+02  0.20000037235E+02 0.  0.
         12    1    1    2    0    0  0.31541715640E+02  0.74875902558E+01 -0.28856173198E+02  0.43400720789E+02  0.00000000000E+00 0. -1.
         11    1    3    3    0    0 -0.25562287763E+02 -0.36938240503E+01  0.23081588446E+02  0.34638628975E+02  0.51100000000E-03 0.  1.
        -11    1    3    3    0    0 -0.42131447513E+00 -0.30237939282E+01  0.67914026374E+01  0.74460718269E+01  0.51100000000E-03 0. -1.
         12    1    3    3    0    0 -0.55581134024E+01 -0.76997227736E+00 -0.10168178861E+01  0.57025784094E+01  0.00000000000E+00 0. -1.
</event>
<event>
 7    1  0.2812635E-010  0.4778727E+02  0.7816164E-02  0.1312668E+00
        -11   -1    0    0    0    0  0.00000000000E+00  0.00000000000E+00  0.45593999997E+02  0.45594000000E+02  0.51100000000E-03 0.  1.
         11   -1    0    0    0    0 -0.00000000000E+00 -0.00000000000E+00 -0.45593999997E+02  0.45594000000E+02  0.51100000000E-03 0. -1.
    9900012    2    1    2    0    0  0.19749285523E+02  0.23563869207E+02  0.30632221536E+02  0.47787271816E+02  0.20000003517E+02 0.  0.
         12    1    1    2    0    0 -0.19749285523E+02 -0.23563869207E+02 -0.30632221536E+02  0.43400728184E+02  0.00000000000E+00 0. -1.
         11    1    3    3    0    0  0.86257036552E+00 -0.23020479165E+01  0.34736155131E+01  0.42555207953E+01  0.51100000000E-03 0. -1.
        -11    1    3    3    0    0  0.10347618628E+02  0.19191278255E+02  0.11970530980E+02  0.24873117709E+02  0.51100000000E-03 0.  1.
        -12    1    3    3    0    0  0.85390965291E+01  0.66746388687E+01  0.15188075043E+02  0.18658633312E+02  0.00000000000E+00 0.  1.
</event>
<event>
 7    1  0.2812635E-010  0.4778727E+02  0.7816164E-02  0.1312668E+00
        -11   -1    0    0    0    0  0.00000000000E+00  0.00000000000E+00  0.45593999997E+02  0.45594000000E+02  0.51100000000E-03 0. -1.
         11   -1    0    0    0    0 -0.00000000000E+00 -0.00000000000E+00 -0.45593999997E+02  0.45594000000E+02  0.51100000000E-03 0.  1.
    9900012    2    1    2    0    0  0.28759865445E+01 -0.37145787156E+02 -0.22260781910E+02  0.47787271743E+02  0.20000003183E+02 0.  0.
         12    1    1    2    0    0 -0.28759865445E+01  0.37145787156E+02  0.22260781910E+02  0.43400728257E+02  0.00000000000E+00 0. -1.
         11    1    3    3    0    0 -0.92229148638E+00 -0.17127072698E+01  0.10621361965E+01  0.22163306023E+01  0.51100000000E-03 0. -1.
        -11    1    3    3    0    0  0.57060520710E+01 -0.11318664229E+02 -0.11008301192E+01  0.12723325720E+02  0.51100000000E-03 0.  1.
        -12    1    3    3    0    0 -0.19077740401E+01 -0.24114415657E+02 -0.22222087987E+02  0.32847615420E+02  0.00000000000E+00 0.  1.
</event>
<event>
 7    1  0.2812635E-010  0.4778727E+02  0.7816164E-02  0.1312668E+00
        -11   -1    0    0    0    0  0.00000000000E+00  0.00000000000E+00  0.45593999997E+02  0.45594000000E+02  0.51100000000E-03 0. -1.
         11   -1    0    0    0    0 -0.00000000000E+00 -0.00000000000E+00 -0.45593999997E+02  0.45594000000E+02  0.51100000000E-03 0.  1.
    9900012    2    1    2    0    0 -0.26078429974E+02 -0.18172874867E+02 -0.29551407805E+02  0.47787267356E+02  0.19999983181E+02 0.  0.
         12    1    1    2    0    0  0.26078429974E+02  0.18172874867E+02  0.29551407805E+02  0.43400732644E+02  0.00000000000E+00 0. -1.
         11    1    3    3    0    0 -0.86175262412E+01  0.21379710976E+01 -0.81883720590E+01  0.12078166921E+02  0.51100000000E-03 0. -1.
        -11    1    3    3    0    0 -0.18097013101E+02 -0.17208796570E+02 -0.16590134561E+02  0.29981279619E+02  0.51100000000E-03 0.  1.
        -12    1    3    3    0    0  0.63610936874E+00 -0.31020493950E+01 -0.47729011847E+01  0.57278208157E+01  0.00000000000E+00 0.  1.
</event>
<event>
 7    1  0.2812635E-010  0.4778727E+02  0.7816164E-02  0.1312668E+00
        -11   -1    0    0    0    0  0.00000000000E+00  0.00000000000E+00  0.45593999997E+02  0.45594000000E+02  0.51100000000E-03 0.  1.
         11   -1    0    0    0    0 -0.00000000000E+00 -0.00000000000E+00 -0.45593999997E+02  0.45594000000E+02  0.51100000000E-03 0. -1.
    9900012    2    1    2    0    0  0.40701588115E+02 -0.37532004717E+01  0.14591698756E+02  0.47787268883E+02  0.19999990145E+02 0.  0.
         12    1    1    2    0    0 -0.40701588115E+02  0.37532004717E+01 -0.14591698756E+02  0.43400731117E+02  0.00000000000E+00 0. -1.
         11    1    3    3    0    0 -0.34590637547E+00  0.29543758212E+01  0.28974144985E+01  0.41524689946E+01  0.51100000000E-03 0. -1.
        -11    1    3    3    0    0  0.82978954323E+01 -0.43172024136E+00  0.47598760317E+01  0.95759005358E+01  0.51100000000E-03 0.  1.
         12    1    3    3    0    0  0.32749599059E+02 -0.62758560515E+01  0.69344082259E+01  0.34058899353E+02  0.00000000000E+00 0. -1.
</event>
<event>
 7    1  0.2812635E-010  0.4778728E+02  0.7816164E-02  0.1312668E+00
        -11   -1    0    0    0    0  0.00000000000E+00  0.00000000000E+00  0.45593999997E+02  0.45594000000E+02  0.51100000000E-03 0. -1.
         11   -1    0    0    0    0 -0.00000000000E+00 -0.00000000000E+00 -0.45593999997E+02  0.45594000000E+02  0.51100000000E-03 0.  1.
    9900012    2    1    2    0    0  0.39653005091E+02 -0.11336390563E+02 -0.13518414282E+02  0.47787284701E+02  0.20000062265E+02 0.  0.
         12    1    1    2    0    0 -0.39653005091E+02  0.11336390563E+02  0.13518414282E+02  0.43400715299E+02  0.00000000000E+00 0. -1.
         11    1    3    3    0    0  0.11877821749E+02 -0.31472904317E+01  0.35243681936E+01  0.12783163067E+02  0.51100000000E-03 0. -1.
        -11    1    3    3    0    0  0.56694304989E+01 -0.45806326452E+01 -0.79211688718E+00  0.73315814826E+01  0.51100000000E-03 0.  1.
         12    1    3    3    0    0  0.22105752843E+02 -0.36084674860E+01 -0.16250665589E+02  0.27672540152E+02  0.00000000000E+00 0. -1.
</event>
<event>
 7    1  0.2812635E-010  0.4778727E+02  0.7816164E-02  0.1312668E+00
        -11   -1    0    0    0    0  0.00000000000E+00  0.00000000000E+00  0.45593999997E+02  0.45594000000E+02  0.51100000000E-03 0. -1.
         11   -1    0    0    0    0 -0.00000000000E+00 -0.00000000000E+00 -0.45593999997E+02  0.45594000000E+02  0.51100000000E-03 0.  1.
    9900012    2    1    2    0    0  0.26064994432E+02 -0.33502732712E+02  0.90446832304E+01  0.47787270413E+02  0.19999997122E+02 0.  0.
         12    1    1    2    0    0 -0.26064994432E+02  0.33502732712E+02 -0.90446832304E+01  0.43400729587E+02  0.00000000000E+00 0. -1.
         11    1    3    3    0    0  0.19790294559E+01 -0.61723002771E+01  0.16225991946E+01  0.66818168716E+01  0.51100000000E-03 0. -1.
        -11    1    3    3    0    0  0.55278502684E+01 -0.15817227750E+02  0.93387915260E+01  0.19182149247E+02  0.51100000000E-03 0.  1.
        -12    1    3    3    0    0  0.18558114707E+02 -0.11513204685E+02 -0.19167074901E+01  0.21923304295E+02  0.00000000000E+00 0.  1.
</event>
<event>
 7    1  0.2812635E-010  0.4778727E+02  0.7816164E-02  0.1312668E+00
        -11   -1    0    0    0    0  0.00000000000E+00  0.00000000000E+00  0.45593999997E+02  0.45594000000E+02  0.51100000000E-03 0.  1.
         11   -1    0    0    0    0 -0.00000000000E+00 -0.00000000000E+00 -0.45593999997E+02  0.45594000000E+02  0.51100000000E-03 0. -1.
    9900012    2    1    2    0    0  0.74491013518E+01 -0.12475578363E+02  0.40896137556E+02  0.47787271511E+02  0.20000002126E+02 0.  0.
         12    1    1    2    0    0 -0.74491013518E+01  0.12475578363E+02 -0.40896137556E+02  0.43400728489E+02  0.00000000000E+00 0. -1.
         11    1    3    3    0    0  0.26993979540E+01 -0.10466097494E+02  0.11315539422E+02  0.15648238838E+02  0.51100000000E-03 0. -1.
        -11    1    3    3    0    0 -0.50329040069E+00 -0.35339458326E+01  0.24215887524E+02  0.24477566939E+02  0.51100000000E-03 0.  1.
        -12    1    3    3    0    0  0.52529937985E+01  0.15244649635E+01  0.53647106087E+01  0.76614657336E+01  0.00000000000E+00 0.  1.
</event>
<event>
 7    1  0.2812635E-010  0.4778727E+02  0.7816164E-02  0.1312668E+00
        -11   -1    0    0    0    0  0.00000000000E+00  0.00000000000E+00  0.45593999997E+02  0.45594000000E+02  0.51100000000E-03 0. -1.
         11   -1    0    0    0    0 -0.00000000000E+00 -0.00000000000E+00 -0.45593999997E+02  0.45594000000E+02  0.51100000000E-03 0.  1.
    9900012    2    1    2    0    0  0.39061597350E+02 -0.27476714169E+01 -0.18715369812E+02  0.47787272437E+02  0.20000006350E+02 0.  0.
         12    1    1    2    0    0 -0.39061597350E+02  0.27476714169E+01  0.18715369812E+02  0.43400727563E+02  0.00000000000E+00 0. -1.
         11    1    3    3    0    0  0.15581593016E+02  0.38541374944E+01 -0.19987190206E+01  0.16175144349E+02  0.51100000000E-03 0. -1.
        -11    1    3    3    0    0  0.23017193609E+02 -0.87411021303E+01 -0.15000440098E+02  0.28830734842E+02  0.51100000000E-03 0.  1.
        -12    1    3    3    0    0  0.46281072489E+00  0.21392932190E+01 -0.17162106935E+01  0.27813932460E+01  0.00000000000E+00 0.  1.
</event>
<event>
 7    1  0.2812635E-010  0.4778727E+02  0.7816164E-02  0.1312668E+00
        -11   -1    0    0    0    0  0.00000000000E+00  0.00000000000E+00  0.45593999997E+02  0.45594000000E+02  0.51100000000E-03 0. -1.
         11   -1    0    0    0    0 -0.00000000000E+00 -0.00000000000E+00 -0.45593999997E+02  0.45594000000E+02  0.51100000000E-03 0.  1.
    9900012    2    1    2    0    0 -0.29877343618E+02  0.29509337898E+02  0.10962075282E+02  0.47787265221E+02  0.19999973450E+02 0.  0.
         12    1    1    2    0    0  0.29877343618E+02 -0.29509337898E+02 -0.10962075282E+02  0.43400734779E+02  0.00000000000E+00 0. -1.
         11    1    3    3    0    0 -0.20261877781E+01  0.23624668503E+01  0.18273767531E+01  0.36091539991E+01  0.51100000000E-03 0. -1.
        -11    1    3    3    0    0 -0.22465934669E+02  0.15824368910E+02  0.13862768159E+02  0.30778323756E+02  0.51100000000E-03 0.  1.
        -12    1    3    3    0    0 -0.53852211715E+01  0.11322502138E+02 -0.47280696298E+01  0.13399787466E+02  0.00000000000E+00 0.  1.
</event>
<event>
 7    1  0.2812635E-010  0.4778727E+02  0.7816164E-02  0.1312668E+00
        -11   -1    0    0    0    0  0.00000000000E+00  0.00000000000E+00  0.45593999997E+02  0.45594000000E+02  0.51100000000E-03 0. -1.
         11   -1    0    0    0    0 -0.00000000000E+00 -0.00000000000E+00 -0.45593999997E+02  0.45594000000E+02  0.51100000000E-03 0.  1.
    9900012    2    1    2    0    0  0.19018204018E+02  0.36316570939E+02 -0.14249141458E+02  0.47787269118E+02  0.19999991215E+02 0.  0.
         12    1    1    2    0    0 -0.19018204018E+02 -0.36316570939E+02  0.14249141458E+02  0.43400730882E+02  0.00000000000E+00 0. -1.
         11    1    3    3    0    0 -0.14960831519E+01  0.22918875528E+01  0.29301569800E+01  0.40095926902E+01  0.51100000000E-03 0. -1.
        -11    1    3    3    0    0  0.15596541455E+02  0.29799626206E+02 -0.12974410471E+02  0.36050036820E+02  0.51100000000E-03 0.  1.
        -12    1    3    3    0    0  0.49177457149E+01  0.42250571803E+01 -0.42048879669E+01  0.77276396077E+01  0.00000000000E+00 0.  1.
</event>
<event>
 7    1  0.2812635E-010  0.4778727E+02  0.7816164E-02  0.1312668E+00
        -11   -1    0    0    0    0  0.00000000000E+00  0.00000000000E+00  0.45593999997E+02  0.45594000000E+02  0.51100000000E-03 0.  1.
         11   -1    0    0    0    0 -0.00000000000E+00 -0.00000000000E+00 -0.45593999997E+02  0.45594000000E+02  0.51100000000E-03 0. -1.
    9900012    2    1    2    0    0 -0.42498685158E+02  0.76351183988E+01 -0.43806337322E+01  0.47787271607E+02  0.20000002567E+02 0.  0.
         12    1    1    2    0    0  0.42498685158E+02 -0.76351183988E+01  0.43806337322E+01  0.43400728393E+02  0.00000000000E+00 0. -1.
         11    1    3    3    0    0 -0.15873355572E+02  0.68565921435E+01  0.60259636137E+01  0.18310885032E+02  0.51100000000E-03 0. -1.
        -11    1    3    3    0    0 -0.19875691782E+02 -0.20670725380E+01 -0.57389706673E+01  0.20790663704E+02  0.51100000000E-03 0.  1.
        -12    1    3    3    0    0 -0.67496378042E+01  0.28455987933E+01 -0.46676266786E+01  0.86857228709E+01  0.00000000000E+00 0.  1.
</event>
<event>
 7    1  0.2812635E-010  0.4778727E+02  0.7816164E-02  0.1312668E+00
        -11   -1    0    0    0    0  0.00000000000E+00  0.00000000000E+00  0.45593999997E+02  0.45594000000E+02  0.51100000000E-03 0.  1.
         11   -1    0    0    0    0 -0.00000000000E+00 -0.00000000000E+00 -0.45593999997E+02  0.45594000000E+02  0.51100000000E-03 0. -1.
    9900012    2    1    2    0    0 -0.35465897242E+02 -0.21936063899E+01  0.24919500392E+02  0.47787271021E+02  0.19999999892E+02 0.  0.
         12    1    1    2    0    0  0.35465897242E+02  0.21936063899E+01 -0.24919500392E+02  0.43400728979E+02  0.00000000000E+00 0. -1.
         11    1    3    3    0    0 -0.58985574628E+01 -0.17366470968E+01 -0.83559525873E-03  0.61488961806E+01  0.51100000000E-03 0. -1.
        -11    1    3    3    0    0 -0.17002733719E+02  0.70370211847E+01  0.10968287704E+02  0.21422323788E+02  0.51100000000E-03 0.  1.
        -12    1    3    3    0    0 -0.12564606060E+02 -0.74939804778E+01  0.13952048283E+02  0.20216051052E+02  0.00000000000E+00 0.  1.
</event>
<event>
 7    1  0.2812635E-010  0.4778727E+02  0.7816164E-02  0.1312668E+00
        -11   -1    0    0    0    0  0.00000000000E+00  0.00000000000E+00  0.45593999997E+02  0.45594000000E+02  0.51100000000E-03 0. -1.
         11   -1    0    0    0    0 -0.00000000000E+00 -0.00000000000E+00 -0.45593999997E+02  0.45594000000E+02  0.51100000000E-03 0.  1.
    9900012    2    1    2    0    0  0.32738277599E+02 -0.11829424990E+02 -0.25920902089E+02  0.47787270964E+02  0.19999999634E+02 0.  0.
         12    1    1    2    0    0 -0.32738277599E+02  0.11829424990E+02  0.25920902089E+02  0.43400729036E+02  0.00000000000E+00 0. -1.
         11    1    3    3    0    0  0.16038397966E+02 -0.76414995912E+01 -0.79196069110E+01  0.19451038512E+02  0.51100000000E-03 0. -1.
        -11    1    3    3    0    0  0.31104297615E+01  0.11795457999E+01 -0.12149874016E+02  0.12597044910E+02  0.51100000000E-03 0.  1.
        -12    1    3    3    0    0  0.13589449871E+02 -0.53674711988E+01 -0.58514211625E+01  0.15739187542E+02  0.00000000000E+00 0.  1.
</event>
<event>
 7    1  0.2812635E-010  0.4778727E+02  0.7816164E-02  0.1312668E+00
        -11   -1    0    0    0    0  0.00000000000E+00  0.00000000000E+00  0.45593999997E+02  0.45594000000E+02  0.51100000000E-03 0.  1.
         11   -1    0    0    0    0 -0.00000000000E+00 -0.00000000000E+00 -0.45593999997E+02  0.45594000000E+02  0.51100000000E-03 0. -1.
    9900012    2    1    2    0    0 -0.20177454676E+02 -0.29711026872E+00  0.38424020798E+02  0.47787270444E+02  0.19999997262E+02 0.  0.
         12    1    1    2    0    0  0.20177454676E+02  0.29711026872E+00 -0.38424020798E+02  0.43400729556E+02  0.00000000000E+00 0. -1.
         11    1    3    3    0    0  0.26042464357E+01 -0.16753860198E+01  0.11218033805E+02  0.11637581387E+02  0.51100000000E-03 0. -1.
        -11    1    3    3    0    0 -0.20220232792E+02  0.33637359428E+01  0.22517599823E+02  0.30450202556E+02  0.51100000000E-03 0.  1.
         12    1    3    3    0    0 -0.25614683198E+01 -0.19854601917E+01  0.46883871698E+01  0.56994865014E+01  0.00000000000E+00 0. -1.
</event>
<event>
 7    1  0.2812635E-010  0.4778727E+02  0.7816164E-02  0.1312668E+00
        -11   -1    0    0    0    0  0.00000000000E+00  0.00000000000E+00  0.45593999997E+02  0.45594000000E+02  0.51100000000E-03 0.  1.
         11   -1    0    0    0    0 -0.00000000000E+00 -0.00000000000E+00 -0.45593999997E+02  0.45594000000E+02  0.51100000000E-03 0. -1.
    9900012    2    1    2    0    0  0.44655086485E+00 -0.20426243817E+02  0.38290892809E+02  0.47787270556E+02  0.19999997773E+02 0.  0.
         12    1    1    2    0    0 -0.44655086485E+00  0.20426243817E+02 -0.38290892809E+02  0.43400729444E+02  0.00000000000E+00 0. -1.
         11    1    3    3    0    0  0.12341631052E+01  0.23578955817E+01  0.28340810934E+00  0.26764062774E+01  0.51100000000E-03 0. -1.
        -11    1    3    3    0    0 -0.32527609110E+01 -0.14533036438E+02  0.18229354947E+02  0.23539307205E+02  0.51100000000E-03 0.  1.
        -12    1    3    3    0    0  0.24651486706E+01 -0.82511029599E+01  0.19778129754E+02  0.21571557073E+02  0.00000000000E+00 0.  1.
</event>
<event>
 7    1  0.2812635E-010  0.4778727E+02  0.7816164E-02  0.1312668E+00
        -11   -1    0    0    0    0  0.00000000000E+00  0.00000000000E+00  0.45593999997E+02  0.45594000000E+02  0.51100000000E-03 0.  1.
         11   -1    0    0    0    0 -0.00000000000E+00 -0.00000000000E+00 -0.45593999997E+02  0.45594000000E+02  0.51100000000E-03 0. -1.
    9900012    2    1    2    0    0  0.23412277235E+02  0.28818157602E+02  0.22472256835E+02  0.47787271203E+02  0.20000000722E+02 0.  0.
         12    1    1    2    0    0 -0.23412277235E+02 -0.28818157602E+02 -0.22472256835E+02  0.43400728797E+02  0.00000000000E+00 0. -1.
         11    1    3    3    0    0  0.33317294507E+01  0.12713756378E+02  0.96545617283E+01  0.16307991440E+02  0.51100000000E-03 0. -1.
        -11    1    3    3    0    0  0.22836799105E+01  0.35029012589E+01  0.81773253281E+01  0.91844521309E+01  0.51100000000E-03 0.  1.
        -12    1    3    3    0    0  0.17796867873E+02  0.12601499965E+02  0.46403697790E+01  0.22294827632E+02  0.00000000000E+00 0.  1.
</event>
<event>
 7    1  0.2812635E-010  0.4778727E+02  0.7816164E-02  0.1312668E+00
        -11   -1    0    0    0    0  0.00000000000E+00  0.00000000000E+00  0.45593999997E+02  0.45594000000E+02  0.51100000000E-03 0.  1.
         11   -1    0    0    0    0 -0.00000000000E+00 -0.00000000000E+00 -0.45593999997E+02  0.45594000000E+02  0.51100000000E-03 0. -1.
    9900012    2    1    2    0    0  0.29195270474E+02  0.79873688256E+01  0.31104044810E+02  0.47787268642E+02  0.19999989048E+02 0.  0.
         12    1    1    2    0    0 -0.29195270474E+02 -0.79873688256E+01 -0.31104044810E+02  0.43400731358E+02  0.00000000000E+00 0. -1.
         11    1    3    3    0    0  0.51440981544E+01 -0.38474721608E+01  0.49514747259E+00  0.64428222955E+01  0.51100000000E-03 0. -1.
        -11    1    3    3    0    0  0.21831265476E+02  0.78481502714E+01  0.26278893852E+02  0.35053928130E+02  0.51100000000E-03 0.  1.
        -12    1    3    3    0    0  0.22199068433E+01  0.39866907151E+01  0.43300034856E+01  0.62905182168E+01  0.00000000000E+00 0.  1.
</event>
<event>
 7    1  0.2812635E-010  0.4778727E+02  0.7816164E-02  0.1312668E+00
        -11   -1    0    0    0    0  0.00000000000E+00  0.00000000000E+00  0.45593999997E+02  0.45594000000E+02  0.51100000000E-03 0. -1.
         11   -1    0    0    0    0 -0.00000000000E+00 -0.00000000000E+00 -0.45593999997E+02  0.45594000000E+02  0.51100000000E-03 0.  1.
    9900012    2    1    2    0    0  0.37773784751E+02 -0.74464311047E+01 -0.20032857494E+02  0.47787268094E+02  0.19999986547E+02 0.  0.
         12    1    1    2    0    0 -0.37773784751E+02  0.74464311047E+01  0.20032857494E+02  0.43400731906E+02  0.00000000000E+00 0. -1.
         11    1    3    3    0    0  0.35132559155E+00 -0.45374898223E+01 -0.48213663437E+00  0.45765379442E+01  0.51100000000E-03 0. -1.
        -11    1    3    3    0    0  0.37188987100E+02 -0.38296997045E+01 -0.19684868224E+02  0.42251407060E+02  0.51100000000E-03 0.  1.
         12    1    3    3    0    0  0.23347205946E+00  0.92075842207E+00  0.13414736393E+00  0.95932308927E+00  0.00000000000E+00 0. -1.
</event>
<event>
 7    1  0.2812635E-010  0.4778727E+02  0.7816164E-02  0.1312668E+00
        -11   -1    0    0    0    0  0.00000000000E+00  0.00000000000E+00  0.45593999997E+02  0.45594000000E+02  0.51100000000E-03 0.  1.
         11   -1    0    0    0    0 -0.00000000000E+00 -0.00000000000E+00 -0.45593999997E+02  0.45594000000E+02  0.51100000000E-03 0. -1.
    9900012    2    1    2    0    0 -0.25519962980E+02  0.32985000525E+02  0.12014348844E+02  0.47787270187E+02  0.19999996092E+02 0.  0.
         12    1    1    2    0    0  0.25519962980E+02 -0.32985000525E+02 -0.12014348844E+02  0.43400729813E+02  0.00000000000E+00 0. -1.
         11    1    3    3    0    0 -0.54629457271E+01  0.71240495443E+01 -0.18718709999E+01  0.91705920872E+01  0.51100000000E-03 0.  1.
        -11    1    3    3    0    0 -0.48636473625E+01 -0.79500361412E+00 -0.25328156777E-01  0.49282591440E+01  0.51100000000E-03 0. -1.
        -12    1    3    3    0    0 -0.15193369891E+02  0.26655954595E+02  0.13911548001E+02  0.33688418956E+02  0.00000000000E+00 0.  1.
</event>
<event>
 7    1  0.2812635E-010  0.4778727E+02  0.7816164E-02  0.1312668E+00
        -11   -1    0    0    0    0  0.00000000000E+00  0.00000000000E+00  0.45593999997E+02  0.45594000000E+02  0.51100000000E-03 0. -1.
         11   -1    0    0    0    0 -0.00000000000E+00 -0.00000000000E+00 -0.45593999997E+02  0.45594000000E+02  0.51100000000E-03 0.  1.
    9900012    2    1    2    0    0 -0.39320235902E+02 -0.16107068864E+02 -0.88376801630E+01  0.47787271787E+02  0.20000003384E+02 0.  0.
         12    1    1    2    0    0  0.39320235902E+02  0.16107068864E+02  0.88376801630E+01  0.43400728213E+02  0.00000000000E+00 0. -1.
         11    1    3    3    0    0 -0.55701566090E+01  0.17323229089E+01  0.32232611186E+01  0.66646080012E+01  0.51100000000E-03 0. -1.
        -11    1    3    3    0    0 -0.49864663184E+01 -0.49167533130E+01 -0.55234449922E+01  0.89189547778E+01  0.51100000000E-03 0.  1.
         12    1    3    3    0    0 -0.28763612975E+02 -0.12922638460E+02 -0.65374962894E+01  0.32203709008E+02  0.00000000000E+00 0. -1.
</event>
<event>
 7    1  0.2812635E-010  0.4778727E+02  0.7816164E-02  0.1312668E+00
        -11   -1    0    0    0    0  0.00000000000E+00  0.00000000000E+00  0.45593999997E+02  0.45594000000E+02  0.51100000000E-03 0.  1.
         11   -1    0    0    0    0 -0.00000000000E+00 -0.00000000000E+00 -0.45593999997E+02  0.45594000000E+02  0.51100000000E-03 0. -1.
    9900012    2    1    2    0    0 -0.32331852589E+02 -0.18567266477E+02  0.22215562550E+02  0.47787270793E+02  0.19999998855E+02 0.  0.
         12    1    1    2    0    0  0.32331852589E+02  0.18567266477E+02 -0.22215562550E+02  0.43400729207E+02  0.00000000000E+00 0. -1.
         11    1    3    3    0    0 -0.41371704823E+01 -0.88977496350E+01  0.89425114694E+00  0.98532133612E+01  0.51100000000E-03 0. -1.
        -11    1    3    3    0    0 -0.76285420776E+01  0.22959074598E-01  0.98785372785E+01  0.12481213097E+02  0.51100000000E-03 0.  1.
        -12    1    3    3    0    0 -0.20566140029E+02 -0.96924759166E+01  0.11442774124E+02  0.25452844335E+02  0.00000000000E+00 0.  1.
</event>
<event>
 7    1  0.2812635E-010  0.4778727E+02  0.7816164E-02  0.1312668E+00
        -11   -1    0    0    0    0  0.00000000000E+00  0.00000000000E+00  0.45593999997E+02  0.45594000000E+02  0.51100000000E-03 0.  1.
         11   -1    0    0    0    0 -0.00000000000E+00 -0.00000000000E+00 -0.45593999997E+02  0.45594000000E+02  0.51100000000E-03 0. -1.
    9900012    2    1    2    0    0  0.39052967892E+02 -0.68042489030E+01  0.17668935668E+02  0.47787269685E+02  0.19999993800E+02 0.  0.
         12    1    1    2    0    0 -0.39052967892E+02  0.68042489030E+01 -0.17668935668E+02  0.43400730315E+02  0.00000000000E+00 0. -1.
         11    1    3    3    0    0  0.24205321586E+02 -0.53734122579E+01  0.18777466900E+02  0.31102482470E+02  0.51100000000E-03 0. -1.
        -11    1    3    3    0    0  0.63079770177E+01 -0.37256036863E+01 -0.24842891671E+01  0.77357863084E+01  0.51100000000E-03 0.  1.
        -12    1    3    3    0    0  0.85396692876E+01  0.22947670412E+01  0.13757579352E+01  0.89490009057E+01  0.00000000000E+00 0.  1.
</event>
<event>
 7    1  0.2812635E-010  0.4778727E+02  0.7816164E-02  0.1312668E+00
        -11   -1    0    0    0    0  0.00000000000E+00  0.00000000000E+00  0.45593999997E+02  0.45594000000E+02  0.51100000000E-03 0.  1.
         11   -1    0    0    0    0 -0.00000000000E+00 -0.00000000000E+00 -0.45593999997E+02  0.45594000000E+02  0.51100000000E-03 0. -1.
    9900012    2    1    2    0    0 -0.10683057078E+02 -0.38571649729E+02  0.16784615190E+02  0.47787272145E+02  0.20000005016E+02 0.  0.
         12    1    1    2    0    0  0.10683057078E+02  0.38571649729E+02 -0.16784615190E+02  0.43400727855E+02  0.00000000000E+00 0. -1.
         11    1    3    3    0    0  0.44688887002E+01 -0.15587612392E+01  0.18061928646E+01  0.50658696925E+01  0.51100000000E-03 0. -1.
        -11    1    3    3    0    0 -0.94909747463E+01 -0.24536537848E+02  0.99775130029E+01  0.28136649715E+02  0.51100000000E-03 0.  1.
         12    1    3    3    0    0 -0.56609710318E+01 -0.12476350641E+02  0.50009093221E+01  0.14584752737E+02  0.00000000000E+00 0. -1.
</event>
<event>
 7    1  0.2812635E-010  0.4778729E+02  0.7816164E-02  0.1312668E+00
        -11   -1    0    0    0    0  0.00000000000E+00  0.00000000000E+00  0.45593999997E+02  0.45594000000E+02  0.51100000000E-03 0.  1.
         11   -1    0    0    0    0 -0.00000000000E+00 -0.00000000000E+00 -0.45593999997E+02  0.45594000000E+02  0.51100000000E-03 0. -1.
    9900012    2    1    2    0    0 -0.16386463553E+02  0.12933732610E+01  0.40167561977E+02  0.47787285290E+02  0.20000064953E+02 0.  0.
         12    1    1    2    0    0  0.16386463553E+02 -0.12933732610E+01 -0.40167561977E+02  0.43400714710E+02  0.00000000000E+00 0. -1.
         11    1    3    3    0    0 -0.87944236516E+01  0.35674555231E+01  0.59198656275E+01  0.11185411731E+02  0.51100000000E-03 0. -1.
        -11    1    3    3    0    0 -0.48956813457E+01 -0.62592544740E+01  0.18472425521E+02  0.20109114035E+02  0.51100000000E-03 0.  1.
         12    1    3    3    0    0 -0.26963585557E+01  0.39851722119E+01  0.15775270829E+02  0.16492759524E+02  0.00000000000E+00 0. -1.
</event>
<event>
 7    1  0.2812635E-010  0.4778727E+02  0.7816164E-02  0.1312668E+00
        -11   -1    0    0    0    0  0.00000000000E+00  0.00000000000E+00  0.45593999997E+02  0.45594000000E+02  0.51100000000E-03 0.  1.
         11   -1    0    0    0    0 -0.00000000000E+00 -0.00000000000E+00 -0.45593999997E+02  0.45594000000E+02  0.51100000000E-03 0. -1.
    9900012    2    1    2    0    0  0.18820222754E+02 -0.30670400668E+02  0.24264145904E+02  0.47787273761E+02  0.20000012385E+02 0.  0.
         12    1    1    2    0    0 -0.18820222754E+02  0.30670400668E+02 -0.24264145904E+02  0.43400726239E+02  0.00000000000E+00 0. -1.
         11    1    3    3    0    0 -0.10378508535E+01 -0.33863387787E+01  0.27664021118E+01  0.44941523810E+01  0.51100000000E-03 0. -1.
        -11    1    3    3    0    0  0.98972405611E+01 -0.24683702914E+02  0.11605538504E+02  0.29016014276E+02  0.51100000000E-03 0.  1.
        -12    1    3    3    0    0  0.99608330465E+01 -0.26003589753E+01  0.98922052883E+01  0.14277107104E+02  0.00000000000E+00 0.  1.
</event>
<event>
 7    1  0.2812635E-010  0.4778730E+02  0.7816164E-02  0.1312668E+00
        -11   -1    0    0    0    0  0.00000000000E+00  0.00000000000E+00  0.45593999997E+02  0.45594000000E+02  0.51100000000E-03 0.  1.
         11   -1    0    0    0    0 -0.00000000000E+00 -0.00000000000E+00 -0.45593999997E+02  0.45594000000E+02  0.51100000000E-03 0. -1.
    9900012    2    1    2    0    0 -0.37073886706E+02 -0.33338335653E+01  0.22316664241E+02  0.47787296958E+02  0.20000118148E+02 0.  0.
         12    1    1    2    0    0  0.37073886706E+02  0.33338335653E+01 -0.22316664241E+02  0.43400703042E+02  0.00000000000E+00 0. -1.
         11    1    3    3    0    0 -0.43401157628E+01 -0.29109398635E+01 -0.28143129244E+00  0.52334863673E+01  0.51100000000E-03 0. -1.
        -11    1    3    3    0    0 -0.10544275879E+02  0.26335136832E+01  0.18916648211E+00  0.10869817494E+02  0.51100000000E-03 0.  1.
        -12    1    3    3    0    0 -0.22189495064E+02 -0.30564073849E+01  0.22408929052E+02  0.31683993097E+02  0.00000000000E+00 0.  1.
</event>
<event>
 7    1  0.2812635E-010  0.4778724E+02  0.7816164E-02  0.1312668E+00
        -11   -1    0    0    0    0  0.00000000000E+00  0.00000000000E+00  0.45593999997E+02  0.45594000000E+02  0.51100000000E-03 0.  1.
         11   -1    0    0    0    0 -0.00000000000E+00 -0.00000000000E+00 -0.45593999997E+02  0.45594000000E+02  0.51100000000E-03 0. -1.
    9900012    2    1    2    0    0  0.20050745021E+02 -0.19316088636E+02  0.33293877297E+02  0.47787240542E+02  0.19999860927E+02 0.  0.
         12    1    1    2    0    0 -0.20050745021E+02  0.19316088636E+02 -0.33293877297E+02  0.43400759458E+02  0.00000000000E+00 0. -1.
         11    1    3    3    0    0 -0.60499169194E+00 -0.52870743154E+01  0.36621680402E+01  0.64599260661E+01  0.51100000000E-03 0. -1.
        -11    1    3    3    0    0  0.17858848034E+02 -0.16784037035E+02  0.22940776704E+02  0.33569652788E+02  0.51100000000E-03 0.  1.
        -12    1    3    3    0    0  0.27968886789E+01  0.27550227143E+01  0.66909325523E+01  0.77576616875E+01  0.00000000000E+00 0.  1.
</event>
<event>
 7    1  0.2812635E-010  0.4778727E+02  0.7816164E-02  0.1312668E+00
        -11   -1    0    0    0    0  0.00000000000E+00  0.00000000000E+00  0.45593999997E+02  0.45594000000E+02  0.51100000000E-03 0.  1.
         11   -1    0    0    0    0 -0.00000000000E+00 -0.00000000000E+00 -0.45593999997E+02  0.45594000000E+02  0.51100000000E-03 0. -1.
    9900012    2    1    2    0    0  0.64907019526E+01  0.13742827842E+02  0.40652533849E+02  0.47787273770E+02  0.20000012427E+02 0.  0.
         12    1    1    2    0    0 -0.64907019526E+01 -0.13742827842E+02 -0.40652533849E+02  0.43400726230E+02  0.00000000000E+00 0. -1.
         11    1    3    3    0    0 -0.34666857447E+01  0.76132509902E+01  0.44371098280E+01  0.94692895498E+01  0.51100000000E-03 0. -1.
        -11    1    3    3    0    0  0.71736927425E+01  0.29586069250E+01  0.28343064797E+02  0.29386128443E+02  0.51100000000E-03 0.  1.
        -12    1    3    3    0    0  0.27836949547E+01  0.31709699266E+01  0.78723592244E+01  0.89318557777E+01  0.00000000000E+00 0.  1.
</event>
<event>
 7    1  0.2812635E-010  0.4778727E+02  0.7816164E-02  0.1312668E+00
        -11   -1    0    0    0    0  0.00000000000E+00  0.00000000000E+00  0.45593999997E+02  0.45594000000E+02  0.51100000000E-03 0.  1.
         11   -1    0    0    0    0 -0.00000000000E+00 -0.00000000000E+00 -0.45593999997E+02  0.45594000000E+02  0.51100000000E-03 0. -1.
    9900012    2    1    2    0    0  0.20228721968E+02  0.15208535364E+02  0.35257942256E+02  0.47787271521E+02  0.20000002173E+02 0.  0.
         12    1    1    2    0    0 -0.20228721968E+02 -0.15208535364E+02 -0.35257942256E+02  0.43400728479E+02  0.00000000000E+00 0. -1.
         11    1    3    3    0    0 -0.17051983886E+01 -0.15999860385E-01  0.11648456854E+02  0.11772616739E+02  0.51100000000E-03 0. -1.
        -11    1    3    3    0    0  0.14587870410E+02  0.11987081717E+02  0.14071150192E+02  0.23547682671E+02  0.51100000000E-03 0.  1.
         12    1    3    3    0    0  0.73460499464E+01  0.32374535067E+01  0.95383352104E+01  0.12466972111E+02  0.00000000000E+00 0. -1.
</event>
<event>
 7    1  0.2812635E-010  0.4778727E+02  0.7816164E-02  0.1312668E+00
        -11   -1    0    0    0    0  0.00000000000E+00  0.00000000000E+00  0.45593999997E+02  0.45594000000E+02  0.51100000000E-03 0.  1.
         11   -1    0    0    0    0 -0.00000000000E+00 -0.00000000000E+00 -0.45593999997E+02  0.45594000000E+02  0.51100000000E-03 0. -1.
    9900012    2    1    2    0    0 -0.42570395217E+02 -0.23731305781E+01  0.81088093779E+01  0.47787273195E+02  0.20000009805E+02 0.  0.
         12    1    1    2    0    0  0.42570395217E+02  0.23731305781E+01 -0.81088093779E+01  0.43400726805E+02  0.00000000000E+00 0. -1.
         11    1    3    3    0    0 -0.13088349817E+02 -0.88831821076E+01  0.39407439501E+01  0.16301695876E+02  0.51100000000E-03 0. -1.
        -11    1    3    3    0    0 -0.28302347240E+02  0.49092883094E+01  0.52816434587E+01  0.29206501483E+02  0.51100000000E-03 0.  1.
         12    1    3    3    0    0 -0.11796981603E+01  0.16007632202E+01 -0.11135780310E+01  0.22790758363E+01  0.00000000000E+00 0. -1.
</event>
<event>
 7    1  0.2812635E-010  0.4778727E+02  0.7816164E-02  0.1312668E+00
        -11   -1    0    0    0    0  0.00000000000E+00  0.00000000000E+00  0.45593999997E+02  0.45594000000E+02  0.51100000000E-03 0.  1.
         11   -1    0    0    0    0 -0.00000000000E+00 -0.00000000000E+00 -0.45593999997E+02  0.45594000000E+02  0.51100000000E-03 0. -1.
    9900012    2    1    2    0    0  0.40565818037E+02 -0.12874157241E+02  0.85025808824E+01  0.47787269599E+02  0.19999993410E+02 0.  0.
         12    1    1    2    0    0 -0.40565818037E+02  0.12874157241E+02 -0.85025808824E+01  0.43400730401E+02  0.00000000000E+00 0. -1.
         11    1    3    3    0    0  0.66137141001E+01 -0.17976042943E+01 -0.58212417633E+01  0.89921883501E+01  0.51100000000E-03 0.  1.
        -11    1    3    3    0    0  0.12091683534E+02 -0.15237505073E+01  0.52788010581E+01  0.13281429410E+02  0.51100000000E-03 0. -1.
         12    1    3    3    0    0  0.21860420403E+02 -0.95528024398E+01  0.90450215877E+01  0.25513651839E+02  0.00000000000E+00 0. -1.
</event>
<event>
 7    1  0.2812635E-010  0.4778727E+02  0.7816164E-02  0.1312668E+00
        -11   -1    0    0    0    0  0.00000000000E+00  0.00000000000E+00  0.45593999997E+02  0.45594000000E+02  0.51100000000E-03 0.  1.
         11   -1    0    0    0    0 -0.00000000000E+00 -0.00000000000E+00 -0.45593999997E+02  0.45594000000E+02  0.51100000000E-03 0. -1.
    9900012    2    1    2    0    0  0.19235737724E+02 -0.28415514816E+02  0.26573828041E+02  0.47787269306E+02  0.19999992074E+02 0.  0.
         12    1    1    2    0    0 -0.19235737724E+02  0.28415514816E+02 -0.26573828041E+02  0.43400730694E+02  0.00000000000E+00 0. -1.
         11    1    3    3    0    0  0.38208465126E+01 -0.36921086572E+00  0.85043606622E+01  0.93305592153E+01  0.51100000000E-03 0. -1.
        -11    1    3    3    0    0  0.28952759008E+01 -0.12297952828E+02  0.21813065385E+01  0.12821090623E+02  0.51100000000E-03 0.  1.
        -12    1    3    3    0    0  0.12519615310E+02 -0.15748351122E+02  0.15888160840E+02  0.25635619467E+02  0.00000000000E+00 0.  1.
</event>
<event>
 7    1  0.2812635E-010  0.4778727E+02  0.7816164E-02  0.1312668E+00
        -11   -1    0    0    0    0  0.00000000000E+00  0.00000000000E+00  0.45593999997E+02  0.45594000000E+02  0.51100000000E-03 0.  1.
         11   -1    0    0    0    0 -0.00000000000E+00 -0.00000000000E+00 -0.45593999997E+02  0.45594000000E+02  0.51100000000E-03 0. -1.
    9900012    2    1    2    0    0  0.19122247655E+02  0.91807056520E+01  0.37863930974E+02  0.47787274425E+02  0.20000015414E+02 0.  0.
         12    1    1    2    0    0 -0.19122247655E+02 -0.91807056520E+01 -0.37863930974E+02  0.43400725575E+02  0.00000000000E+00 0. -1.
         11    1    3    3    0    0  0.50698282386E+01 -0.59283760509E+01  0.96750556877E+01  0.12428012866E+02  0.51100000000E-03 0. -1.
        -11    1    3    3    0    0  0.75766719344E+01  0.11066932161E+02  0.15010277366E+02  0.20129365910E+02  0.51100000000E-03 0.  1.
         12    1    3    3    0    0  0.64757474819E+01  0.40421495417E+01  0.13178597920E+02  0.15229895649E+02  0.00000000000E+00 0. -1.
</event>
<event>
 7    1  0.2812635E-010  0.4778727E+02  0.7816164E-02  0.1312668E+00
        -11   -1    0    0    0    0  0.00000000000E+00  0.00000000000E+00  0.45593999997E+02  0.45594000000E+02  0.51100000000E-03 0. -1.
         11   -1    0    0    0    0 -0.00000000000E+00 -0.00000000000E+00 -0.45593999997E+02  0.45594000000E+02  0.51100000000E-03 0.  1.
    9900012    2    1    2    0    0  0.31009605092E+02  0.26894750108E+02 -0.14096104019E+02  0.47787270284E+02  0.19999996532E+02 0.  0.
         12    1    1    2    0    0 -0.31009605092E+02 -0.26894750108E+02  0.14096104019E+02  0.43400729716E+02  0.00000000000E+00 0. -1.
         11    1    3    3    0    0  0.49101432800E+01  0.95610761624E+01 -0.78325269276E+01  0.13299329410E+02  0.51100000000E-03 0. -1.
        -11    1    3    3    0    0  0.24672101486E+02  0.13112365180E+02 -0.15226062132E+01  0.27981512509E+02  0.51100000000E-03 0.  1.
        -12    1    3    3    0    0  0.14273603260E+01  0.42213087658E+01 -0.47409708785E+01  0.65064283648E+01  0.00000000000E+00 0.  1.
</event>
<event>
 7    1  0.2812635E-010  0.4778727E+02  0.7816164E-02  0.1312668E+00
        -11   -1    0    0    0    0  0.00000000000E+00  0.00000000000E+00  0.45593999997E+02  0.45594000000E+02  0.51100000000E-03 0.  1.
         11   -1    0    0    0    0 -0.00000000000E+00 -0.00000000000E+00 -0.45593999997E+02  0.45594000000E+02  0.51100000000E-03 0. -1.
    9900012    2    1    2    0    0  0.18260300945E+02 -0.34628399869E+02  0.18736555375E+02  0.47787272179E+02  0.20000005172E+02 0.  0.
         12    1    1    2    0    0 -0.18260300945E+02  0.34628399869E+02 -0.18736555375E+02  0.43400727821E+02  0.00000000000E+00 0. -1.
         11    1    3    3    0    0  0.20386497295E+02 -0.33127428371E+02  0.19851966715E+02  0.43670772436E+02  0.51100000000E-03 0.  1.
        -11    1    3    3    0    0 -0.27167889949E+01 -0.14313178428E+01 -0.14905191930E+01  0.34133943422E+01  0.51100000000E-03 0. -1.
        -12    1    3    3    0    0  0.59059264410E+00 -0.69653655228E-01  0.37510785268E+00  0.70310540041E+00  0.00000000000E+00 0.  1.
</event>
<event>
 7    1  0.2812635E-010  0.4778727E+02  0.7816164E-02  0.1312668E+00
        -11   -1    0    0    0    0  0.00000000000E+00  0.00000000000E+00  0.45593999997E+02  0.45594000000E+02  0.51100000000E-03 0.  1.
         11   -1    0    0    0    0 -0.00000000000E+00 -0.00000000000E+00 -0.45593999997E+02  0.45594000000E+02  0.51100000000E-03 0. -1.
    9900012    2    1    2    0    0 -0.14908330094E+02 -0.18938692134E+02  0.36092809457E+02  0.47787271199E+02  0.20000000704E+02 0.  0.
         12    1    1    2    0    0  0.14908330094E+02  0.18938692134E+02 -0.36092809457E+02  0.43400728801E+02  0.00000000000E+00 0. -1.
         11    1    3    3    0    0 -0.36674463742E+01 -0.29224607697E+01  0.11357234931E+01  0.48250189608E+01  0.51100000000E-03 0. -1.
        -11    1    3    3    0    0 -0.60316154713E+01  0.11736973326E+01  0.14443159775E+02  0.15695949005E+02  0.51100000000E-03 0.  1.
        -12    1    3    3    0    0 -0.52092682483E+01 -0.17189928697E+02  0.20513926189E+02  0.27266303233E+02  0.00000000000E+00 0.  1.
</event>
<event>
 7    1  0.2812635E-010  0.4778727E+02  0.7816164E-02  0.1312668E+00
        -11   -1    0    0    0    0  0.00000000000E+00  0.00000000000E+00  0.45593999997E+02  0.45594000000E+02  0.51100000000E-03 0.  1.
         11   -1    0    0    0    0 -0.00000000000E+00 -0.00000000000E+00 -0.45593999997E+02  0.45594000000E+02  0.51100000000E-03 0. -1.
    9900012    2    1    2    0    0  0.32743133180E+01 -0.27669893550E+02  0.33275804296E+02  0.47787270878E+02  0.19999999241E+02 0.  0.
         12    1    1    2    0    0 -0.32743133180E+01  0.27669893550E+02 -0.33275804296E+02  0.43400729122E+02  0.00000000000E+00 0. -1.
         11    1    3    3    0    0  0.62253157880E+01 -0.50025577047E+01  0.13001541870E+02  0.15258447874E+02  0.51100000000E-03 0. -1.
        -11    1    3    3    0    0 -0.40931448682E+01 -0.11708586085E+02  0.16982035735E+02  0.21029369011E+02  0.51100000000E-03 0.  1.
         12    1    3    3    0    0  0.11421423982E+01 -0.10958749760E+02  0.32922266905E+01  0.11499453993E+02  0.00000000000E+00 0. -1.
</event>
<event>
 7    1  0.2812635E-010  0.4778727E+02  0.7816164E-02  0.1312668E+00
        -11   -1    0    0    0    0  0.00000000000E+00  0.00000000000E+00  0.45593999997E+02  0.45594000000E+02  0.51100000000E-03 0.  1.
         11   -1    0    0    0    0 -0.00000000000E+00 -0.00000000000E+00 -0.45593999997E+02  0.45594000000E+02  0.51100000000E-03 0. -1.
    9900012    2    1    2    0    0 -0.21894525957E+02 -0.25003695478E+02  0.27911792301E+02  0.47787271851E+02  0.20000003676E+02 0.  0.
         12    1    1    2    0    0  0.21894525957E+02  0.25003695478E+02 -0.27911792301E+02  0.43400728149E+02  0.00000000000E+00 0. -1.
         11    1    3    3    0    0 -0.75931829298E+01  0.12816548353E+01  0.10152089999E+02  0.12742213220E+02  0.51100000000E-03 0. -1.
        -11    1    3    3    0    0 -0.67089865412E+01 -0.16499265212E+02  0.99363967129E+01  0.20395299283E+02  0.51100000000E-03 0.  1.
        -12    1    3    3    0    0 -0.75923564861E+01 -0.97860851018E+01  0.78233055883E+01  0.14649759348E+02  0.00000000000E+00 0.  1.
</event>
<event>
 7    1  0.2812635E-010  0.4778727E+02  0.7816164E-02  0.1312668E+00
        -11   -1    0    0    0    0  0.00000000000E+00  0.00000000000E+00  0.45593999997E+02  0.45594000000E+02  0.51100000000E-03 0. -1.
         11   -1    0    0    0    0 -0.00000000000E+00 -0.00000000000E+00 -0.45593999997E+02  0.45594000000E+02  0.51100000000E-03 0.  1.
    9900012    2    1    2    0    0 -0.35133220472E+02 -0.17363916798E+02 -0.18648716787E+02  0.47787269302E+02  0.19999992056E+02 0.  0.
         12    1    1    2    0    0  0.35133220472E+02  0.17363916798E+02  0.18648716787E+02  0.43400730698E+02  0.00000000000E+00 0. -1.
         11    1    3    3    0    0 -0.26076070968E+02 -0.16694248601E+02 -0.14381633258E+02  0.34139285126E+02  0.51100000000E-03 0. -1.
        -11    1    3    3    0    0 -0.18385938356E+01 -0.37782908730E+01  0.82638098740E+00  0.42823842670E+01  0.51100000000E-03 0.  1.
         12    1    3    3    0    0 -0.72185556683E+01  0.31086226758E+01 -0.50934645165E+01  0.93655999092E+01  0.00000000000E+00 0. -1.
</event>
<event>
 7    1  0.2812635E-010  0.4778727E+02  0.7816164E-02  0.1312668E+00
        -11   -1    0    0    0    0  0.00000000000E+00  0.00000000000E+00  0.45593999997E+02  0.45594000000E+02  0.51100000000E-03 0.  1.
         11   -1    0    0    0    0 -0.00000000000E+00 -0.00000000000E+00 -0.45593999997E+02  0.45594000000E+02  0.51100000000E-03 0. -1.
    9900012    2    1    2    0    0  0.43282894143E+02  0.30072951033E+01 -0.10817695218E+01  0.47787274493E+02  0.20000015723E+02 0.  0.
         12    1    1    2    0    0 -0.43282894143E+02 -0.30072951033E+01  0.10817695218E+01  0.43400725507E+02  0.00000000000E+00 0. -1.
         11    1    3    3    0    0  0.84666955332E+01  0.24637152668E+01 -0.53443616549E+01  0.10311014883E+02  0.51100000000E-03 0. -1.
        -11    1    3    3    0    0  0.32873607259E+02 -0.24434537104E+01  0.15547333767E+01  0.33000935084E+02  0.51100000000E-03 0.  1.
        -12    1    3    3    0    0  0.19425913505E+01  0.29870335469E+01  0.27078587564E+01  0.44753245257E+01  0.00000000000E+00 0.  1.
</event>
<event>
 7    1  0.2812635E-010  0.4778725E+02  0.7816164E-02  0.1312668E+00
        -11   -1    0    0    0    0  0.00000000000E+00  0.00000000000E+00  0.45593999997E+02  0.45594000000E+02  0.51100000000E-03 0.  1.
         11   -1    0    0    0    0 -0.00000000000E+00 -0.00000000000E+00 -0.45593999997E+02  0.45594000000E+02  0.51100000000E-03 0. -1.
    9900012    2    1    2    0    0 -0.28821137048E+02  0.34945459977E+01  0.32260740078E+02  0.47787249513E+02  0.19999901830E+02 0.  0.
         12    1    1    2    0    0  0.28821137048E+02 -0.34945459977E+01 -0.32260740078E+02  0.43400750487E+02  0.00000000000E+00 0. -1.
         11    1    3    3    0    0  0.57765621238E+00  0.14613170215E+01  0.72568136359E+01  0.74249901377E+01  0.51100000000E-03 0. -1.
        -11    1    3    3    0    0 -0.25540287112E+02 -0.17363762184E+01  0.23529611605E+02  0.34770158048E+02  0.51100000000E-03 0.  1.
        -12    1    3    3    0    0 -0.38585061483E+01  0.37696051946E+01  0.14743148370E+01  0.55921013276E+01  0.00000000000E+00 0.  1.
</event>
<event>
 7    1  0.2812635E-010  0.4778727E+02  0.7816164E-02  0.1312668E+00
        -11   -1    0    0    0    0  0.00000000000E+00  0.00000000000E+00  0.45593999997E+02  0.45594000000E+02  0.51100000000E-03 0. -1.
         11   -1    0    0    0    0 -0.00000000000E+00 -0.00000000000E+00 -0.45593999997E+02  0.45594000000E+02  0.51100000000E-03 0.  1.
    9900012    2    1    2    0    0  0.36486664535E+02 -0.22375521636E+02  0.71890793510E+01  0.47787268217E+02  0.19999987110E+02 0.  0.
         12    1    1    2    0    0 -0.36486664535E+02  0.22375521636E+02 -0.71890793510E+01  0.43400731783E+02  0.00000000000E+00 0. -1.
         11    1    3    3    0    0  0.13551473293E+02 -0.37178725819E+01 -0.29521811332E+01  0.14358982508E+02  0.51100000000E-03 0. -1.
        -11    1    3    3    0    0  0.15094616146E+02 -0.18663929239E+02  0.79724985016E+01  0.25293288118E+02  0.51100000000E-03 0.  1.
         12    1    3    3    0    0  0.78405750959E+01  0.62801849060E-02  0.21687619826E+01  0.81349975914E+01  0.00000000000E+00 0. -1.
</event>
<event>
 7    1  0.2812635E-010  0.4778727E+02  0.7816164E-02  0.1312668E+00
        -11   -1    0    0    0    0  0.00000000000E+00  0.00000000000E+00  0.45593999997E+02  0.45594000000E+02  0.51100000000E-03 0.  1.
         11   -1    0    0    0    0 -0.00000000000E+00 -0.00000000000E+00 -0.45593999997E+02  0.45594000000E+02  0.51100000000E-03 0. -1.
    9900012    2    1    2    0    0 -0.33100735922E+02  0.21464487940E+02  0.18089783538E+02  0.47787271556E+02  0.20000002331E+02 0.  0.
         12    1    1    2    0    0  0.33100735922E+02 -0.21464487940E+02 -0.18089783538E+02  0.43400728444E+02  0.00000000000E+00 0. -1.
         11    1    3    3    0    0 -0.10964754294E+02  0.13292335787E+02  0.52820856575E+00  0.17239229448E+02  0.51100000000E-03 0. -1.
        -11    1    3    3    0    0  0.38427882326E+00 -0.60535752493E+00  0.86706794693E-01  0.72225084033E+00  0.51100000000E-03 0.  1.
         12    1    3    3    0    0 -0.22520260451E+02  0.87775096772E+01  0.17474868177E+02  0.29825791267E+02  0.00000000000E+00 0. -1.
</event>
<event>
 7    1  0.2812635E-010  0.4778727E+02  0.7816164E-02  0.1312668E+00
        -11   -1    0    0    0    0  0.00000000000E+00  0.00000000000E+00  0.45593999997E+02  0.45594000000E+02  0.51100000000E-03 0.  1.
         11   -1    0    0    0    0 -0.00000000000E+00 -0.00000000000E+00 -0.45593999997E+02  0.45594000000E+02  0.51100000000E-03 0. -1.
    9900012    2    1    2    0    0  0.40780795638E+02 -0.28966603652E+01 -0.14565684701E+02  0.47787272991E+02  0.20000008874E+02 0.  0.
         12    1    1    2    0    0 -0.40780795638E+02  0.28966603652E+01  0.14565684701E+02  0.43400727009E+02  0.00000000000E+00 0. -1.
         11    1    3    3    0    0 -0.82424984632E+00  0.94124383918E+00 -0.32816192751E+00  0.12934520810E+01  0.51100000000E-03 0. -1.
        -11    1    3    3    0    0  0.37542528743E+02 -0.18844078209E+01 -0.74111956814E+01  0.38313421655E+02  0.51100000000E-03 0.  1.
        -12    1    3    3    0    0  0.40625167411E+01 -0.19534963835E+01 -0.68263270921E+01  0.81803992543E+01  0.00000000000E+00 0.  1.
</event>
<event>
 7    1  0.2812635E-010  0.4778727E+02  0.7816164E-02  0.1312668E+00
        -11   -1    0    0    0    0  0.00000000000E+00  0.00000000000E+00  0.45593999997E+02  0.45594000000E+02  0.51100000000E-03 0. -1.
         11   -1    0    0    0    0 -0.00000000000E+00 -0.00000000000E+00 -0.45593999997E+02  0.45594000000E+02  0.51100000000E-03 0.  1.
    9900012    2    1    2    0    0 -0.24778680584E+02 -0.32173191667E+02 -0.15314243058E+02  0.47787270583E+02  0.19999997895E+02 0.  0.
         12    1    1    2    0    0  0.24778680584E+02  0.32173191667E+02  0.15314243058E+02  0.43400729417E+02  0.00000000000E+00 0. -1.
         11    1    3    3    0    0 -0.13926364100E+02 -0.59724334810E+01 -0.33698952151E+01  0.15523201112E+02  0.51100000000E-03 0. -1.
        -11    1    3    3    0    0 -0.35078390318E+01 -0.12594280443E+02 -0.10436742976E+02  0.16728611381E+02  0.51100000000E-03 0.  1.
        -12    1    3    3    0    0 -0.73444774519E+01 -0.13606477743E+02 -0.15076048665E+01  0.15535458090E+02  0.00000000000E+00 0.  1.
</event>
<event>
 7    1  0.2812635E-010  0.4778726E+02  0.7816164E-02  0.1312668E+00
        -11   -1    0    0    0    0  0.00000000000E+00  0.00000000000E+00  0.45593999997E+02  0.45594000000E+02  0.51100000000E-03 0.  1.
         11   -1    0    0    0    0 -0.00000000000E+00 -0.00000000000E+00 -0.45593999997E+02  0.45594000000E+02  0.51100000000E-03 0. -1.
    9900012    2    1    2    0    0  0.40621304265E+00  0.20064107646E+01  0.43352434540E+02  0.47787259526E+02  0.19999947482E+02 0.  0.
         12    1    1    2    0    0 -0.40621304265E+00 -0.20064107646E+01 -0.43352434540E+02  0.43400740474E+02  0.00000000000E+00 0. -1.
         11    1    3    3    0    0  0.27101021296E+01  0.33054324309E+01  0.23425248711E+01  0.48742137972E+01  0.51100000000E-03 0. -1.
        -11    1    3    3    0    0 -0.11928106402E+01 -0.30502838955E+01  0.40681608811E+02  0.40813237127E+02  0.51100000000E-03 0.  1.
        -12    1    3    3    0    0 -0.11110784468E+01  0.17512622292E+01  0.32830085756E+00  0.20998086016E+01  0.00000000000E+00 0.  1.
</event>
<event>
 7    1  0.2812635E-010  0.4778728E+02  0.7816164E-02  0.1312668E+00
        -11   -1    0    0    0    0  0.00000000000E+00  0.00000000000E+00  0.45593999997E+02  0.45594000000E+02  0.51100000000E-03 0.  1.
         11   -1    0    0    0    0 -0.00000000000E+00 -0.00000000000E+00 -0.45593999997E+02  0.45594000000E+02  0.51100000000E-03 0. -1.
    9900012    2    1    2    0    0 -0.29887373486E+02  0.27960704886E+02 -0.14441841949E+02  0.47787275231E+02  0.20000019087E+02 0.  0.
         12    1    1    2    0    0  0.29887373486E+02 -0.27960704886E+02  0.14441841949E+02  0.43400724769E+02  0.00000000000E+00 0. -1.
         11    1    3    3    0    0 -0.16518829841E+02  0.47526844090E+01 -0.50133173572E+01  0.17905113784E+02  0.51100000000E-03 0. -1.
        -11    1    3    3    0    0 -0.59690613468E+00  0.98620658431E+01 -0.30717026151E+01  0.10346593490E+02  0.51100000000E-03 0.  1.
        -12    1    3    3    0    0 -0.12771637510E+02  0.13345954634E+02 -0.63568219768E+01  0.19535567957E+02  0.00000000000E+00 0.  1.
</event>
<event>
 7    1  0.2812635E-010  0.4778727E+02  0.7816164E-02  0.1312668E+00
        -11   -1    0    0    0    0  0.00000000000E+00  0.00000000000E+00  0.45593999997E+02  0.45594000000E+02  0.51100000000E-03 0.  1.
         11   -1    0    0    0    0 -0.00000000000E+00 -0.00000000000E+00 -0.45593999997E+02  0.45594000000E+02  0.51100000000E-03 0. -1.
    9900012    2    1    2    0    0  0.25871140206E+02 -0.34676707618E+02 -0.34399823934E+01  0.47787269296E+02  0.19999992026E+02 0.  0.
         12    1    1    2    0    0 -0.25871140206E+02  0.34676707618E+02  0.34399823934E+01  0.43400730704E+02  0.00000000000E+00 0. -1.
         11    1    3    3    0    0  0.21940978127E+02 -0.21585306729E+02 -0.10319548717E+02  0.32462672005E+02  0.51100000000E-03 0. -1.
        -11    1    3    3    0    0  0.20032398568E+01 -0.75095728714E+01  0.35372268036E+01  0.85392405023E+01  0.51100000000E-03 0.  1.
         12    1    3    3    0    0  0.19269222227E+01 -0.55818280179E+01  0.33423395200E+01  0.67853567881E+01  0.00000000000E+00 0. -1.
</event>
<event>
 7    1  0.2812635E-010  0.4778727E+02  0.7816164E-02  0.1312668E+00
        -11   -1    0    0    0    0  0.00000000000E+00  0.00000000000E+00  0.45593999997E+02  0.45594000000E+02  0.51100000000E-03 0.  1.
         11   -1    0    0    0    0 -0.00000000000E+00 -0.00000000000E+00 -0.45593999997E+02  0.45594000000E+02  0.51100000000E-03 0. -1.
    9900012    2    1    2    0    0 -0.18644208973E+02  0.11260343165E+02  0.37539598427E+02  0.47787270669E+02  0.19999998288E+02 0.  0.
         12    1    1    2    0    0  0.18644208973E+02 -0.11260343165E+02 -0.37539598427E+02  0.43400729331E+02  0.00000000000E+00 0. -1.
         11    1    3    3    0    0  0.13115840901E+01  0.51289132272E+01  0.16957423339E+02  0.17764577402E+02  0.51100000000E-03 0. -1.
        -11    1    3    3    0    0 -0.12978356398E+02  0.70694391874E+00  0.12902849989E+02  0.18314503613E+02  0.51100000000E-03 0.  1.
        -12    1    3    3    0    0 -0.69774366652E+01  0.54244860190E+01  0.76793250988E+01  0.11708189653E+02  0.00000000000E+00 0.  1.
</event>
<event>
 7    1  0.2812635E-010  0.4778727E+02  0.7816164E-02  0.1312668E+00
        -11   -1    0    0    0    0  0.00000000000E+00  0.00000000000E+00  0.45593999997E+02  0.45594000000E+02  0.51100000000E-03 0.  1.
         11   -1    0    0    0    0 -0.00000000000E+00 -0.00000000000E+00 -0.45593999997E+02  0.45594000000E+02  0.51100000000E-03 0. -1.
    9900012    2    1    2    0    0 -0.36649546140E+02 -0.17679539475E+02  0.15095294530E+02  0.47787271144E+02  0.20000000454E+02 0.  0.
         12    1    1    2    0    0  0.36649546140E+02  0.17679539475E+02 -0.15095294530E+02  0.43400728856E+02  0.00000000000E+00 0. -1.
         11    1    3    3    0    0 -0.95062529668E+01 -0.35338001227E+01  0.10442392083E+02  0.14556790218E+02  0.51100000000E-03 0. -1.
        -11    1    3    3    0    0 -0.22544842920E+02 -0.67462886609E+01  0.40017682627E+00  0.23535982978E+02  0.51100000000E-03 0.  1.
        -12    1    3    3    0    0 -0.45984502529E+01 -0.73994506914E+01  0.42527256206E+01  0.96944979482E+01  0.00000000000E+00 0.  1.
</event>
<event>
 7    1  0.2812635E-010  0.4778727E+02  0.7816164E-02  0.1312668E+00
        -11   -1    0    0    0    0  0.00000000000E+00  0.00000000000E+00  0.45593999997E+02  0.45594000000E+02  0.51100000000E-03 0. -1.
         11   -1    0    0    0    0 -0.00000000000E+00 -0.00000000000E+00 -0.45593999997E+02  0.45594000000E+02  0.51100000000E-03 0.  1.
    9900012    2    1    2    0    0 -0.22629103397E+01 -0.40140047276E+02 -0.16348669833E+02  0.47787272312E+02  0.20000005781E+02 0.  0.
         12    1    1    2    0    0  0.22629103397E+01  0.40140047276E+02  0.16348669833E+02  0.43400727688E+02  0.00000000000E+00 0. -1.
         11    1    3    3    0    0  0.76318632480E+01 -0.11795132146E+02 -0.17083725699E+01  0.14152350197E+02  0.51100000000E-03 0. -1.
        -11    1    3    3    0    0 -0.61292778876E+01 -0.11706711358E+02 -0.67821231079E+01  0.14853024350E+02  0.51100000000E-03 0.  1.
         12    1    3    3    0    0 -0.37654957001E+01 -0.16638203772E+02 -0.78581741556E+01  0.18781897765E+02  0.00000000000E+00 0. -1.
</event>
<event>
 7    1  0.2812635E-010  0.4778727E+02  0.7816164E-02  0.1312668E+00
        -11   -1    0    0    0    0  0.00000000000E+00  0.00000000000E+00  0.45593999997E+02  0.45594000000E+02  0.51100000000E-03 0. -1.
         11   -1    0    0    0    0 -0.00000000000E+00 -0.00000000000E+00 -0.45593999997E+02  0.45594000000E+02  0.51100000000E-03 0.  1.
    9900012    2    1    2    0    0 -0.22549471546E+01  0.36796083587E+02  0.22903852047E+02  0.47787274285E+02  0.20000014775E+02 0.  0.
         12    1    1    2    0    0  0.22549471546E+01 -0.36796083587E+02 -0.22903852047E+02  0.43400725715E+02  0.00000000000E+00 0. -1.
         11    1    3    3    0    0 -0.25195574102E+01  0.29174170840E+02  0.13631504591E+02  0.32300128969E+02  0.51100000000E-03 0. -1.
        -11    1    3    3    0    0  0.61193895436E+00  0.99818174474E+01  0.71419634410E+01  0.12288970294E+02  0.51100000000E-03 0.  1.
         12    1    3    3    0    0 -0.34732869885E+00 -0.23599047005E+01  0.21303840142E+01  0.31981750215E+01  0.00000000000E+00 0. -1.
</event>
<event>
 7    1  0.2812635E-010  0.4778727E+02  0.7816164E-02  0.1312668E+00
        -11   -1    0    0    0    0  0.00000000000E+00  0.00000000000E+00  0.45593999997E+02  0.45594000000E+02  0.51100000000E-03 0. -1.
         11   -1    0    0    0    0 -0.00000000000E+00 -0.00000000000E+00 -0.45593999997E+02  0.45594000000E+02  0.51100000000E-03 0.  1.
    9900012    2    1    2    0    0  0.11505853654E+02  0.41190514113E+02 -0.73878345578E+01  0.47787271658E+02  0.20000002796E+02 0.  0.
         12    1    1    2    0    0 -0.11505853654E+02 -0.41190514113E+02  0.73878345578E+01  0.43400728342E+02  0.00000000000E+00 0. -1.
         11    1    3    3    0    0  0.35137171988E+01  0.21440259075E+02 -0.90877102812E+01  0.23550316265E+02  0.51100000000E-03 0.  1.
        -11    1    3    3    0    0  0.45178719900E+01  0.12865194985E+02  0.65495762194E+01  0.15126842308E+02  0.51100000000E-03 0. -1.
         12    1    3    3    0    0  0.34742644648E+01  0.68850600530E+01 -0.48497004960E+01  0.91101130841E+01  0.00000000000E+00 0. -1.
</event>
<event>
 7    1  0.2812635E-010  0.4778727E+02  0.7816164E-02  0.1312668E+00
        -11   -1    0    0    0    0  0.00000000000E+00  0.00000000000E+00  0.45593999997E+02  0.45594000000E+02  0.51100000000E-03 0. -1.
         11   -1    0    0    0    0 -0.00000000000E+00 -0.00000000000E+00 -0.45593999997E+02  0.45594000000E+02  0.51100000000E-03 0.  1.
    9900012    2    1    2    0    0  0.42761135397E+02  0.48433925790E+01  0.56258267618E+01  0.47787273291E+02  0.20000010241E+02 0.  0.
         12    1    1    2    0    0 -0.42761135397E+02 -0.48433925790E+01 -0.56258267618E+01  0.43400726709E+02  0.00000000000E+00 0. -1.
         11    1    3    3    0    0  0.12648296675E+02  0.82317127903E+00  0.19032144715E+01  0.12817146535E+02  0.51100000000E-03 0. -1.
        -11    1    3    3    0    0  0.31054280476E+02  0.67912591488E+01  0.28474264171E+01  0.31915472332E+02  0.51100000000E-03 0.  1.
        -12    1    3    3    0    0 -0.94144175307E+00 -0.27710378488E+01  0.87518587322E+00  0.30546544234E+01  0.00000000000E+00 0.  1.
</event>
<event>
 7    1  0.2812635E-010  0.4778725E+02  0.7816164E-02  0.1312668E+00
        -11   -1    0    0    0    0  0.00000000000E+00  0.00000000000E+00  0.45593999997E+02  0.45594000000E+02  0.51100000000E-03 0.  1.
         11   -1    0    0    0    0 -0.00000000000E+00 -0.00000000000E+00 -0.45593999997E+02  0.45594000000E+02  0.51100000000E-03 0. -1.
    9900012    2    1    2    0    0  0.27979055078E+01 -0.17358238871E+01  0.43275667310E+02  0.47787254143E+02  0.19999922939E+02 0.  0.
         12    1    1    2    0    0 -0.27979055078E+01  0.17358238871E+01 -0.43275667310E+02  0.43400745857E+02  0.00000000000E+00 0. -1.
         11    1    3    3    0    0  0.57049338940E+01  0.83798610097E+00  0.50155957736E+01  0.76422962954E+01  0.51100000000E-03 0. -1.
        -11    1    3    3    0    0 -0.31952381384E+01  0.21679030505E+01  0.32268323814E+02  0.32498524157E+02  0.51100000000E-03 0.  1.
        -12    1    3    3    0    0  0.28820975223E+00 -0.47417130386E+01  0.59917477231E+01  0.76464336902E+01  0.00000000000E+00 0.  1.
</event>
<event>
 7    1  0.2812635E-010  0.4778727E+02  0.7816164E-02  0.1312668E+00
        -11   -1    0    0    0    0  0.00000000000E+00  0.00000000000E+00  0.45593999997E+02  0.45594000000E+02  0.51100000000E-03 0.  1.
         11   -1    0    0    0    0 -0.00000000000E+00 -0.00000000000E+00 -0.45593999997E+02  0.45594000000E+02  0.51100000000E-03 0. -1.
    9900012    2    1    2    0    0  0.30292004713E+02  0.38745935679E+01  0.30838375042E+02  0.47787269590E+02  0.19999993371E+02 0.  0.
         12    1    1    2    0    0 -0.30292004713E+02 -0.38745935679E+01 -0.30838375042E+02  0.43400730410E+02  0.00000000000E+00 0. -1.
         11    1    3    3    0    0  0.32233857320E+02  0.33297895609E+01  0.29394091262E+02  0.43750676082E+02  0.51100000000E-03 0.  1.
        -11    1    3    3    0    0 -0.15460973292E+01 -0.12145180151E+01  0.75565971282E+00  0.21062983699E+01  0.51100000000E-03 0. -1.
        -12    1    3    3    0    0 -0.39575527737E+00  0.17593220221E+01  0.68862406688E+00  0.19302951387E+01  0.00000000000E+00 0.  1.
</event>
<event>
 7    1  0.2812635E-010  0.4778727E+02  0.7816164E-02  0.1312668E+00
        -11   -1    0    0    0    0  0.00000000000E+00  0.00000000000E+00  0.45593999997E+02  0.45594000000E+02  0.51100000000E-03 0.  1.
         11   -1    0    0    0    0 -0.00000000000E+00 -0.00000000000E+00 -0.45593999997E+02  0.45594000000E+02  0.51100000000E-03 0. -1.
    9900012    2    1    2    0    0 -0.37867142692E+02  0.17560680663E+02  0.11888038998E+02  0.47787268760E+02  0.19999989583E+02 0.  0.
         12    1    1    2    0    0  0.37867142692E+02 -0.17560680663E+02 -0.11888038998E+02  0.43400731240E+02  0.00000000000E+00 0. -1.
         11    1    3    3    0    0 -0.28341129794E+02  0.12331414067E+02  0.14315187490E+01  0.30940792767E+02  0.51100000000E-03 0. -1.
        -11    1    3    3    0    0 -0.83147182632E+01  0.26735225172E+01  0.10917169796E+02  0.13980946287E+02  0.51100000000E-03 0.  1.
         12    1    3    3    0    0 -0.12112946348E+01  0.25557440787E+01 -0.46064954749E+00  0.28655297056E+01  0.00000000000E+00 0. -1.
</event>
<event>
 7    1  0.2812635E-010  0.4778727E+02  0.7816164E-02  0.1312668E+00
        -11   -1    0    0    0    0  0.00000000000E+00  0.00000000000E+00  0.45593999997E+02  0.45594000000E+02  0.51100000000E-03 0. -1.
         11   -1    0    0    0    0 -0.00000000000E+00 -0.00000000000E+00 -0.45593999997E+02  0.45594000000E+02  0.51100000000E-03 0.  1.
    9900012    2    1    2    0    0 -0.17043648898E+02  0.27345272024E+02 -0.29075306787E+02  0.47787270344E+02  0.19999996808E+02 0.  0.
         12    1    1    2    0    0  0.17043648898E+02 -0.27345272024E+02  0.29075306787E+02  0.43400729656E+02  0.00000000000E+00 0. -1.
         11    1    3    3    0    0 -0.96586860457E+01  0.96331313093E+01 -0.40151399056E+01  0.14220013491E+02  0.51100000000E-03 0.  1.
        -11    1    3    3    0    0 -0.35702322588E+01  0.14644810804E+02 -0.24325809676E+02  0.28617513144E+02  0.51100000000E-03 0. -1.
         12    1    3    3    0    0 -0.38147305939E+01  0.30673299110E+01 -0.73435720556E+00  0.49497437098E+01  0.00000000000E+00 0. -1.
</event>
<event>
 7    1  0.2812635E-010  0.4778727E+02  0.7816164E-02  0.1312668E+00
        -11   -1    0    0    0    0  0.00000000000E+00  0.00000000000E+00  0.45593999997E+02  0.45594000000E+02  0.51100000000E-03 0.  1.
         11   -1    0    0    0    0 -0.00000000000E+00 -0.00000000000E+00 -0.45593999997E+02  0.45594000000E+02  0.51100000000E-03 0. -1.
    9900012    2    1    2    0    0 -0.11496693939E+02  0.40505186222E+02  0.10525175536E+02  0.47787269563E+02  0.19999993246E+02 0.  0.
         12    1    1    2    0    0  0.11496693939E+02 -0.40505186222E+02 -0.10525175536E+02  0.43400730437E+02  0.00000000000E+00 0. -1.
         11    1    3    3    0    0 -0.19771579271E+01  0.68464772575E+01 -0.40443766923E+01  0.81939238096E+01  0.51100000000E-03 0. -1.
        -11    1    3    3    0    0 -0.58365224588E+01  0.15400451050E+02  0.12847813507E+02  0.20887919933E+02  0.51100000000E-03 0.  1.
        -12    1    3    3    0    0 -0.36830135534E+01  0.18258257914E+02  0.17217387209E+01  0.18705425820E+02  0.00000000000E+00 0.  1.
</event>
<event>
 7    1  0.2812635E-010  0.4778727E+02  0.7816164E-02  0.1312668E+00
        -11   -1    0    0    0    0  0.00000000000E+00  0.00000000000E+00  0.45593999997E+02  0.45594000000E+02  0.51100000000E-03 0. -1.
         11   -1    0    0    0    0 -0.00000000000E+00 -0.00000000000E+00 -0.45593999997E+02  0.45594000000E+02  0.51100000000E-03 0.  1.
    9900012    2    1    2    0    0 -0.19155026972E+02  0.21462110632E+02 -0.32497479843E+02  0.47787269047E+02  0.19999990893E+02 0.  0.
         12    1    1    2    0    0  0.19155026972E+02 -0.21462110632E+02  0.32497479843E+02  0.43400730953E+02  0.00000000000E+00 0. -1.
         11    1    3    3    0    0 -0.16117485820E+01  0.97091335679E+01 -0.18438659335E+01  0.10013233742E+02  0.51100000000E-03 0. -1.
        -11    1    3    3    0    0 -0.13402346710E+02  0.85112450906E+01 -0.17610413213E+02  0.23710563977E+02  0.51100000000E-03 0.  1.
         12    1    3    3    0    0 -0.41409316805E+01  0.32417319732E+01 -0.13043200697E+02  0.14063471328E+02  0.00000000000E+00 0. -1.
</event>
<event>
 7    1  0.2812635E-010  0.4778727E+02  0.7816164E-02  0.1312668E+00
        -11   -1    0    0    0    0  0.00000000000E+00  0.00000000000E+00  0.45593999997E+02  0.45594000000E+02  0.51100000000E-03 0.  1.
         11   -1    0    0    0    0 -0.00000000000E+00 -0.00000000000E+00 -0.45593999997E+02  0.45594000000E+02  0.51100000000E-03 0. -1.
    9900012    2    1    2    0    0  0.18531316096E+02  0.37813511085E+02  0.10504860852E+02  0.47787269611E+02  0.19999993463E+02 0.  0.
         12    1    1    2    0    0 -0.18531316096E+02 -0.37813511085E+02 -0.10504860852E+02  0.43400730389E+02  0.00000000000E+00 0. -1.
         11    1    3    3    0    0 -0.29775884990E+01  0.85020746068E+01  0.65067185456E+01  0.11112546620E+02  0.51100000000E-03 0. -1.
        -11    1    3    3    0    0  0.16316384952E+01  0.26197415097E+01  0.10688352606E+01  0.32661443373E+01  0.51100000000E-03 0.  1.
         12    1    3    3    0    0  0.19877266100E+02  0.26691694968E+02  0.29293070458E+01  0.33408578653E+02  0.00000000000E+00 0. -1.
</event>
<event>
 7    1  0.2812635E-010  0.4778727E+02  0.7816164E-02  0.1312668E+00
        -11   -1    0    0    0    0  0.00000000000E+00  0.00000000000E+00  0.45593999997E+02  0.45594000000E+02  0.51100000000E-03 0.  1.
         11   -1    0    0    0    0 -0.00000000000E+00 -0.00000000000E+00 -0.45593999997E+02  0.45594000000E+02  0.51100000000E-03 0. -1.
    9900012    2    1    2    0    0 -0.17235008245E+02 -0.13291464321E+02  0.37548831746E+02  0.47787270761E+02  0.19999998706E+02 0.  0.
         12    1    1    2    0    0  0.17235008245E+02  0.13291464321E+02 -0.37548831746E+02  0.43400729239E+02  0.00000000000E+00 0. -1.
         11    1    3    3    0    0 -0.83452183311E+00 -0.11064030888E+02  0.13177826644E+02  0.17226848856E+02  0.51100000000E-03 0. -1.
        -11    1    3    3    0    0 -0.10272279933E+02 -0.46604716037E+01  0.18819050718E+02  0.21940747498E+02  0.51100000000E-03 0.  1.
         12    1    3    3    0    0 -0.61282064793E+01  0.24330381708E+01  0.55519543841E+01  0.86196744067E+01  0.00000000000E+00 0. -1.
</event>
<event>
 7    1  0.2812635E-010  0.4778727E+02  0.7816164E-02  0.1312668E+00
        -11   -1    0    0    0    0  0.00000000000E+00  0.00000000000E+00  0.45593999997E+02  0.45594000000E+02  0.51100000000E-03 0.  1.
         11   -1    0    0    0    0 -0.00000000000E+00 -0.00000000000E+00 -0.45593999997E+02  0.45594000000E+02  0.51100000000E-03 0. -1.
    9900012    2    1    2    0    0  0.24819796347E+02 -0.21333291171E+02  0.28504245984E+02  0.47787266803E+02  0.19999980663E+02 0.  0.
         12    1    1    2    0    0 -0.24819796347E+02  0.21333291171E+02 -0.28504245984E+02  0.43400733197E+02  0.00000000000E+00 0. -1.
         11    1    3    3    0    0  0.63132847411E+01 -0.95447547897E+01  0.18311477810E+02  0.21593288959E+02  0.51100000000E-03 0.  1.
        -11    1    3    3    0    0  0.64912084989E+01 -0.64186197787E+01 -0.63603254890E+00  0.91509018848E+01  0.51100000000E-03 0. -1.
        -12    1    3    3    0    0  0.12015303107E+02 -0.53699166027E+01  0.10828800723E+02  0.17043075960E+02  0.00000000000E+00 0.  1.
</event>
<event>
 7    1  0.2812635E-010  0.4778727E+02  0.7816164E-02  0.1312668E+00
        -11   -1    0    0    0    0  0.00000000000E+00  0.00000000000E+00  0.45593999997E+02  0.45594000000E+02  0.51100000000E-03 0.  1.
         11   -1    0    0    0    0 -0.00000000000E+00 -0.00000000000E+00 -0.45593999997E+02  0.45594000000E+02  0.51100000000E-03 0. -1.
    9900012    2    1    2    0    0 -0.18206618318E+02  0.15477382119E+02  0.36229725103E+02  0.47787270872E+02  0.19999999214E+02 0.  0.
         12    1    1    2    0    0  0.18206618318E+02 -0.15477382119E+02 -0.36229725103E+02  0.43400729128E+02  0.00000000000E+00 0. -1.
         11    1    3    3    0    0 -0.10450366608E+00  0.41899198590E+01  0.15923963700E+02  0.16466297994E+02  0.51100000000E-03 0. -1.
        -11    1    3    3    0    0 -0.15016175165E+02  0.37573183359E+01  0.11184083098E+02  0.19096771263E+02  0.51100000000E-03 0.  1.
        -12    1    3    3    0    0 -0.30859394866E+01  0.75301439239E+01  0.91216783050E+01  0.12224201615E+02  0.00000000000E+00 0.  1.
</event>
<event>
 7    1  0.2812635E-010  0.4778727E+02  0.7816164E-02  0.1312668E+00
        -11   -1    0    0    0    0  0.00000000000E+00  0.00000000000E+00  0.45593999997E+02  0.45594000000E+02  0.51100000000E-03 0. -1.
         11   -1    0    0    0    0 -0.00000000000E+00 -0.00000000000E+00 -0.45593999997E+02  0.45594000000E+02  0.51100000000E-03 0.  1.
    9900012    2    1    2    0    0  0.35231254485E+02 -0.47833534731E+01 -0.24889790507E+02  0.47787269194E+02  0.19999991563E+02 0.  0.
         12    1    1    2    0    0 -0.35231254485E+02  0.47833534731E+01  0.24889790507E+02  0.43400730806E+02  0.00000000000E+00 0. -1.
         11    1    3    3    0    0  0.13433189376E+02  0.70113388214E+00 -0.22706337435E+00  0.13453390783E+02  0.51100000000E-03 0. -1.
        -11    1    3    3    0    0  0.11398103840E+02  0.12578356687E+01 -0.12636820758E+02  0.17064236310E+02  0.51100000000E-03 0.  1.
         12    1    3    3    0    0  0.10399961269E+02 -0.67423230239E+01 -0.12025906375E+02  0.17269642101E+02  0.00000000000E+00 0. -1.
</event>
<event>
 7    1  0.2812635E-010  0.4778727E+02  0.7816164E-02  0.1312668E+00
        -11   -1    0    0    0    0  0.00000000000E+00  0.00000000000E+00  0.45593999997E+02  0.45594000000E+02  0.51100000000E-03 0.  1.
         11   -1    0    0    0    0 -0.00000000000E+00 -0.00000000000E+00 -0.45593999997E+02  0.45594000000E+02  0.51100000000E-03 0. -1.
    9900012    2    1    2    0    0  0.94717339050E+01  0.32682270243E+02  0.26940285053E+02  0.47787268553E+02  0.19999988641E+02 0.  0.
         12    1    1    2    0    0 -0.94717339050E+01 -0.32682270243E+02 -0.26940285053E+02  0.43400731447E+02  0.00000000000E+00 0. -1.
         11    1    3    3    0    0 -0.43600779756E+01  0.84212828977E+01  0.90586138379E+01  0.13114372670E+02  0.51100000000E-03 0. -1.
        -11    1    3    3    0    0 -0.22700811931E+00  0.56815455624E+01  0.71127925023E+00  0.57303936249E+01  0.51100000000E-03 0.  1.
         12    1    3    3    0    0  0.14058820000E+02  0.18579441782E+02  0.17170391965E+02  0.28942502258E+02  0.00000000000E+00 0. -1.
</event>
<event>
 7    1  0.2812635E-010  0.4778727E+02  0.7816164E-02  0.1312668E+00
        -11   -1    0    0    0    0  0.00000000000E+00  0.00000000000E+00  0.45593999997E+02  0.45594000000E+02  0.51100000000E-03 0.  1.
         11   -1    0    0    0    0 -0.00000000000E+00 -0.00000000000E+00 -0.45593999997E+02  0.45594000000E+02  0.51100000000E-03 0. -1.
    9900012    2    1    2    0    0 -0.30322757661E+02 -0.55219979027E+01  0.30555869713E+02  0.47787271125E+02  0.20000000365E+02 0.  0.
         12    1    1    2    0    0  0.30322757661E+02  0.55219979027E+01 -0.30555869713E+02  0.43400728875E+02  0.00000000000E+00 0. -1.
         11    1    3    3    0    0 -0.74806130897E+01  0.68302120355E+00 -0.66176383571E+00  0.75408236817E+01  0.51100000000E-03 0. -1.
        -11    1    3    3    0    0 -0.12153008446E+02  0.10455396271E+01  0.18189706414E+02  0.21901008814E+02  0.51100000000E-03 0.  1.
         12    1    3    3    0    0 -0.10689136125E+02 -0.72505587333E+01  0.13027927135E+02  0.18345438629E+02  0.00000000000E+00 0. -1.
</event>
<event>
 7    1  0.2812635E-010  0.4778728E+02  0.7816164E-02  0.1312668E+00
        -11   -1    0    0    0    0  0.00000000000E+00  0.00000000000E+00  0.45593999997E+02  0.45594000000E+02  0.51100000000E-03 0. -1.
         11   -1    0    0    0    0 -0.00000000000E+00 -0.00000000000E+00 -0.45593999997E+02  0.45594000000E+02  0.51100000000E-03 0.  1.
    9900012    2    1    2    0    0  0.35945656836E+02 -0.21596100804E+02 -0.11186634337E+02  0.47787278772E+02  0.20000035232E+02 0.  0.
         12    1    1    2    0    0 -0.35945656836E+02  0.21596100804E+02  0.11186634337E+02  0.43400721228E+02  0.00000000000E+00 0. -1.
         11    1    3    3    0    0 -0.21165993262E+01 -0.78310783547E+00  0.75188188829E+00  0.23787764133E+01  0.51100000000E-03 0. -1.
        -11    1    3    3    0    0  0.26810923974E+02 -0.16237398241E+02 -0.11029386469E+02  0.33228393162E+02  0.51100000000E-03 0.  1.
         12    1    3    3    0    0  0.11251332188E+02 -0.45755947281E+01 -0.90912975649E+00  0.12180109197E+02  0.00000000000E+00 0. -1.
</event>
<event>
 7    1  0.2812635E-010  0.4778728E+02  0.7816164E-02  0.1312668E+00
        -11   -1    0    0    0    0  0.00000000000E+00  0.00000000000E+00  0.45593999997E+02  0.45594000000E+02  0.51100000000E-03 0.  1.
         11   -1    0    0    0    0 -0.00000000000E+00 -0.00000000000E+00 -0.45593999997E+02  0.45594000000E+02  0.51100000000E-03 0. -1.
    9900012    2    1    2    0    0  0.29518343751E+02  0.30128183739E+02  0.10226572560E+02  0.47787275818E+02  0.20000021766E+02 0.  0.
         12    1    1    2    0    0 -0.29518343751E+02 -0.30128183739E+02 -0.10226572560E+02  0.43400724182E+02  0.00000000000E+00 0. -1.
         11    1    3    3    0    0  0.77559666989E+01  0.22157986395E+01  0.59527916148E+01  0.10024994330E+02  0.51100000000E-03 0. -1.
        -11    1    3    3    0    0  0.91770143016E+01  0.20609841964E+02  0.53025034860E+01  0.23175411986E+02  0.51100000000E-03 0.  1.
        -12    1    3    3    0    0  0.12585362750E+02  0.73025431355E+01 -0.10287225405E+01  0.14586869502E+02  0.00000000000E+00 0.  1.
</event>
<event>
 7    1  0.2812635E-010  0.4778727E+02  0.7816164E-02  0.1312668E+00
        -11   -1    0    0    0    0  0.00000000000E+00  0.00000000000E+00  0.45593999997E+02  0.45594000000E+02  0.51100000000E-03 0.  1.
         11   -1    0    0    0    0 -0.00000000000E+00 -0.00000000000E+00 -0.45593999997E+02  0.45594000000E+02  0.51100000000E-03 0. -1.
    9900012    2    1    2    0    0 -0.17000173949E+02 -0.96722182648E+01  0.38743586797E+02  0.47787271454E+02  0.20000001867E+02 0.  0.
         12    1    1    2    0    0  0.17000173949E+02  0.96722182648E+01 -0.38743586797E+02  0.43400728546E+02  0.00000000000E+00 0. -1.
         11    1    3    3    0    0  0.15788107095E+01 -0.18244295227E+01  0.11297934619E+02  0.11552684245E+02  0.51100000000E-03 0. -1.
        -11    1    3    3    0    0 -0.17333694474E+02 -0.10787589180E+02  0.24488181400E+02  0.31882598278E+02  0.51100000000E-03 0.  1.
        -12    1    3    3    0    0 -0.12452901849E+01  0.29398004375E+01  0.29574707773E+01  0.43519889310E+01  0.00000000000E+00 0.  1.
</event>
<event>
 7    1  0.2812635E-010  0.4778727E+02  0.7816164E-02  0.1312668E+00
        -11   -1    0    0    0    0  0.00000000000E+00  0.00000000000E+00  0.45593999997E+02  0.45594000000E+02  0.51100000000E-03 0.  1.
         11   -1    0    0    0    0 -0.00000000000E+00 -0.00000000000E+00 -0.45593999997E+02  0.45594000000E+02  0.51100000000E-03 0. -1.
    9900012    2    1    2    0    0 -0.10269892421E+02 -0.35263903787E+02  0.23121626557E+02  0.47787271720E+02  0.20000003078E+02 0.  0.
         12    1    1    2    0    0  0.10269892421E+02  0.35263903787E+02 -0.23121626557E+02  0.43400728280E+02  0.00000000000E+00 0. -1.
         11    1    3    3    0    0 -0.80774004287E+01 -0.14655108202E+02  0.29581373898E+01  0.16993150714E+02  0.51100000000E-03 0.  1.
        -11    1    3    3    0    0 -0.23675281310E+00 -0.10697224969E+01  0.71574851880E+01  0.72408530293E+01  0.51100000000E-03 0. -1.
         12    1    3    3    0    0 -0.19557391795E+01 -0.19539073088E+02  0.13006003979E+02  0.23553267977E+02  0.00000000000E+00 0. -1.
</event>
<event>
 7    1  0.2812635E-010  0.4778728E+02  0.7816164E-02  0.1312668E+00
        -11   -1    0    0    0    0  0.00000000000E+00  0.00000000000E+00  0.45593999997E+02  0.45594000000E+02  0.51100000000E-03 0. -1.
         11   -1    0    0    0    0 -0.00000000000E+00 -0.00000000000E+00 -0.45593999997E+02  0.45594000000E+02  0.51100000000E-03 0.  1.
    9900012    2    1    2    0    0 -0.78653835516E+01 -0.35659164527E+02 -0.23455955889E+02  0.47787284109E+02  0.20000059567E+02 0.  0.
         12    1    1    2    0    0  0.78653835516E+01  0.35659164527E+02  0.23455955889E+02  0.43400715891E+02  0.00000000000E+00 0. -1.
         11    1    3    3    0    0 -0.13673404935E+01 -0.23561378616E+00 -0.67331150821E+00  0.15422329686E+01  0.51100000000E-03 0. -1.
        -11    1    3    3    0    0  0.14938739158E+01  0.16008263018E+01 -0.33286905409E+00  0.22147474333E+01  0.51100000000E-03 0.  1.
        -12    1    3    3    0    0 -0.79919169739E+01 -0.37024377043E+02 -0.22449775326E+02  0.44030303707E+02  0.00000000000E+00 0.  1.
</event>
<event>
 7    1  0.2812635E-010  0.4778727E+02  0.7816164E-02  0.1312668E+00
        -11   -1    0    0    0    0  0.00000000000E+00  0.00000000000E+00  0.45593999997E+02  0.45594000000E+02  0.51100000000E-03 0.  1.
         11   -1    0    0    0    0 -0.00000000000E+00 -0.00000000000E+00 -0.45593999997E+02  0.45594000000E+02  0.51100000000E-03 0. -1.
    9900012    2    1    2    0    0 -0.26672504406E+02  0.17162838551E+02  0.29624952544E+02  0.47787270379E+02  0.19999996968E+02 0.  0.
         12    1    1    2    0    0  0.26672504406E+02 -0.17162838551E+02 -0.29624952544E+02  0.43400729621E+02  0.00000000000E+00 0. -1.
         11    1    3    3    0    0 -0.13117793588E+00  0.34766396495E+01  0.44945664606E+01  0.56837803295E+01  0.51100000000E-03 0. -1.
        -11    1    3    3    0    0 -0.10822562569E+02  0.12837361008E+02  0.72725236583E+01  0.18297958871E+02  0.51100000000E-03 0.  1.
        -12    1    3    3    0    0 -0.15718763901E+02  0.84883789262E+00  0.17857862425E+02  0.23805531179E+02  0.00000000000E+00 0.  1.
</event>
<event>
 7    1  0.2812635E-010  0.4778727E+02  0.7816164E-02  0.1312668E+00
        -11   -1    0    0    0    0  0.00000000000E+00  0.00000000000E+00  0.45593999997E+02  0.45594000000E+02  0.51100000000E-03 0.  1.
         11   -1    0    0    0    0 -0.00000000000E+00 -0.00000000000E+00 -0.45593999997E+02  0.45594000000E+02  0.51100000000E-03 0. -1.
    9900012    2    1    2    0    0  0.21283943497E+02  0.36357841991E+02 -0.10427093340E+02  0.47787271890E+02  0.20000003854E+02 0.  0.
         12    1    1    2    0    0 -0.21283943497E+02 -0.36357841991E+02  0.10427093340E+02  0.43400728110E+02  0.00000000000E+00 0. -1.
         11    1    3    3    0    0  0.21528269093E+02  0.32248602229E+02 -0.13969438700E+02  0.41213880353E+02  0.51100000000E-03 0. -1.
        -11    1    3    3    0    0  0.77762096769E+00  0.25793913983E+01  0.38591952218E+01  0.47065212605E+01  0.51100000000E-03 0.  1.
         12    1    3    3    0    0 -0.10219465639E+01  0.15298483636E+01 -0.31684986122E+00  0.18668702766E+01  0.00000000000E+00 0. -1.
</event>
<event>
 7    1  0.2812635E-010  0.4778727E+02  0.7816164E-02  0.1312668E+00
        -11   -1    0    0    0    0  0.00000000000E+00  0.00000000000E+00  0.45593999997E+02  0.45594000000E+02  0.51100000000E-03 0.  1.
         11   -1    0    0    0    0 -0.00000000000E+00 -0.00000000000E+00 -0.45593999997E+02  0.45594000000E+02  0.51100000000E-03 0. -1.
    9900012    2    1    2    0    0  0.40737830373E+02  0.13304755194E+02  0.68582720464E+01  0.47787271553E+02  0.20000002319E+02 0.  0.
         12    1    1    2    0    0 -0.40737830373E+02 -0.13304755194E+02 -0.68582720464E+01  0.43400728447E+02  0.00000000000E+00 0. -1.
         11    1    3    3    0    0 -0.15661984870E+01 -0.37739673699E-01 -0.51106477679E+00  0.16479045636E+01  0.51100000000E-03 0. -1.
        -11    1    3    3    0    0  0.39121293079E+02  0.10572176022E+02  0.39657622208E+01  0.40718223785E+02  0.51100000000E-03 0.  1.
        -12    1    3    3    0    0  0.31827357811E+01  0.27703188465E+01  0.34035746023E+01  0.54211432039E+01  0.00000000000E+00 0.  1.
</event>
<event>
 7    1  0.2812635E-010  0.4778727E+02  0.7816164E-02  0.1312668E+00
        -11   -1    0    0    0    0  0.00000000000E+00  0.00000000000E+00  0.45593999997E+02  0.45594000000E+02  0.51100000000E-03 0.  1.
         11   -1    0    0    0    0 -0.00000000000E+00 -0.00000000000E+00 -0.45593999997E+02  0.45594000000E+02  0.51100000000E-03 0. -1.
    9900012    2    1    2    0    0 -0.39003262069E+02 -0.10322374268E+02  0.15994299193E+02  0.47787268794E+02  0.19999989741E+02 0.  0.
         12    1    1    2    0    0  0.39003262069E+02  0.10322374268E+02 -0.15994299193E+02  0.43400731206E+02  0.00000000000E+00 0. -1.
         11    1    3    3    0    0 -0.21466206151E+02 -0.86872280326E+01  0.41143416565E+01  0.23520071109E+02  0.51100000000E-03 0. -1.
        -11    1    3    3    0    0 -0.15227770304E+02  0.30934616939E+01  0.68295661544E+01  0.16973434178E+02  0.51100000000E-03 0.  1.
         12    1    3    3    0    0 -0.23092856130E+01 -0.47286079298E+01  0.50503913816E+01  0.72937635075E+01  0.00000000000E+00 0. -1.
</event>
<event>
 7    1  0.2812635E-010  0.4778728E+02  0.7816164E-02  0.1312668E+00
        -11   -1    0    0    0    0  0.00000000000E+00  0.00000000000E+00  0.45593999997E+02  0.45594000000E+02  0.51100000000E-03 0.  1.
         11   -1    0    0    0    0 -0.00000000000E+00 -0.00000000000E+00 -0.45593999997E+02  0.45594000000E+02  0.51100000000E-03 0. -1.
    9900012    2    1    2    0    0  0.37035325097E+02  0.22114258217E+02 -0.47924024513E+01  0.47787276010E+02  0.20000022642E+02 0.  0.
         12    1    1    2    0    0 -0.37035325097E+02 -0.22114258217E+02  0.47924024513E+01  0.43400723990E+02  0.00000000000E+00 0. -1.
         11    1    3    3    0    0  0.13007203130E+02  0.15207299267E+02  0.89505336803E+00  0.20031235735E+02  0.51100000000E-03 0.  1.
        -11    1    3    3    0    0  0.15954654204E+01  0.17867947538E+01  0.23765343338E+01  0.33743237990E+01  0.51100000000E-03 0. -1.
         12    1    3    3    0    0  0.22432656547E+02  0.51201641958E+01 -0.80639901531E+01  0.24381716477E+02  0.00000000000E+00 0. -1.
</event>
<event>
 7    1  0.2812635E-010  0.4778727E+02  0.7816164E-02  0.1312668E+00
        -11   -1    0    0    0    0  0.00000000000E+00  0.00000000000E+00  0.45593999997E+02  0.45594000000E+02  0.51100000000E-03 0.  1.
         11   -1    0    0    0    0 -0.00000000000E+00 -0.00000000000E+00 -0.45593999997E+02  0.45594000000E+02  0.51100000000E-03 0. -1.
    9900012    2    1    2    0    0 -0.66213636412E+01 -0.46866850164E+01  0.42635848929E+02  0.47787273199E+02  0.20000009825E+02 0.  0.
         12    1    1    2    0    0  0.66213636412E+01  0.46866850164E+01 -0.42635848929E+02  0.43400726801E+02  0.00000000000E+00 0. -1.
         11    1    3    3    0    0 -0.28406181841E+00  0.23858235199E+00 -0.43659791500E+00  0.57291417844E+00  0.51100000000E-03 0. -1.
        -11    1    3    3    0    0 -0.97959596685E+01 -0.14982072073E+01  0.11127827522E+02  0.14900805223E+02  0.51100000000E-03 0.  1.
        -12    1    3    3    0    0  0.34586578458E+01 -0.34270601611E+01  0.31944619322E+02  0.32313553798E+02  0.00000000000E+00 0.  1.
</event>
<event>
 7    1  0.2812635E-010  0.4778727E+02  0.7816164E-02  0.1312668E+00
        -11   -1    0    0    0    0  0.00000000000E+00  0.00000000000E+00  0.45593999997E+02  0.45594000000E+02  0.51100000000E-03 0. -1.
         11   -1    0    0    0    0 -0.00000000000E+00 -0.00000000000E+00 -0.45593999997E+02  0.45594000000E+02  0.51100000000E-03 0.  1.
    9900012    2    1    2    0    0  0.23783391368E+02 -0.51590299047E+01 -0.35935473818E+02  0.47787267598E+02  0.19999984288E+02 0.  0.
         12    1    1    2    0    0 -0.23783391368E+02  0.51590299047E+01  0.35935473818E+02  0.43400732402E+02  0.00000000000E+00 0. -1.
         11    1    3    3    0    0  0.27048573315E+01 -0.15828396662E+01 -0.97408644109E+01  0.10232598611E+02  0.51100000000E-03 0. -1.
        -11    1    3    3    0    0  0.15299328870E+00  0.11855189297E+01 -0.11461345379E+02  0.11523510760E+02  0.51100000000E-03 0.  1.
        -12    1    3    3    0    0  0.20925540747E+02 -0.47617091683E+01 -0.14733264028E+02  0.26031158228E+02  0.00000000000E+00 0.  1.
</event>
<event>
 7    1  0.2812635E-010  0.4778729E+02  0.7816164E-02  0.1312668E+00
        -11   -1    0    0    0    0  0.00000000000E+00  0.00000000000E+00  0.45593999997E+02  0.45594000000E+02  0.51100000000E-03 0.  1.
         11   -1    0    0    0    0 -0.00000000000E+00 -0.00000000000E+00 -0.45593999997E+02  0.45594000000E+02  0.51100000000E-03 0. -1.
    9900012    2    1    2    0    0 -0.52069758070E+01 -0.14884514647E+02  0.40434645869E+02  0.47787286182E+02  0.20000069019E+02 0.  0.
         12    1    1    2    0    0  0.52069758070E+01  0.14884514647E+02 -0.40434645869E+02  0.43400713818E+02  0.00000000000E+00 0. -1.
         11    1    3    3    0    0  0.22624765911E+01 -0.38463771463E+01  0.22889357874E+02  0.23320294201E+02  0.51100000000E-03 0. -1.
        -11    1    3    3    0    0  0.24480271451E+01 -0.10030794755E+01  0.46655108142E+01  0.53633941451E+01  0.51100000000E-03 0.  1.
         12    1    3    3    0    0 -0.99174795433E+01 -0.10035058025E+02  0.12879777181E+02  0.19103597836E+02  0.00000000000E+00 0. -1.
</event>
<event>
 7    1  0.2812635E-010  0.4778727E+02  0.7816164E-02  0.1312668E+00
        -11   -1    0    0    0    0  0.00000000000E+00  0.00000000000E+00  0.45593999997E+02  0.45594000000E+02  0.51100000000E-03 0. -1.
         11   -1    0    0    0    0 -0.00000000000E+00 -0.00000000000E+00 -0.45593999997E+02  0.45594000000E+02  0.51100000000E-03 0.  1.
    9900012    2    1    2    0    0 -0.22766553743E+02 -0.26446659860E+02 -0.25804680048E+02  0.47787270750E+02  0.19999998655E+02 0.  0.
         12    1    1    2    0    0  0.22766553743E+02  0.26446659860E+02  0.25804680048E+02  0.43400729250E+02  0.00000000000E+00 0. -1.
         11    1    3    3    0    0 -0.47815208042E+01 -0.24639230791E+01 -0.10796604169E+00  0.53801036298E+01  0.51100000000E-03 0. -1.
        -11    1    3    3    0    0 -0.88926822360E+01 -0.22469214517E+02 -0.21222626365E+02  0.32161238603E+02  0.51100000000E-03 0.  1.
        -12    1    3    3    0    0 -0.90923507033E+01 -0.15135222636E+01 -0.44740876410E+01  0.10245928517E+02  0.00000000000E+00 0.  1.
</event>
<event>
 7    1  0.2812635E-010  0.4778726E+02  0.7816164E-02  0.1312668E+00
        -11   -1    0    0    0    0  0.00000000000E+00  0.00000000000E+00  0.45593999997E+02  0.45594000000E+02  0.51100000000E-03 0.  1.
         11   -1    0    0    0    0 -0.00000000000E+00 -0.00000000000E+00 -0.45593999997E+02  0.45594000000E+02  0.51100000000E-03 0. -1.
    9900012    2    1    2    0    0 -0.10718654421E+02  0.38612623277E+02  0.16667321967E+02  0.47787264402E+02  0.19999969713E+02 0.  0.
         12    1    1    2    0    0  0.10718654421E+02 -0.38612623277E+02 -0.16667321967E+02  0.43400735598E+02  0.00000000000E+00 0. -1.
         11    1    3    3    0    0 -0.98596370833E+01  0.20396088057E+02  0.13141753955E+02  0.26190046749E+02  0.51100000000E-03 0. -1.
        -11    1    3    3    0    0 -0.13378367792E+01  0.17295391906E+02 -0.58565774529E+00  0.17356940505E+02  0.51100000000E-03 0.  1.
        -12    1    3    3    0    0  0.47881944116E+00  0.92114331366E+00  0.41112257573E+01  0.42402771477E+01  0.00000000000E+00 0.  1.
</event>
<event>
 7    1  0.2812635E-010  0.4778727E+02  0.7816164E-02  0.1312668E+00
        -11   -1    0    0    0    0  0.00000000000E+00  0.00000000000E+00  0.45593999997E+02  0.45594000000E+02  0.51100000000E-03 0.  1.
         11   -1    0    0    0    0 -0.00000000000E+00 -0.00000000000E+00 -0.45593999997E+02  0.45594000000E+02  0.51100000000E-03 0. -1.
    9900012    2    1    2    0    0 -0.17496444107E+02  0.11077186012E+02  0.38141756142E+02  0.47787272265E+02  0.20000005564E+02 0.  0.
         12    1    1    2    0    0  0.17496444107E+02 -0.11077186012E+02 -0.38141756142E+02  0.43400727735E+02  0.00000000000E+00 0. -1.
         11    1    3    3    0    0 -0.11565104888E+02 -0.10518657380E+01  0.67794160745E+01  0.13446879012E+02  0.51100000000E-03 0. -1.
        -11    1    3    3    0    0 -0.63070873148E+01  0.99888428474E+01  0.26291173524E+02  0.28823291578E+02  0.51100000000E-03 0.  1.
        -12    1    3    3    0    0  0.37574809597E+00  0.21402089030E+01  0.50711665435E+01  0.55171016750E+01  0.00000000000E+00 0.  1.
</event>
<event>
 7    1  0.2812635E-010  0.4778727E+02  0.7816164E-02  0.1312668E+00
        -11   -1    0    0    0    0  0.00000000000E+00  0.00000000000E+00  0.45593999997E+02  0.45594000000E+02  0.51100000000E-03 0.  1.
         11   -1    0    0    0    0 -0.00000000000E+00 -0.00000000000E+00 -0.45593999997E+02  0.45594000000E+02  0.51100000000E-03 0. -1.
    9900012    2    1    2    0    0 -0.16674874587E+02 -0.39649161259E+02 -0.57892921433E+01  0.47787270345E+02  0.19999996811E+02 0.  0.
         12    1    1    2    0    0  0.16674874587E+02  0.39649161259E+02  0.57892921433E+01  0.43400729655E+02  0.00000000000E+00 0. -1.
         11    1    3    3    0    0 -0.15032798129E+01 -0.25330253623E+00  0.37235541053E+01  0.40235392140E+01  0.51100000000E-03 0. -1.
        -11    1    3    3    0    0 -0.10734129542E+02 -0.32271605341E+02 -0.97075022981E+01  0.35368257654E+02  0.51100000000E-03 0.  1.
         12    1    3    3    0    0 -0.44374652315E+01 -0.71242533820E+01  0.19465604953E+00  0.83954734773E+01  0.00000000000E+00 0. -1.
</event>
<event>
 7    1  0.2812635E-010  0.4778727E+02  0.7816164E-02  0.1312668E+00
        -11   -1    0    0    0    0  0.00000000000E+00  0.00000000000E+00  0.45593999997E+02  0.45594000000E+02  0.51100000000E-03 0.  1.
         11   -1    0    0    0    0 -0.00000000000E+00 -0.00000000000E+00 -0.45593999997E+02  0.45594000000E+02  0.51100000000E-03 0. -1.
    9900012    2    1    2    0    0  0.26758136347E+02 -0.34043358999E+02  0.29453208210E+01  0.47787273423E+02  0.20000010843E+02 0.  0.
         12    1    1    2    0    0 -0.26758136347E+02  0.34043358999E+02 -0.29453208210E+01  0.43400726577E+02  0.00000000000E+00 0. -1.
         11    1    3    3    0    0  0.46343013610E+01 -0.16872649039E+02 -0.46771391336E+01  0.18111837716E+02  0.51100000000E-03 0. -1.
        -11    1    3    3    0    0  0.10774041457E+02 -0.11365984899E+02  0.21710961136E+01  0.15810731818E+02  0.51100000000E-03 0.  1.
         12    1    3    3    0    0  0.11349793530E+02 -0.58047250608E+01  0.54513638410E+01  0.13864703889E+02  0.00000000000E+00 0. -1.
</event>
<event>
 7    1  0.2812635E-010  0.4778727E+02  0.7816164E-02  0.1312668E+00
        -11   -1    0    0    0    0  0.00000000000E+00  0.00000000000E+00  0.45593999997E+02  0.45594000000E+02  0.51100000000E-03 0.  1.
         11   -1    0    0    0    0 -0.00000000000E+00 -0.00000000000E+00 -0.45593999997E+02  0.45594000000E+02  0.51100000000E-03 0. -1.
    9900012    2    1    2    0    0 -0.36211908173E+02 -0.19232213082E+02  0.14228248726E+02  0.47787269875E+02  0.19999994668E+02 0.  0.
         12    1    1    2    0    0  0.36211908173E+02  0.19232213082E+02 -0.14228248726E+02  0.43400730125E+02  0.00000000000E+00 0. -1.
         11    1    3    3    0    0 -0.37710192523E+01 -0.23042057082E+01 -0.20873827982E+01  0.48874448697E+01  0.51100000000E-03 0. -1.
        -11    1    3    3    0    0 -0.24111562859E+02 -0.15960694959E+02  0.18381804879E+02  0.34263712553E+02  0.51100000000E-03 0.  1.
        -12    1    3    3    0    0 -0.83293260621E+01 -0.96731241474E+00 -0.20661733545E+01  0.86361124522E+01  0.00000000000E+00 0.  1.
</event>
<event>
 7    1  0.2812635E-010  0.4778727E+02  0.7816164E-02  0.1312668E+00
        -11   -1    0    0    0    0  0.00000000000E+00  0.00000000000E+00  0.45593999997E+02  0.45594000000E+02  0.51100000000E-03 0.  1.
         11   -1    0    0    0    0 -0.00000000000E+00 -0.00000000000E+00 -0.45593999997E+02  0.45594000000E+02  0.51100000000E-03 0. -1.
    9900012    2    1    2    0    0  0.40614223675E+01 -0.13715429967E+02  0.40975788133E+02  0.47787269776E+02  0.19999994217E+02 0.  0.
         12    1    1    2    0    0 -0.40614223675E+01  0.13715429967E+02 -0.40975788133E+02  0.43400730224E+02  0.00000000000E+00 0. -1.
         11    1    3    3    0    0 -0.34280193566E+01  0.41230593081E+00  0.54752141574E+01  0.64729655661E+01  0.51100000000E-03 0. -1.
        -11    1    3    3    0    0  0.73538251795E+01 -0.16846197917E+02  0.31615405848E+02  0.36570575826E+02  0.51100000000E-03 0.  1.
         12    1    3    3    0    0  0.13561654454E+00  0.27184620198E+01  0.38851681280E+01  0.47437283842E+01  0.00000000000E+00 0. -1.
</event>
<event>
 7    1  0.2812635E-010  0.4778728E+02  0.7816164E-02  0.1312668E+00
        -11   -1    0    0    0    0  0.00000000000E+00  0.00000000000E+00  0.45593999997E+02  0.45594000000E+02  0.51100000000E-03 0. -1.
         11   -1    0    0    0    0 -0.00000000000E+00 -0.00000000000E+00 -0.45593999997E+02  0.45594000000E+02  0.51100000000E-03 0.  1.
    9900012    2    1    2    0    0 -0.28135364666E+02 -0.25429571639E+01 -0.32947795171E+02  0.47787279008E+02  0.20000036308E+02 0.  0.
         12    1    1    2    0    0  0.28135364666E+02  0.25429571639E+01  0.32947795171E+02  0.43400720992E+02  0.00000000000E+00 0. -1.
         11    1    3    3    0    0 -0.11301484172E+01  0.10941891388E+01 -0.39038433833E+01  0.42088571773E+01  0.51100000000E-03 0. -1.
        -11    1    3    3    0    0  0.18992376852E+01 -0.19232236915E+01 -0.20344339086E+00  0.27105871370E+01  0.51100000000E-03 0.  1.
        -12    1    3    3    0    0 -0.28904453934E+02 -0.17139226112E+01 -0.28840508397E+02  0.40867834693E+02  0.00000000000E+00 0.  1.
</event>
<event>
 7    1  0.2812635E-010  0.4778727E+02  0.7816164E-02  0.1312668E+00
        -11   -1    0    0    0    0  0.00000000000E+00  0.00000000000E+00  0.45593999997E+02  0.45594000000E+02  0.51100000000E-03 0. -1.
         11   -1    0    0    0    0 -0.00000000000E+00 -0.00000000000E+00 -0.45593999997E+02  0.45594000000E+02  0.51100000000E-03 0.  1.
    9900012    2    1    2    0    0 -0.40988427077E+02  0.13796013235E+02 -0.36389949283E+01  0.47787269366E+02  0.19999992348E+02 0.  0.
         12    1    1    2    0    0  0.40988427077E+02 -0.13796013235E+02  0.36389949283E+01  0.43400730634E+02  0.00000000000E+00 0. -1.
         11    1    3    3    0    0 -0.10028657878E+01 -0.37010232072E+01 -0.27714361935E+00  0.38444923482E+01  0.51100000000E-03 0. -1.
        -11    1    3    3    0    0 -0.27103676227E+02  0.99069779934E+01 -0.25226848790E+01  0.28967592534E+02  0.51100000000E-03 0.  1.
        -12    1    3    3    0    0 -0.12881885063E+02  0.75900584486E+01 -0.83916642993E+00  0.14975184484E+02  0.00000000000E+00 0.  1.
</event>
<event>
 7    1  0.2812635E-010  0.4778729E+02  0.7816164E-02  0.1312668E+00
        -11   -1    0    0    0    0  0.00000000000E+00  0.00000000000E+00  0.45593999997E+02  0.45594000000E+02  0.51100000000E-03 0. -1.
         11   -1    0    0    0    0 -0.00000000000E+00 -0.00000000000E+00 -0.45593999997E+02  0.45594000000E+02  0.51100000000E-03 0.  1.
    9900012    2    1    2    0    0  0.12641961192E+02 -0.11909013501E+02 -0.39774081590E+02  0.47787293189E+02  0.20000100968E+02 0.  0.
         12    1    1    2    0    0 -0.12641961192E+02  0.11909013501E+02  0.39774081590E+02  0.43400706811E+02  0.00000000000E+00 0. -1.
         11    1    3    3    0    0  0.15675759090E+02 -0.92447063423E+01 -0.23909206656E+02  0.30047365635E+02  0.51100000000E-03 0.  1.
        -11    1    3    3    0    0 -0.46257957765E+01 -0.22335712926E-01 -0.73601774144E+01  0.86931408180E+01  0.51100000000E-03 0. -1.
        -12    1    3    3    0    0  0.15919978783E+01 -0.26419714454E+01 -0.85046975192E+01  0.90467867365E+01  0.00000000000E+00 0.  1.
</event>
<event>
 7    1  0.2812635E-010  0.4778727E+02  0.7816164E-02  0.1312668E+00
        -11   -1    0    0    0    0  0.00000000000E+00  0.00000000000E+00  0.45593999997E+02  0.45594000000E+02  0.51100000000E-03 0. -1.
         11   -1    0    0    0    0 -0.00000000000E+00 -0.00000000000E+00 -0.45593999997E+02  0.45594000000E+02  0.51100000000E-03 0.  1.
    9900012    2    1    2    0    0  0.40223732516E+02  0.85137658855E+01 -0.13899291253E+02  0.47787272305E+02  0.20000005748E+02 0.  0.
         12    1    1    2    0    0 -0.40223732516E+02 -0.85137658855E+01  0.13899291253E+02  0.43400727695E+02  0.00000000000E+00 0. -1.
         11    1    3    3    0    0  0.10582112816E+02 -0.18770789921E+01  0.41149246097E+01  0.11508133732E+02  0.51100000000E-03 0. -1.
        -11    1    3    3    0    0  0.26248205599E+02  0.99073043055E+01 -0.16292950905E+02  0.32443539036E+02  0.51100000000E-03 0.  1.
         12    1    3    3    0    0  0.33934141021E+01  0.48354057215E+00 -0.17212649583E+01  0.38355995372E+01  0.00000000000E+00 0. -1.
</event>
<event>
 7    1  0.2812635E-010  0.4778727E+02  0.7816164E-02  0.1312668E+00
        -11   -1    0    0    0    0  0.00000000000E+00  0.00000000000E+00  0.45593999997E+02  0.45594000000E+02  0.51100000000E-03 0. -1.
         11   -1    0    0    0    0 -0.00000000000E+00 -0.00000000000E+00 -0.45593999997E+02  0.45594000000E+02  0.51100000000E-03 0.  1.
    9900012    2    1    2    0    0  0.33926925306E+02  0.11546603634E+02 -0.24479850950E+02  0.47787269376E+02  0.19999992392E+02 0.  0.
         12    1    1    2    0    0 -0.33926925306E+02 -0.11546603634E+02  0.24479850950E+02  0.43400730624E+02  0.00000000000E+00 0. -1.
         11    1    3    3    0    0  0.18206550226E+02  0.15908984058E+02 -0.16749355762E+02  0.29412840114E+02  0.51100000000E-03 0. -1.
        -11    1    3    3    0    0  0.12332155046E+02 -0.27831515840E+01 -0.73332105158E+01  0.14615196117E+02  0.51100000000E-03 0.  1.
         12    1    3    3    0    0  0.33882200338E+01 -0.15792288393E+01 -0.39728467254E+00  0.37592331445E+01  0.00000000000E+00 0. -1.
</event>
<event>
 7    1  0.2812635E-010  0.4778727E+02  0.7816164E-02  0.1312668E+00
        -11   -1    0    0    0    0  0.00000000000E+00  0.00000000000E+00  0.45593999997E+02  0.45594000000E+02  0.51100000000E-03 0.  1.
         11   -1    0    0    0    0 -0.00000000000E+00 -0.00000000000E+00 -0.45593999997E+02  0.45594000000E+02  0.51100000000E-03 0. -1.
    9900012    2    1    2    0    0 -0.24507817990E+02  0.28025109914E+02  0.22306579576E+02  0.47787269353E+02  0.19999992288E+02 0.  0.
         12    1    1    2    0    0  0.24507817990E+02 -0.28025109914E+02 -0.22306579576E+02  0.43400730647E+02  0.00000000000E+00 0. -1.
         11    1    3    3    0    0 -0.42205863027E+01 -0.10207519968E+01  0.74267718374E+01  0.86030357179E+01  0.51100000000E-03 0. -1.
        -11    1    3    3    0    0 -0.11446743274E+02  0.22467860396E+02  0.10854936601E+02  0.27452911162E+02  0.51100000000E-03 0.  1.
         12    1    3    3    0    0 -0.88404884131E+01  0.65780015141E+01  0.40248711373E+01  0.11731322473E+02  0.00000000000E+00 0. -1.
</event>
<event>
 7    1  0.2812635E-010  0.4778727E+02  0.7816164E-02  0.1312668E+00
        -11   -1    0    0    0    0  0.00000000000E+00  0.00000000000E+00  0.45593999997E+02  0.45594000000E+02  0.51100000000E-03 0.  1.
         11   -1    0    0    0    0 -0.00000000000E+00 -0.00000000000E+00 -0.45593999997E+02  0.45594000000E+02  0.51100000000E-03 0. -1.
    9900012    2    1    2    0    0 -0.17672149725E+02 -0.16383393084E+02  0.36095744615E+02  0.47787271617E+02  0.20000002612E+02 0.  0.
         12    1    1    2    0    0  0.17672149725E+02  0.16383393084E+02 -0.36095744615E+02  0.43400728383E+02  0.00000000000E+00 0. -1.
         11    1    3    3    0    0 -0.86887966557E+01 -0.13814264706E+02  0.10983152151E+02  0.19671266562E+02  0.51100000000E-03 0. -1.
        -11    1    3    3    0    0  0.28175706612E+00  0.16509998308E+01  0.10210188009E+01  0.19615471288E+01  0.51100000000E-03 0.  1.
         12    1    3    3    0    0 -0.92651101351E+01 -0.42201282086E+01  0.24091573663E+02  0.26154457927E+02  0.00000000000E+00 0. -1.
</event>
<event>
 7    1  0.2812635E-010  0.4778727E+02  0.7816164E-02  0.1312668E+00
        -11   -1    0    0    0    0  0.00000000000E+00  0.00000000000E+00  0.45593999997E+02  0.45594000000E+02  0.51100000000E-03 0.  1.
         11   -1    0    0    0    0 -0.00000000000E+00 -0.00000000000E+00 -0.45593999997E+02  0.45594000000E+02  0.51100000000E-03 0. -1.
    9900012    2    1    2    0    0  0.37711723786E+02  0.15333490142E+02  0.15044380740E+02  0.47787269330E+02  0.19999992183E+02 0.  0.
         12    1    1    2    0    0 -0.37711723786E+02 -0.15333490142E+02 -0.15044380740E+02  0.43400730670E+02  0.00000000000E+00 0. -1.
         11    1    3    3    0    0  0.93094352666E+01  0.34763688790E+01 -0.39954735423E+01  0.10710487134E+02  0.51100000000E-03 0. -1.
        -11    1    3    3    0    0  0.14650089955E+02  0.52907082372E+01  0.14226491495E+02  0.21095255150E+02  0.51100000000E-03 0.  1.
        -12    1    3    3    0    0  0.13752198564E+02  0.65664130262E+01  0.48133627873E+01  0.15981527045E+02  0.00000000000E+00 0.  1.
</event>
<event>
 7    1  0.2812635E-010  0.4778727E+02  0.7816164E-02  0.1312668E+00
        -11   -1    0    0    0    0  0.00000000000E+00  0.00000000000E+00  0.45593999997E+02  0.45594000000E+02  0.51100000000E-03 0.  1.
         11   -1    0    0    0    0 -0.00000000000E+00 -0.00000000000E+00 -0.45593999997E+02  0.45594000000E+02  0.51100000000E-03 0. -1.
    9900012    2    1    2    0    0 -0.86015365861E+01  0.38789226078E+02  0.17465193166E+02  0.47787268858E+02  0.19999990030E+02 0.  0.
         12    1    1    2    0    0  0.86015365861E+01 -0.38789226078E+02 -0.17465193166E+02  0.43400731142E+02  0.00000000000E+00 0. -1.
         11    1    3    3    0    0  0.33720121212E+00 -0.84063602777E+00 -0.20017945060E+01  0.21971697918E+01  0.51100000000E-03 0. -1.
        -11    1    3    3    0    0 -0.14806771724E+01  0.42876642843E+01  0.48029330736E+01  0.66064087274E+01  0.51100000000E-03 0.  1.
         12    1    3    3    0    0 -0.74580606258E+01  0.35342197821E+02  0.14664054598E+02  0.38983690338E+02  0.00000000000E+00 0. -1.
</event>
<event>
 7    1  0.2812635E-010  0.4778727E+02  0.7816164E-02  0.1312668E+00
        -11   -1    0    0    0    0  0.00000000000E+00  0.00000000000E+00  0.45593999997E+02  0.45594000000E+02  0.51100000000E-03 0. -1.
         11   -1    0    0    0    0 -0.00000000000E+00 -0.00000000000E+00 -0.45593999997E+02  0.45594000000E+02  0.51100000000E-03 0.  1.
    9900012    2    1    2    0    0  0.24032742480E+02 -0.35737147329E+02  0.53765328189E+01  0.47787268261E+02  0.19999987310E+02 0.  0.
         12    1    1    2    0    0 -0.24032742480E+02  0.35737147329E+02 -0.53765328189E+01  0.43400731739E+02  0.00000000000E+00 0. -1.
         11    1    3    3    0    0  0.99650846088E+00 -0.36363946952E+01  0.39040518611E+01  0.54275239924E+01  0.51100000000E-03 0. -1.
        -11    1    3    3    0    0 -0.14788827552E+01 -0.72200768803E+01 -0.39727474551E+00  0.73806796330E+01  0.51100000000E-03 0.  1.
        -12    1    3    3    0    0  0.24515116774E+02 -0.24880675753E+02  0.18697557033E+01  0.34979064636E+02  0.00000000000E+00 0.  1.
</event>
<event>
 7    1  0.2812635E-010  0.4778728E+02  0.7816164E-02  0.1312668E+00
        -11   -1    0    0    0    0  0.00000000000E+00  0.00000000000E+00  0.45593999997E+02  0.45594000000E+02  0.51100000000E-03 0.  1.
         11   -1    0    0    0    0 -0.00000000000E+00 -0.00000000000E+00 -0.45593999997E+02  0.45594000000E+02  0.51100000000E-03 0. -1.
    9900012    2    1    2    0    0 -0.24397115299E+02  0.34931932699E+02 -0.82561062671E+01  0.47787280562E+02  0.20000043396E+02 0.  0.
         12    1    1    2    0    0  0.24397115299E+02 -0.34931932699E+02  0.82561062671E+01  0.43400719438E+02  0.00000000000E+00 0. -1.
         11    1    3    3    0    0 -0.13285780075E+02  0.59116158400E+01 -0.80611382769E+01  0.16626518115E+02  0.51100000000E-03 0. -1.
        -11    1    3    3    0    0 -0.53086562677E+01  0.15359048836E+02  0.91820503237E+00  0.16276526450E+02  0.51100000000E-03 0.  1.
         12    1    3    3    0    0 -0.58026789563E+01  0.13661268023E+02 -0.11131730226E+01  0.14884235998E+02  0.00000000000E+00 0. -1.
</event>
<event>
 7    1  0.2812635E-010  0.4778727E+02  0.7816164E-02  0.1312668E+00
        -11   -1    0    0    0    0  0.00000000000E+00  0.00000000000E+00  0.45593999997E+02  0.45594000000E+02  0.51100000000E-03 0. -1.
         11   -1    0    0    0    0 -0.00000000000E+00 -0.00000000000E+00 -0.45593999997E+02  0.45594000000E+02  0.51100000000E-03 0.  1.
    9900012    2    1    2    0    0 -0.26419705453E+01  0.37205192309E+02 -0.22190469234E+02  0.47787271113E+02  0.20000000314E+02 0.  0.
         12    1    1    2    0    0  0.26419705453E+01 -0.37205192309E+02  0.22190469234E+02  0.43400728887E+02  0.00000000000E+00 0. -1.
         11    1    3    3    0    0  0.51571692555E+01  0.18978577011E+02 -0.15603558116E+02  0.25104856228E+02  0.51100000000E-03 0.  1.
        -11    1    3    3    0    0 -0.84684058193E+01  0.14962698890E+02 -0.24436893237E+01  0.17365709688E+02  0.51100000000E-03 0. -1.
        -12    1    3    3    0    0  0.66926601844E+00  0.32639164074E+01 -0.41432217942E+01  0.53167051972E+01  0.00000000000E+00 0.  1.
</event>
<event>
 7    1  0.2812635E-010  0.4778727E+02  0.7816164E-02  0.1312668E+00
        -11   -1    0    0    0    0  0.00000000000E+00  0.00000000000E+00  0.45593999997E+02  0.45594000000E+02  0.51100000000E-03 0.  1.
         11   -1    0    0    0    0 -0.00000000000E+00 -0.00000000000E+00 -0.45593999997E+02  0.45594000000E+02  0.51100000000E-03 0. -1.
    9900012    2    1    2    0    0 -0.30856654829E+02 -0.20859560499E+02 -0.22279339115E+02  0.47787270019E+02  0.19999995325E+02 0.  0.
         12    1    1    2    0    0  0.30856654829E+02  0.20859560499E+02  0.22279339115E+02  0.43400729981E+02  0.00000000000E+00 0. -1.
         11    1    3    3    0    0 -0.26350045125E+02 -0.18501244067E+02 -0.25386633148E+02  0.41001244530E+02  0.51100000000E-03 0. -1.
        -11    1    3    3    0    0 -0.15531707983E+01 -0.22574103697E+01  0.26196777165E+01  0.37909039431E+01  0.51100000000E-03 0.  1.
         12    1    3    3    0    0 -0.29534389056E+01 -0.10090606296E+00  0.48761631716E+00  0.29951215460E+01  0.00000000000E+00 0. -1.
</event>
<event>
 7    1  0.2812635E-010  0.4778726E+02  0.7816164E-02  0.1312668E+00
        -11   -1    0    0    0    0  0.00000000000E+00  0.00000000000E+00  0.45593999997E+02  0.45594000000E+02  0.51100000000E-03 0.  1.
         11   -1    0    0    0    0 -0.00000000000E+00 -0.00000000000E+00 -0.45593999997E+02  0.45594000000E+02  0.51100000000E-03 0. -1.
    9900012    2    1    2    0    0 -0.39642772338E+01  0.37112494915E+02  0.22148856732E+02  0.47787255452E+02  0.19999928907E+02 0.  0.
         12    1    1    2    0    0  0.39642772338E+01 -0.37112494915E+02 -0.22148856732E+02  0.43400744548E+02  0.00000000000E+00 0. -1.
         11    1    3    3    0    0  0.46894500351E+00  0.55033713066E+01 -0.31454261859E+01  0.63561553872E+01  0.51100000000E-03 0. -1.
        -11    1    3    3    0    0  0.23620139180E+00  0.21120549076E+02  0.18579746442E+02  0.28130772518E+02  0.51100000000E-03 0.  1.
         12    1    3    3    0    0 -0.46694236291E+01  0.10488574533E+02  0.67145364756E+01  0.13300327546E+02  0.00000000000E+00 0. -1.
</event>
<event>
 7    1  0.2812635E-010  0.4778728E+02  0.7816164E-02  0.1312668E+00
        -11   -1    0    0    0    0  0.00000000000E+00  0.00000000000E+00  0.45593999997E+02  0.45594000000E+02  0.51100000000E-03 0. -1.
         11   -1    0    0    0    0 -0.00000000000E+00 -0.00000000000E+00 -0.45593999997E+02  0.45594000000E+02  0.51100000000E-03 0.  1.
    9900012    2    1    2    0    0  0.40516598172E+02 -0.17449973873E+01 -0.15459070156E+02  0.47787278884E+02  0.20000035745E+02 0.  0.
         12    1    1    2    0    0 -0.40516598172E+02  0.17449973873E+01  0.15459070156E+02  0.43400721116E+02  0.00000000000E+00 0. -1.
         11    1    3    3    0    0  0.17629598830E+02  0.76572454010E+01 -0.35039122272E+01  0.19537491221E+02  0.51100000000E-03 0. -1.
        -11    1    3    3    0    0  0.20723907349E+02 -0.60936533457E+01 -0.95120398054E+01  0.23602793234E+02  0.51100000000E-03 0.  1.
         12    1    3    3    0    0  0.21630919920E+01 -0.33085894425E+01 -0.24431181233E+01  0.46469944297E+01  0.00000000000E+00 0. -1.
</event>
<event>
 7    1  0.2812635E-010  0.4778727E+02  0.7816164E-02  0.1312668E+00
        -11   -1    0    0    0    0  0.00000000000E+00  0.00000000000E+00  0.45593999997E+02  0.45594000000E+02  0.51100000000E-03 0. -1.
         11   -1    0    0    0    0 -0.00000000000E+00 -0.00000000000E+00 -0.45593999997E+02  0.45594000000E+02  0.51100000000E-03 0.  1.
    9900012    2    1    2    0    0  0.35284784304E+02  0.19960933406E+02 -0.15497373915E+02  0.47787268853E+02  0.19999990011E+02 0.  0.
         12    1    1    2    0    0 -0.35284784304E+02 -0.19960933406E+02  0.15497373915E+02  0.43400731147E+02  0.00000000000E+00 0. -1.
         11    1    3    3    0    0  0.15266793905E+02  0.97649410502E+01  0.22966650776E+01  0.18267559788E+02  0.51100000000E-03 0. -1.
        -11    1    3    3    0    0  0.68937811757E+01  0.15807236441E+01 -0.22372636373E+01  0.74181031930E+01  0.51100000000E-03 0.  1.
         12    1    3    3    0    0  0.13124209223E+02  0.86152687116E+01 -0.15556775356E+02  0.22101605873E+02  0.00000000000E+00 0. -1.
</event>
<event>
 7    1  0.2812635E-010  0.4778727E+02  0.7816164E-02  0.1312668E+00
        -11   -1    0    0    0    0  0.00000000000E+00  0.00000000000E+00  0.45593999997E+02  0.45594000000E+02  0.51100000000E-03 0.  1.
         11   -1    0    0    0    0 -0.00000000000E+00 -0.00000000000E+00 -0.45593999997E+02  0.45594000000E+02  0.51100000000E-03 0. -1.
    9900012    2    1    2    0    0  0.22885961903E+02  0.52311589577E+01  0.36503303942E+02  0.47787268728E+02  0.19999989437E+02 0.  0.
         12    1    1    2    0    0 -0.22885961903E+02 -0.52311589577E+01 -0.36503303942E+02  0.43400731272E+02  0.00000000000E+00 0. -1.
         11    1    3    3    0    0  0.16466392672E+02  0.36356271404E+00  0.12675121415E+02  0.20782997103E+02  0.51100000000E-03 0. -1.
        -11    1    3    3    0    0 -0.11531121628E+00  0.18315822471E+01  0.16929260425E+02  0.17028442354E+02  0.51100000000E-03 0.  1.
        -12    1    3    3    0    0  0.65348804480E+01  0.30360139965E+01  0.68989221025E+01  0.99758292704E+01  0.00000000000E+00 0.  1.
</event>
<event>
 7    1  0.2812635E-010  0.4778727E+02  0.7816164E-02  0.1312668E+00
        -11   -1    0    0    0    0  0.00000000000E+00  0.00000000000E+00  0.45593999997E+02  0.45594000000E+02  0.51100000000E-03 0. -1.
         11   -1    0    0    0    0 -0.00000000000E+00 -0.00000000000E+00 -0.45593999997E+02  0.45594000000E+02  0.51100000000E-03 0.  1.
    9900012    2    1    2    0    0 -0.15640543760E+02 -0.11930176682E+02 -0.38686788269E+02  0.47787270612E+02  0.19999998030E+02 0.  0.
         12    1    1    2    0    0  0.15640543760E+02  0.11930176682E+02  0.38686788269E+02  0.43400729388E+02  0.00000000000E+00 0. -1.
         11    1    3    3    0    0  0.28594363198E+01 -0.61189583362E+01 -0.91359350445E+01  0.11361484788E+02  0.51100000000E-03 0. -1.
        -11    1    3    3    0    0 -0.17475930290E+02 -0.24188749132E+01 -0.25900315654E+02  0.31338242557E+02  0.51100000000E-03 0.  1.
        -12    1    3    3    0    0 -0.10240497897E+01 -0.33923434328E+01 -0.36505375709E+01  0.50875432671E+01  0.00000000000E+00 0.  1.
</event>
<event>
 7    1  0.2812635E-010  0.4778727E+02  0.7816164E-02  0.1312668E+00
        -11   -1    0    0    0    0  0.00000000000E+00  0.00000000000E+00  0.45593999997E+02  0.45594000000E+02  0.51100000000E-03 0.  1.
         11   -1    0    0    0    0 -0.00000000000E+00 -0.00000000000E+00 -0.45593999997E+02  0.45594000000E+02  0.51100000000E-03 0. -1.
    9900012    2    1    2    0    0  0.23590775607E+02  0.20684264173E+02  0.29987657829E+02  0.47787273045E+02  0.20000009121E+02 0.  0.
         12    1    1    2    0    0 -0.23590775607E+02 -0.20684264173E+02 -0.29987657829E+02  0.43400726955E+02  0.00000000000E+00 0. -1.
         11    1    3    3    0    0  0.21088060783E+01 -0.20027746034E+01 -0.75729437214E+00  0.30052727355E+01  0.51100000000E-03 0. -1.
        -11    1    3    3    0    0 -0.12500794748E+00  0.38387269063E+01  0.28883394882E+01  0.48056171829E+01  0.51100000000E-03 0.  1.
         12    1    3    3    0    0  0.21606977476E+02  0.18848311870E+02  0.27856612713E+02  0.39976383127E+02  0.00000000000E+00 0. -1.
</event>
<event>
 7    1  0.2812635E-010  0.4778725E+02  0.7816164E-02  0.1312668E+00
        -11   -1    0    0    0    0  0.00000000000E+00  0.00000000000E+00  0.45593999997E+02  0.45594000000E+02  0.51100000000E-03 0.  1.
         11   -1    0    0    0    0 -0.00000000000E+00 -0.00000000000E+00 -0.45593999997E+02  0.45594000000E+02  0.51100000000E-03 0. -1.
    9900012    2    1    2    0    0  0.23323158541E+02 -0.18576744440E+02  0.31536639700E+02  0.47787253441E+02  0.19999919741E+02 0.  0.
         12    1    1    2    0    0 -0.23323158541E+02  0.18576744440E+02 -0.31536639700E+02  0.43400746559E+02  0.00000000000E+00 0. -1.
         11    1    3    3    0    0  0.41938566879E+01 -0.44458570956E+01  0.15225251602E+02  0.16406168530E+02  0.51100000000E-03 0. -1.
        -11    1    3    3    0    0  0.60276974849E+01 -0.34475603683E+01 -0.11934914424E+01  0.70457953097E+01  0.51100000000E-03 0.  1.
        -12    1    3    3    0    0  0.13101604368E+02 -0.10683326976E+02  0.17504879540E+02  0.24335289602E+02  0.00000000000E+00 0.  1.
</event>
<event>
 7    1  0.2812635E-010  0.4778727E+02  0.7816164E-02  0.1312668E+00
        -11   -1    0    0    0    0  0.00000000000E+00  0.00000000000E+00  0.45593999997E+02  0.45594000000E+02  0.51100000000E-03 0.  1.
         11   -1    0    0    0    0 -0.00000000000E+00 -0.00000000000E+00 -0.45593999997E+02  0.45594000000E+02  0.51100000000E-03 0. -1.
    9900012    2    1    2    0    0 -0.19403448776E+02  0.15171244764E+02  0.35734614742E+02  0.47787272093E+02  0.20000004780E+02 0.  0.
         12    1    1    2    0    0  0.19403448776E+02 -0.15171244764E+02 -0.35734614742E+02  0.43400727907E+02  0.00000000000E+00 0. -1.
         11    1    3    3    0    0 -0.80424925660E+01 -0.79218820671E+00  0.10510978421E+02  0.13258578976E+02  0.51100000000E-03 0. -1.
        -11    1    3    3    0    0 -0.11535774755E+02  0.16606249611E+02  0.17397429507E+02  0.26674185631E+02  0.51100000000E-03 0.  1.
        -12    1    3    3    0    0  0.17481854487E+00 -0.64281663999E+00  0.78262068141E+01  0.78545074864E+01  0.00000000000E+00 0.  1.
</event>
<event>
 7    1  0.2812635E-010  0.4778727E+02  0.7816164E-02  0.1312668E+00
        -11   -1    0    0    0    0  0.00000000000E+00  0.00000000000E+00  0.45593999997E+02  0.45594000000E+02  0.51100000000E-03 0.  1.
         11   -1    0    0    0    0 -0.00000000000E+00 -0.00000000000E+00 -0.45593999997E+02  0.45594000000E+02  0.51100000000E-03 0. -1.
    9900012    2    1    2    0    0  0.20294493512E+02 -0.25233230463E+02  0.28897071136E+02  0.47787272969E+02  0.20000008777E+02 0.  0.
         12    1    1    2    0    0 -0.20294493512E+02  0.25233230463E+02 -0.28897071136E+02  0.43400727031E+02  0.00000000000E+00 0. -1.
         11    1    3    3    0    0 -0.31563016812E+01 -0.25404158286E+01  0.31451098036E+01  0.51291001962E+01  0.51100000000E-03 0. -1.
        -11    1    3    3    0    0  0.23253209601E+02 -0.21898794679E+02  0.21919410849E+02  0.38739250604E+02  0.51100000000E-03 0.  1.
        -12    1    3    3    0    0  0.19758559174E+00 -0.79401995597E+00  0.38325504835E+01  0.39189221688E+01  0.00000000000E+00 0.  1.
</event>
<event>
 7    1  0.2812635E-010  0.4778727E+02  0.7816164E-02  0.1312668E+00
        -11   -1    0    0    0    0  0.00000000000E+00  0.00000000000E+00  0.45593999997E+02  0.45594000000E+02  0.51100000000E-03 0.  1.
         11   -1    0    0    0    0 -0.00000000000E+00 -0.00000000000E+00 -0.45593999997E+02  0.45594000000E+02  0.51100000000E-03 0. -1.
    9900012    2    1    2    0    0  0.15237983079E+02 -0.34125416929E+02  0.22065425615E+02  0.47787271705E+02  0.20000003013E+02 0.  0.
         12    1    1    2    0    0 -0.15237983079E+02  0.34125416929E+02 -0.22065425615E+02  0.43400728295E+02  0.00000000000E+00 0. -1.
         11    1    3    3    0    0  0.45758006337E+01  0.79496026330E-01 -0.73428094334E+00  0.46350231739E+01  0.51100000000E-03 0. -1.
        -11    1    3    3    0    0  0.58096730799E+01 -0.27855032865E+02  0.19559289456E+02  0.34528552844E+02  0.51100000000E-03 0.  1.
         12    1    3    3    0    0  0.48525093656E+01 -0.63498800903E+01  0.32404171024E+01  0.86236956870E+01  0.00000000000E+00 0. -1.
</event>
<event>
 7    1  0.2812635E-010  0.4778727E+02  0.7816164E-02  0.1312668E+00
        -11   -1    0    0    0    0  0.00000000000E+00  0.00000000000E+00  0.45593999997E+02  0.45594000000E+02  0.51100000000E-03 0.  1.
         11   -1    0    0    0    0 -0.00000000000E+00 -0.00000000000E+00 -0.45593999997E+02  0.45594000000E+02  0.51100000000E-03 0. -1.
    9900012    2    1    2    0    0 -0.96883460534E+01 -0.16137889172E+02  0.39106618630E+02  0.47787272623E+02  0.20000007199E+02 0.  0.
         12    1    1    2    0    0  0.96883460534E+01  0.16137889172E+02 -0.39106618630E+02  0.43400727377E+02  0.00000000000E+00 0. -1.
         11    1    3    3    0    0  0.44477250322E+01 -0.70516822924E+01  0.21217344136E+02  0.22796582497E+02  0.51100000000E-03 0. -1.
        -11    1    3    3    0    0  0.10222624761E+00  0.35152362134E+00  0.43062109083E+00  0.56520248323E+00  0.51100000000E-03 0.  1.
         12    1    3    3    0    0 -0.14238297333E+02 -0.94377305008E+01  0.17458653403E+02  0.24425487643E+02  0.00000000000E+00 0. -1.
</event>
<event>
 7    1  0.2812635E-010  0.4778726E+02  0.7816164E-02  0.1312668E+00
        -11   -1    0    0    0    0  0.00000000000E+00  0.00000000000E+00  0.45593999997E+02  0.45594000000E+02  0.51100000000E-03 0. -1.
         11   -1    0    0    0    0 -0.00000000000E+00 -0.00000000000E+00 -0.45593999997E+02  0.45594000000E+02  0.51100000000E-03 0.  1.
    9900012    2    1    2    0    0 -0.23404164370E+01  0.14590253895E+02 -0.40807730843E+02  0.47787263205E+02  0.19999964256E+02 0.  0.
         12    1    1    2    0    0  0.23404164370E+01 -0.14590253895E+02  0.40807730843E+02  0.43400736795E+02  0.00000000000E+00 0. -1.
         11    1    3    3    0    0  0.41581129952E+01 -0.20166943421E+01 -0.76381932904E+01  0.89274272192E+01  0.51100000000E-03 0. -1.
        -11    1    3    3    0    0 -0.18993458106E+01  0.11469844649E+02 -0.12501419633E+02  0.17071916819E+02  0.51100000000E-03 0.  1.
         12    1    3    3    0    0 -0.45991836217E+01  0.51371035876E+01 -0.20668117919E+02  0.21787919166E+02  0.00000000000E+00 0. -1.
</event>
<event>
 7    1  0.2812635E-010  0.4778726E+02  0.7816164E-02  0.1312668E+00
        -11   -1    0    0    0    0  0.00000000000E+00  0.00000000000E+00  0.45593999997E+02  0.45594000000E+02  0.51100000000E-03 0.  1.
         11   -1    0    0    0    0 -0.00000000000E+00 -0.00000000000E+00 -0.45593999997E+02  0.45594000000E+02  0.51100000000E-03 0. -1.
    9900012    2    1    2    0    0  0.77296791793E+01 -0.16892051880E+02  0.39224156426E+02  0.47787264934E+02  0.19999972139E+02 0.  0.
         12    1    1    2    0    0 -0.77296791793E+01  0.16892051880E+02 -0.39224156426E+02  0.43400735066E+02  0.00000000000E+00 0. -1.
         11    1    3    3    0    0  0.25821725129E+01 -0.16437895871E+02  0.19164042676E+02  0.25379766892E+02  0.51100000000E-03 0. -1.
        -11    1    3    3    0    0  0.69709810062E+01  0.70634873004E+00  0.10620181599E+02  0.12723276393E+02  0.51100000000E-03 0.  1.
        -12    1    3    3    0    0 -0.18234743398E+01 -0.11605047393E+01  0.94399321511E+01  0.96842216484E+01  0.00000000000E+00 0.  1.
</event>
<event>
 7    1  0.2812635E-010  0.4778728E+02  0.7816164E-02  0.1312668E+00
        -11   -1    0    0    0    0  0.00000000000E+00  0.00000000000E+00  0.45593999997E+02  0.45594000000E+02  0.51100000000E-03 0. -1.
         11   -1    0    0    0    0 -0.00000000000E+00 -0.00000000000E+00 -0.45593999997E+02  0.45594000000E+02  0.51100000000E-03 0.  1.
    9900012    2    1    2    0    0 -0.20791893672E+02 -0.20681825752E+02 -0.31993466369E+02  0.47787278241E+02  0.20000032813E+02 0.  0.
         12    1    1    2    0    0  0.20791893672E+02  0.20681825752E+02  0.31993466369E+02  0.43400721759E+02  0.00000000000E+00 0. -1.
         11    1    3    3    0    0 -0.80822104897E+00 -0.94002707140E+01 -0.17407624039E+01  0.95941943261E+01  0.51100000000E-03 0. -1.
        -11    1    3    3    0    0 -0.10239247288E+02 -0.80909378358E+01 -0.17472287441E+02  0.21807940957E+02  0.51100000000E-03 0.  1.
         12    1    3    3    0    0 -0.97444253351E+01 -0.31906172019E+01 -0.12780416524E+02  0.16385142958E+02  0.00000000000E+00 0. -1.
</event>
<event>
 7    1  0.2812635E-010  0.4778727E+02  0.7816164E-02  0.1312668E+00
        -11   -1    0    0    0    0  0.00000000000E+00  0.00000000000E+00  0.45593999997E+02  0.45594000000E+02  0.51100000000E-03 0.  1.
         11   -1    0    0    0    0 -0.00000000000E+00 -0.00000000000E+00 -0.45593999997E+02  0.45594000000E+02  0.51100000000E-03 0. -1.
    9900012    2    1    2    0    0 -0.27465612358E+02 -0.28667683603E+02  0.17533610480E+02  0.47787269110E+02  0.19999991180E+02 0.  0.
         12    1    1    2    0    0  0.27465612358E+02  0.28667683603E+02 -0.17533610480E+02  0.43400730890E+02  0.00000000000E+00 0. -1.
         11    1    3    3    0    0 -0.32594986897E+01 -0.12223125924E+01 -0.35169577776E+01  0.49484716885E+01  0.51100000000E-03 0. -1.
        -11    1    3    3    0    0 -0.14546787079E+02 -0.20880695632E+02  0.16359007411E+02  0.30252761661E+02  0.51100000000E-03 0.  1.
         12    1    3    3    0    0 -0.96593265889E+01 -0.65646753779E+01  0.46915608473E+01  0.12586035760E+02  0.00000000000E+00 0. -1.
</event>
<event>
 7    1  0.2812635E-010  0.4778727E+02  0.7816164E-02  0.1312668E+00
        -11   -1    0    0    0    0  0.00000000000E+00  0.00000000000E+00  0.45593999997E+02  0.45594000000E+02  0.51100000000E-03 0.  1.
         11   -1    0    0    0    0 -0.00000000000E+00 -0.00000000000E+00 -0.45593999997E+02  0.45594000000E+02  0.51100000000E-03 0. -1.
    9900012    2    1    2    0    0  0.20616741493E+02  0.40015371019E+00  0.38189172655E+02  0.47787273499E+02  0.20000011190E+02 0.  0.
         12    1    1    2    0    0 -0.20616741493E+02 -0.40015371019E+00 -0.38189172655E+02  0.43400726501E+02  0.00000000000E+00 0. -1.
         11    1    3    3    0    0  0.24528089306E+01 -0.69882700972E+00  0.12803807268E+02  0.13055348010E+02  0.51100000000E-03 0. -1.
        -11    1    3    3    0    0  0.14567750505E+02 -0.55579570367E+01  0.20378197348E+02  0.25658939351E+02  0.51100000000E-03 0.  1.
        -12    1    3    3    0    0  0.35961820571E+01  0.66569377566E+01  0.50071680380E+01  0.90729861370E+01  0.00000000000E+00 0.  1.
</event>
<event>
 7    1  0.2812635E-010  0.4778727E+02  0.7816164E-02  0.1312668E+00
        -11   -1    0    0    0    0  0.00000000000E+00  0.00000000000E+00  0.45593999997E+02  0.45594000000E+02  0.51100000000E-03 0.  1.
         11   -1    0    0    0    0 -0.00000000000E+00 -0.00000000000E+00 -0.45593999997E+02  0.45594000000E+02  0.51100000000E-03 0. -1.
    9900012    2    1    2    0    0  0.31292737305E+02  0.29746210695E+02  0.44216257214E+01  0.47787271518E+02  0.20000002157E+02 0.  0.
         12    1    1    2    0    0 -0.31292737305E+02 -0.29746210695E+02 -0.44216257214E+01  0.43400728482E+02  0.00000000000E+00 0. -1.
         11    1    3    3    0    0  0.12673331307E+02  0.19138432070E+02 -0.26921190920E+01  0.23111477971E+02  0.51100000000E-03 0. -1.
        -11    1    3    3    0    0  0.12278221441E+02  0.10974922359E+02  0.79186958545E+01  0.18273187648E+02  0.51100000000E-03 0.  1.
         12    1    3    3    0    0  0.63411845573E+01 -0.36714373415E+00 -0.80495104116E+00  0.64026058984E+01  0.00000000000E+00 0. -1.
</event>
<event>
 7    1  0.2812635E-010  0.4778727E+02  0.7816164E-02  0.1312668E+00
        -11   -1    0    0    0    0  0.00000000000E+00  0.00000000000E+00  0.45593999997E+02  0.45594000000E+02  0.51100000000E-03 0.  1.
         11   -1    0    0    0    0 -0.00000000000E+00 -0.00000000000E+00 -0.45593999997E+02  0.45594000000E+02  0.51100000000E-03 0. -1.
    9900012    2    1    2    0    0 -0.10699510558E+02  0.41893540447E+02  0.37516452204E+01  0.47787273056E+02  0.20000009173E+02 0.  0.
         12    1    1    2    0    0  0.10699510558E+02 -0.41893540447E+02 -0.37516452204E+01  0.43400726944E+02  0.00000000000E+00 0. -1.
         11    1    3    3    0    0  0.19461742313E+01  0.25861867809E+02 -0.72898221593E+00  0.25945234939E+02  0.51100000000E-03 0. -1.
        -11    1    3    3    0    0 -0.88806171499E+01  0.86381958000E+01 -0.49441680026E-01  0.12388956065E+02  0.51100000000E-03 0.  1.
         12    1    3    3    0    0 -0.37650676392E+01  0.73934768379E+01  0.45300691163E+01  0.94530820519E+01  0.00000000000E+00 0. -1.
</event>
<event>
 7    1  0.2812635E-010  0.4778726E+02  0.7816164E-02  0.1312668E+00
        -11   -1    0    0    0    0  0.00000000000E+00  0.00000000000E+00  0.45593999997E+02  0.45594000000E+02  0.51100000000E-03 0. -1.
         11   -1    0    0    0    0 -0.00000000000E+00 -0.00000000000E+00 -0.45593999997E+02  0.45594000000E+02  0.51100000000E-03 0.  1.
    9900012    2    1    2    0    0 -0.42447260491E+02  0.88267740615E+01  0.19856127416E+01  0.47787256671E+02  0.19999934466E+02 0.  0.
         12    1    1    2    0    0  0.42447260491E+02 -0.88267740615E+01 -0.19856127416E+01  0.43400743329E+02  0.00000000000E+00 0. -1.
         11    1    3    3    0    0 -0.81757617676E+01 -0.29790229519E+00 -0.71157335593E+01  0.10842762130E+02  0.51100000000E-03 0. -1.
        -11    1    3    3    0    0 -0.27034749403E+02  0.85609024560E+01  0.56851244663E+01  0.28922091325E+02  0.51100000000E-03 0.  1.
         12    1    3    3    0    0 -0.72367493209E+01  0.56377390069E+00  0.34162218346E+01  0.80224032165E+01  0.00000000000E+00 0. -1.
</event>
<event>
 7    1  0.2812635E-010  0.4778727E+02  0.7816164E-02  0.1312668E+00
        -11   -1    0    0    0    0  0.00000000000E+00  0.00000000000E+00  0.45593999997E+02  0.45594000000E+02  0.51100000000E-03 0. -1.
         11   -1    0    0    0    0 -0.00000000000E+00 -0.00000000000E+00 -0.45593999997E+02  0.45594000000E+02  0.51100000000E-03 0.  1.
    9900012    2    1    2    0    0  0.35275078021E+02 -0.13093535105E+02 -0.21629879752E+02  0.47787268566E+02  0.19999988698E+02 0.  0.
         12    1    1    2    0    0 -0.35275078021E+02  0.13093535105E+02  0.21629879752E+02  0.43400731434E+02  0.00000000000E+00 0. -1.
         11    1    3    3    0    0 -0.34822821237E+00 -0.37900732769E+00  0.62927008576E+00  0.81295174782E+00  0.51100000000E-03 0. -1.
        -11    1    3    3    0    0  0.17387868118E+02  0.24922899451E+01 -0.10678046875E+02  0.20556511187E+02  0.51100000000E-03 0.  1.
        -12    1    3    3    0    0  0.18235438115E+02 -0.15206817722E+02 -0.11581102964E+02  0.26417805631E+02  0.00000000000E+00 0.  1.
</event>
<event>
 7    1  0.2812635E-010  0.4778727E+02  0.7816164E-02  0.1312668E+00
        -11   -1    0    0    0    0  0.00000000000E+00  0.00000000000E+00  0.45593999997E+02  0.45594000000E+02  0.51100000000E-03 0.  1.
         11   -1    0    0    0    0 -0.00000000000E+00 -0.00000000000E+00 -0.45593999997E+02  0.45594000000E+02  0.51100000000E-03 0. -1.
    9900012    2    1    2    0    0 -0.21941771205E+01  0.34652753842E+02  0.26038341514E+02  0.47787274304E+02  0.20000014863E+02 0.  0.
         12    1    1    2    0    0  0.21941771205E+01 -0.34652753842E+02 -0.26038341514E+02  0.43400725696E+02  0.00000000000E+00 0. -1.
         11    1    3    3    0    0 -0.18809702853E+01  0.23546947437E+02  0.11215124073E+02  0.26149106888E+02  0.51100000000E-03 0. -1.
        -11    1    3    3    0    0  0.30276284453E+01 -0.91966973344E+00  0.41306020146E+01  0.52032873922E+01  0.51100000000E-03 0.  1.
        -12    1    3    3    0    0 -0.33408352805E+01  0.12025476139E+02  0.10692615427E+02  0.16434880024E+02  0.00000000000E+00 0.  1.
</event>
<event>
 7    1  0.2812635E-010  0.4778727E+02  0.7816164E-02  0.1312668E+00
        -11   -1    0    0    0    0  0.00000000000E+00  0.00000000000E+00  0.45593999997E+02  0.45594000000E+02  0.51100000000E-03 0. -1.
         11   -1    0    0    0    0 -0.00000000000E+00 -0.00000000000E+00 -0.45593999997E+02  0.45594000000E+02  0.51100000000E-03 0.  1.
    9900012    2    1    2    0    0 -0.20208528169E+02 -0.80510444463E+01 -0.37555548778E+02  0.47787272225E+02  0.20000005381E+02 0.  0.
         12    1    1    2    0    0  0.20208528169E+02  0.80510444463E+01  0.37555548778E+02  0.43400727775E+02  0.00000000000E+00 0. -1.
         11    1    3    3    0    0 -0.13801588281E+01  0.27682977777E+01 -0.38550877895E+01  0.49426726680E+01  0.51100000000E-03 0. -1.
        -11    1    3    3    0    0 -0.14352909408E+02  0.38969675820E+00 -0.17312932731E+02  0.22492121111E+02  0.51100000000E-03 0.  1.
        -12    1    3    3    0    0 -0.44754599323E+01 -0.11209038982E+02 -0.16387528257E+02  0.20352478446E+02  0.00000000000E+00 0.  1.
</event>
<event>
 7    1  0.2812635E-010  0.4778727E+02  0.7816164E-02  0.1312668E+00
        -11   -1    0    0    0    0  0.00000000000E+00  0.00000000000E+00  0.45593999997E+02  0.45594000000E+02  0.51100000000E-03 0.  1.
         11   -1    0    0    0    0 -0.00000000000E+00 -0.00000000000E+00 -0.45593999997E+02  0.45594000000E+02  0.51100000000E-03 0. -1.
    9900012    2    1    2    0    0 -0.39998119159E+02 -0.34324416445E+00  0.16842100131E+02  0.47787266255E+02  0.19999978162E+02 0.  0.
         12    1    1    2    0    0  0.39998119159E+02  0.34324416445E+00 -0.16842100131E+02  0.43400733745E+02  0.00000000000E+00 0. -1.
         11    1    3    3    0    0 -0.97735354884E+01  0.61528355588E+00  0.35553277430E+01  0.10418297626E+02  0.51100000000E-03 0. -1.
        -11    1    3    3    0    0 -0.27954953707E+02 -0.27757441504E+01  0.49311361356E+01  0.28521926586E+02  0.51100000000E-03 0.  1.
        -12    1    3    3    0    0 -0.22696299634E+01  0.18172164300E+01  0.83556362523E+01  0.88470420427E+01  0.00000000000E+00 0.  1.
</event>
<event>
 7    1  0.2812635E-010  0.4778727E+02  0.7816164E-02  0.1312668E+00
        -11   -1    0    0    0    0  0.00000000000E+00  0.00000000000E+00  0.45593999997E+02  0.45594000000E+02  0.51100000000E-03 0.  1.
         11   -1    0    0    0    0 -0.00000000000E+00 -0.00000000000E+00 -0.45593999997E+02  0.45594000000E+02  0.51100000000E-03 0. -1.
    9900012    2    1    2    0    0 -0.35839627027E+02 -0.15858506629E+02  0.18645434786E+02  0.47787270325E+02  0.19999996721E+02 0.  0.
         12    1    1    2    0    0  0.35839627027E+02  0.15858506629E+02 -0.18645434786E+02  0.43400729675E+02  0.00000000000E+00 0. -1.
         11    1    3    3    0    0 -0.20874899133E+02 -0.15314570531E+01  0.44791926949E+01  0.21404904624E+02  0.51100000000E-03 0. -1.
        -11    1    3    3    0    0 -0.74647215351E+01 -0.10954897128E+02  0.11994105765E+02  0.17877091823E+02  0.51100000000E-03 0.  1.
        -12    1    3    3    0    0 -0.75000063589E+01 -0.33721524482E+01  0.21721363260E+01  0.85052738778E+01  0.00000000000E+00 0.  1.
</event>
<event>
 7    1  0.2812635E-010  0.4778728E+02  0.7816164E-02  0.1312668E+00
        -11   -1    0    0    0    0  0.00000000000E+00  0.00000000000E+00  0.45593999997E+02  0.45594000000E+02  0.51100000000E-03 0.  1.
         11   -1    0    0    0    0 -0.00000000000E+00 -0.00000000000E+00 -0.45593999997E+02  0.45594000000E+02  0.51100000000E-03 0. -1.
    9900012    2    1    2    0    0  0.51704647781E+00  0.41763364723E+02  0.11797313329E+02  0.47787279132E+02  0.20000036875E+02 0.  0.
         12    1    1    2    0    0 -0.51704647781E+00 -0.41763364723E+02 -0.11797313329E+02  0.43400720868E+02  0.00000000000E+00 0. -1.
         11    1    3    3    0    0 -0.10340215531E+01  0.29864474509E+02  0.46169501952E+01  0.30236935486E+02  0.51100000000E-03 0. -1.
        -11    1    3    3    0    0  0.59356390219E+01  0.77019770838E+01  0.58126013855E+01  0.11328662619E+02  0.51100000000E-03 0.  1.
         12    1    3    3    0    0 -0.43845709910E+01  0.41969131306E+01  0.13677617486E+01  0.62216810271E+01  0.00000000000E+00 0. -1.
</event>
<event>
 7    1  0.2812635E-010  0.4778727E+02  0.7816164E-02  0.1312668E+00
        -11   -1    0    0    0    0  0.00000000000E+00  0.00000000000E+00  0.45593999997E+02  0.45594000000E+02  0.51100000000E-03 0.  1.
         11   -1    0    0    0    0 -0.00000000000E+00 -0.00000000000E+00 -0.45593999997E+02  0.45594000000E+02  0.51100000000E-03 0. -1.
    9900012    2    1    2    0    0  0.12160789626E+02 -0.33277479468E+01  0.41529078933E+02  0.47787272958E+02  0.20000008726E+02 0.  0.
         12    1    1    2    0    0 -0.12160789626E+02  0.33277479468E+01 -0.41529078933E+02  0.43400727042E+02  0.00000000000E+00 0. -1.
         11    1    3    3    0    0 -0.22797429971E+01  0.12355186471E+01  0.29369467550E+01  0.39178298793E+01  0.51100000000E-03 0. -1.
        -11    1    3    3    0    0  0.14116420098E+02 -0.85242956107E+01  0.34056907567E+02  0.37839263805E+02  0.51100000000E-03 0.  1.
        -12    1    3    3    0    0  0.32411252537E+00  0.39610290168E+01  0.45352246114E+01  0.60301792740E+01  0.00000000000E+00 0.  1.
</event>
<event>
 7    1  0.2812635E-010  0.4778727E+02  0.7816164E-02  0.1312668E+00
        -11   -1    0    0    0    0  0.00000000000E+00  0.00000000000E+00  0.45593999997E+02  0.45594000000E+02  0.51100000000E-03 0.  1.
         11   -1    0    0    0    0 -0.00000000000E+00 -0.00000000000E+00 -0.45593999997E+02  0.45594000000E+02  0.51100000000E-03 0. -1.
    9900012    2    1    2    0    0 -0.31834503887E+02 -0.28063415896E+02  0.90902353867E+01  0.47787270411E+02  0.19999997111E+02 0.  0.
         12    1    1    2    0    0  0.31834503887E+02  0.28063415896E+02 -0.90902353867E+01  0.43400729589E+02  0.00000000000E+00 0. -1.
         11    1    3    3    0    0 -0.41880726264E+01 -0.95970781529E+01  0.74265912349E+01  0.12837371967E+02  0.51100000000E-03 0. -1.
        -11    1    3    3    0    0 -0.48896151556E+01 -0.26670781129E+01  0.44187511782E+01  0.71096416412E+01  0.51100000000E-03 0.  1.
         12    1    3    3    0    0 -0.22756816105E+02 -0.15799259631E+02 -0.27551070264E+01  0.27840256802E+02  0.00000000000E+00 0. -1.
</event>
<event>
 7    1  0.2812635E-010  0.4778728E+02  0.7816164E-02  0.1312668E+00
        -11   -1    0    0    0    0  0.00000000000E+00  0.00000000000E+00  0.45593999997E+02  0.45594000000E+02  0.51100000000E-03 0. -1.
         11   -1    0    0    0    0 -0.00000000000E+00 -0.00000000000E+00 -0.45593999997E+02  0.45594000000E+02  0.51100000000E-03 0.  1.
    9900012    2    1    2    0    0 -0.59287920736E+01 -0.42938842824E+02 -0.21743905684E+01  0.47787276816E+02  0.20000026316E+02 0.  0.
         12    1    1    2    0    0  0.59287920736E+01  0.42938842824E+02  0.21743905684E+01  0.43400723184E+02  0.00000000000E+00 0. -1.
         11    1    3    3    0    0  0.51109162536E+01 -0.81810527887E+01  0.21358149312E+01  0.98799187934E+01  0.51100000000E-03 0. -1.
        -11    1    3    3    0    0 -0.70908060373E+01 -0.24160845464E+02 -0.72874348926E+01  0.26213215968E+02  0.51100000000E-03 0.  1.
         12    1    3    3    0    0 -0.39489022899E+01 -0.10596944572E+02  0.29772293931E+01  0.11694142055E+02  0.00000000000E+00 0. -1.
</event>
<event>
 7    1  0.2812635E-010  0.4778727E+02  0.7816164E-02  0.1312668E+00
        -11   -1    0    0    0    0  0.00000000000E+00  0.00000000000E+00  0.45593999997E+02  0.45594000000E+02  0.51100000000E-03 0. -1.
         11   -1    0    0    0    0 -0.00000000000E+00 -0.00000000000E+00 -0.45593999997E+02  0.45594000000E+02  0.51100000000E-03 0.  1.
    9900012    2    1    2    0    0 -0.28957374157E+02  0.59128962590E+01 -0.31782563292E+02  0.47787272015E+02  0.20000004424E+02 0.  0.
         12    1    1    2    0    0  0.28957374157E+02 -0.59128962590E+01  0.31782563292E+02  0.43400727985E+02  0.00000000000E+00 0. -1.
         11    1    3    3    0    0 -0.69865605276E+01 -0.53681005079E-01 -0.18262866027E+02  0.19553700045E+02  0.51100000000E-03 0. -1.
        -11    1    3    3    0    0 -0.10484241864E+02 -0.19394105245E+01 -0.41896280622E+01  0.11455724517E+02  0.51100000000E-03 0.  1.
         12    1    3    3    0    0 -0.11486571765E+02  0.79059877886E+01 -0.93300692027E+01  0.16777847453E+02  0.00000000000E+00 0. -1.
</event>
<event>
 7    1  0.3381080E-010  0.4778727E+02  0.7816164E-02  0.1312668E+00
        -11   -1    0    0    0    0  0.00000000000E+00  0.00000000000E+00  0.45593999997E+02  0.45594000000E+02  0.51100000000E-03 0.  1.
         11   -1    0    0    0    0 -0.00000000000E+00 -0.00000000000E+00 -0.45593999997E+02  0.45594000000E+02  0.51100000000E-03 0. -1.
    9900012    2    1    2    0    0  0.23349780790E+02  0.22821600864E+02  0.28593451957E+02  0.47787271622E+02  0.20000002632E+02 0.  0.
         12    1    1    2    0    0 -0.23349780790E+02 -0.22821600864E+02 -0.28593451957E+02  0.43400728378E+02  0.00000000000E+00 0. -1.
         11    1    3    3    0    0  0.77341919094E+01  0.13611154860E+02  0.60488945730E+01  0.16783038668E+02  0.51100000000E-03 0. -1.
        -11    1    3    3    0    0  0.16490739192E+02  0.93999403693E+01  0.23139696526E+02  0.29929064697E+02  0.51100000000E-03 0.  1.
         12    1    3    3    0    0 -0.87515031150E+00 -0.18949436580E+00 -0.59513914145E+00  0.10751682566E+01  0.00000000000E+00 0. -1.
</event>
