<event>
 7    1  0.4520156E-012  0.5052888E+02  0.7816164E-02  0.1300439E+00
        -11   -1    0    0    0    0  0.00000000000E+00  0.00000000000E+00  0.45593999997E+02  0.45594000000E+02  0.51100000000E-03 0. -1.
         11   -1    0    0    0    0 -0.00000000000E+00 -0.00000000000E+00 -0.45593999997E+02  0.45594000000E+02  0.51100000000E-03 0.  1.
    9900012    2    1    2    0    0  0.15667641185E+02 -0.19841369531E+02 -0.31843507139E+02  0.50528882054E+02  0.30000067492E+02 0.  0.
         12    1    1    2    0    0 -0.15667641185E+02  0.19841369531E+02  0.31843507139E+02  0.40659117946E+02  0.00000000000E+00 0. -1.
         11    1    3    3    0    0  0.17084792690E+01 -0.10197593247E+01 -0.16376805084E+02  0.16497228723E+02  0.51100000000E-03 0. -1.
        -11    1    3    3    0    0  0.61443121791E+01 -0.12104193565E+02 -0.18811077812E+02  0.23197429227E+02  0.51100000000E-03 0.  1.
         12    1    3    3    0    0  0.78148497372E+01 -0.67174166416E+01  0.33443757573E+01  0.10834224105E+02  0.00000000000E+00 0. -1.
</event>
<event>
 7    1  0.4520156E-012  0.5052887E+02  0.7816164E-02  0.1300439E+00
        -11   -1    0    0    0    0  0.00000000000E+00  0.00000000000E+00  0.45593999997E+02  0.45594000000E+02  0.51100000000E-03 0. -1.
         11   -1    0    0    0    0 -0.00000000000E+00 -0.00000000000E+00 -0.45593999997E+02  0.45594000000E+02  0.51100000000E-03 0.  1.
    9900012    2    1    2    0    0  0.53620295534E+01  0.19013739916E+02  0.35537185275E+02  0.50528865678E+02  0.30000017715E+02 0.  0.
        -12    1    1    2    0    0 -0.53620295534E+01 -0.19013739916E+02 -0.35537185275E+02  0.40659134322E+02  0.00000000000E+00 0.  1.
         11    1    3    3    0    0 -0.10354695657E+01  0.18627552284E+02  0.21257825524E+02  0.28283441226E+02  0.51100000000E-03 0. -1.
        -11    1    3    3    0    0  0.46676414995E+01  0.45288960541E+01 -0.76221092924E+00  0.65481861916E+01  0.51100000000E-03 0.  1.
        -12    1    3    3    0    0  0.17298576195E+01 -0.41427084228E+01  0.15041570681E+02  0.15697238260E+02  0.00000000000E+00 0.  1.
</event>
<event>
 7    1  0.4520156E-012  0.5052886E+02  0.7816164E-02  0.1300439E+00
        -11   -1    0    0    0    0  0.00000000000E+00  0.00000000000E+00  0.45593999997E+02  0.45594000000E+02  0.51100000000E-03 0. -1.
         11   -1    0    0    0    0 -0.00000000000E+00 -0.00000000000E+00 -0.45593999997E+02  0.45594000000E+02  0.51100000000E-03 0.  1.
    9900012    2    1    2    0    0  0.58790503384E+01 -0.35692904737E+02  0.18563924506E+02  0.50528856200E+02  0.29999988905E+02 0.  0.
        -12    1    1    2    0    0 -0.58790503384E+01  0.35692904737E+02 -0.18563924506E+02  0.40659143800E+02  0.00000000000E+00 0.  1.
         11    1    3    3    0    0 -0.15711579115E+01  0.11137628442E+01  0.35314299463E-01  0.19262014995E+01  0.51100000000E-03 0.  1.
        -11    1    3    3    0    0  0.32791326799E+01 -0.10900079137E+02 -0.58391070958E+01  0.12792951507E+02  0.51100000000E-03 0. -1.
        -12    1    3    3    0    0  0.41710755700E+01 -0.25906588444E+02  0.24367717303E+02  0.35809703193E+02  0.00000000000E+00 0.  1.
</event>
<event>
 7    1  0.4520156E-012  0.5052886E+02  0.7816164E-02  0.1300439E+00
        -11   -1    0    0    0    0  0.00000000000E+00  0.00000000000E+00  0.45593999997E+02  0.45594000000E+02  0.51100000000E-03 0. -1.
         11   -1    0    0    0    0 -0.00000000000E+00 -0.00000000000E+00 -0.45593999997E+02  0.45594000000E+02  0.51100000000E-03 0.  1.
    9900012    2    1    2    0    0 -0.40336535777E+02  0.16550948823E+01  0.48363261056E+01  0.50528861941E+02  0.30000006355E+02 0.  0.
        -12    1    1    2    0    0  0.40336535777E+02 -0.16550948823E+01 -0.48363261056E+01  0.40659138059E+02  0.00000000000E+00 0.  1.
         11    1    3    3    0    0 -0.23721007212E+02  0.82569519697E+00  0.24452269827E+01  0.23860995180E+02  0.51100000000E-03 0. -1.
        -11    1    3    3    0    0 -0.17491187121E+02 -0.38802189111E+01  0.77142834030E+01  0.19506611556E+02  0.51100000000E-03 0.  1.
        -12    1    3    3    0    0  0.87565855670E+00  0.47096185964E+01 -0.53231842801E+01  0.71612552050E+01  0.00000000000E+00 0.  1.
</event>
<event>
 7    1  0.4520156E-012  0.5052885E+02  0.7816164E-02  0.1300439E+00
        -11   -1    0    0    0    0  0.00000000000E+00  0.00000000000E+00  0.45593999997E+02  0.45594000000E+02  0.51100000000E-03 0. -1.
         11   -1    0    0    0    0 -0.00000000000E+00 -0.00000000000E+00 -0.45593999997E+02  0.45594000000E+02  0.51100000000E-03 0.  1.
    9900012    2    1    2    0    0  0.45969003936E+01 -0.13566728158E+01 -0.40375661809E+02  0.50528854400E+02  0.29999983436E+02 0.  0.
         12    1    1    2    0    0 -0.45969003936E+01  0.13566728158E+01  0.40375661809E+02  0.40659145600E+02  0.00000000000E+00 0. -1.
         11    1    3    3    0    0 -0.60553140313E+01 -0.40943630065E+01 -0.79533818892E+01  0.10802172012E+02  0.51100000000E-03 0. -1.
        -11    1    3    3    0    0 -0.42281765701E+01 -0.41959199639E+01 -0.12973187845E+02  0.14275392274E+02  0.51100000000E-03 0.  1.
         12    1    3    3    0    0  0.14880390995E+02  0.69336101546E+01 -0.19449092075E+02  0.25451290114E+02  0.00000000000E+00 0. -1.
</event>
<event>
 7    1  0.5128904E-012  0.5052884E+02  0.7816164E-02  0.1300439E+00
        -11   -1    0    0    0    0  0.00000000000E+00  0.00000000000E+00  0.45593999997E+02  0.45594000000E+02  0.51100000000E-03 0. -1.
         11   -1    0    0    0    0 -0.00000000000E+00 -0.00000000000E+00 -0.45593999997E+02  0.45594000000E+02  0.51100000000E-03 0.  1.
    9900012    2    1    2    0    0 -0.19792713945E+02 -0.15634200923E+02  0.31890236736E+02  0.50528844046E+02  0.29999951962E+02 0.  0.
        -12    1    1    2    0    0  0.19792713945E+02  0.15634200923E+02 -0.31890236736E+02  0.40659155954E+02  0.00000000000E+00 0.  1.
         11    1    3    3    0    0  0.33635035074E+01 -0.67300747281E+00  0.49641906064E+01  0.60340105685E+01  0.51100000000E-03 0. -1.
        -11    1    3    3    0    0 -0.84646918759E+01  0.15574719445E+01 -0.12332061970E+01  0.86946837319E+01  0.51100000000E-03 0.  1.
         12    1    3    3    0    0 -0.14691525577E+02 -0.16518665394E+02  0.28159252327E+02  0.35800149745E+02  0.00000000000E+00 0. -1.
</event>
<event>
 7    1  0.4520156E-012  0.5052888E+02  0.7816164E-02  0.1300439E+00
        -11   -1    0    0    0    0  0.00000000000E+00  0.00000000000E+00  0.45593999997E+02  0.45594000000E+02  0.51100000000E-03 0. -1.
         11   -1    0    0    0    0 -0.00000000000E+00 -0.00000000000E+00 -0.45593999997E+02  0.45594000000E+02  0.51100000000E-03 0.  1.
    9900012    2    1    2    0    0  0.21006090137E+02  0.40288199829E+01 -0.34578565064E+02  0.50528875868E+02  0.30000048687E+02 0.  0.
         12    1    1    2    0    0 -0.21006090137E+02 -0.40288199829E+01  0.34578565064E+02  0.40659124132E+02  0.00000000000E+00 0. -1.
         11    1    3    3    0    0  0.14780283583E+02 -0.15469819679E+01 -0.20836126305E+02  0.25592852433E+02  0.51100000000E-03 0. -1.
        -11    1    3    3    0    0  0.57494735991E+01 -0.24456984522E+01 -0.15498704447E+02  0.16710706968E+02  0.51100000000E-03 0.  1.
         12    1    3    3    0    0  0.47633295476E+00  0.80215004030E+01  0.17562656876E+01  0.82253164660E+01  0.00000000000E+00 0. -1.
</event>
<event>
 7    1  0.4520156E-012  0.5052887E+02  0.7816164E-02  0.1300439E+00
        -11   -1    0    0    0    0  0.00000000000E+00  0.00000000000E+00  0.45593999997E+02  0.45594000000E+02  0.51100000000E-03 0. -1.
         11   -1    0    0    0    0 -0.00000000000E+00 -0.00000000000E+00 -0.45593999997E+02  0.45594000000E+02  0.51100000000E-03 0.  1.
    9900012    2    1    2    0    0  0.20980740881E+02  0.61040250738E+01  0.34288687186E+02  0.50528872132E+02  0.30000037333E+02 0.  0.
        -12    1    1    2    0    0 -0.20980740881E+02 -0.61040250738E+01 -0.34288687186E+02  0.40659127868E+02  0.00000000000E+00 0.  1.
         11    1    3    3    0    0  0.77026550976E+01  0.22055310788E+01  0.26429024283E+02  0.27616817117E+02  0.51100000000E-03 0. -1.
        -11    1    3    3    0    0  0.10881410268E+02  0.98036001349E+01  0.76772671007E+01  0.16536507958E+02  0.51100000000E-03 0.  1.
         12    1    3    3    0    0  0.23966755153E+01 -0.59051061399E+01  0.18239580234E+00  0.63755470571E+01  0.00000000000E+00 0. -1.
</event>
<event>
 7    1  0.4520156E-012  0.5052886E+02  0.7816164E-02  0.1300439E+00
        -11   -1    0    0    0    0  0.00000000000E+00  0.00000000000E+00  0.45593999997E+02  0.45594000000E+02  0.51100000000E-03 0. -1.
         11   -1    0    0    0    0 -0.00000000000E+00 -0.00000000000E+00 -0.45593999997E+02  0.45594000000E+02  0.51100000000E-03 0.  1.
    9900012    2    1    2    0    0 -0.14171951102E+02 -0.29244294728E+02  0.24435475677E+02  0.50528862727E+02  0.30000008745E+02 0.  0.
        -12    1    1    2    0    0  0.14171951102E+02  0.29244294728E+02 -0.24435475677E+02  0.40659137273E+02  0.00000000000E+00 0.  1.
         11    1    3    3    0    0 -0.12937425587E+01  0.41130284164E+01  0.17331839136E+01  0.46470097161E+01  0.51100000000E-03 0. -1.
        -11    1    3    3    0    0  0.88498410610E+00 -0.76088817763E+01  0.13049175902E+02  0.15131400158E+02  0.51100000000E-03 0.  1.
         12    1    3    3    0    0 -0.13763192650E+02 -0.25748441368E+02  0.96531158617E+01  0.30750452853E+02  0.00000000000E+00 0. -1.
</event>
<event>
 7    1  0.4520156E-012  0.5052882E+02  0.7816164E-02  0.1300439E+00
        -11   -1    0    0    0    0  0.00000000000E+00  0.00000000000E+00  0.45593999997E+02  0.45594000000E+02  0.51100000000E-03 0. -1.
         11   -1    0    0    0    0 -0.00000000000E+00 -0.00000000000E+00 -0.45593999997E+02  0.45594000000E+02  0.51100000000E-03 0.  1.
    9900012    2    1    2    0    0 -0.14538184893E+02  0.31987892012E+02  0.20459344618E+02  0.50528820992E+02  0.29999881888E+02 0.  0.
        -12    1    1    2    0    0  0.14538184893E+02 -0.31987892012E+02 -0.20459344618E+02  0.40659179008E+02  0.00000000000E+00 0.  1.
         11    1    3    3    0    0  0.13591719523E+01  0.19089143789E+02  0.13522834095E+02  0.23433092011E+02  0.51100000000E-03 0. -1.
        -11    1    3    3    0    0 -0.35822964475E+00  0.67483884684E+01  0.78507425861E+01  0.10358727471E+02  0.51100000000E-03 0.  1.
        -12    1    3    3    0    0 -0.15539127201E+02  0.61503597550E+01 -0.91423206305E+00  0.16737001510E+02  0.00000000000E+00 0.  1.
</event>
<event>
 7    1  0.4643304E-012  0.5052886E+02  0.7816164E-02  0.1300439E+00
        -11   -1    0    0    0    0  0.00000000000E+00  0.00000000000E+00  0.45593999997E+02  0.45594000000E+02  0.51100000000E-03 0. -1.
         11   -1    0    0    0    0 -0.00000000000E+00 -0.00000000000E+00 -0.45593999997E+02  0.45594000000E+02  0.51100000000E-03 0.  1.
    9900012    2    1    2    0    0  0.20542572322E+02  0.40314381820E+01  0.34855642324E+02  0.50528861135E+02  0.30000003906E+02 0.  0.
        -12    1    1    2    0    0 -0.20542572322E+02 -0.40314381820E+01 -0.34855642324E+02  0.40659138865E+02  0.00000000000E+00 0.  1.
         11    1    3    3    0    0  0.87912041452E+01 -0.15773268604E+01  0.61748530585E+01  0.10858270622E+02  0.51100000000E-03 0. -1.
        -11    1    3    3    0    0  0.40981835307E+01 -0.95250858515E+01  0.12365443348E+02  0.16137737083E+02  0.51100000000E-03 0.  1.
         12    1    3    3    0    0  0.76531846457E+01  0.15133850894E+02  0.16315345918E+02  0.23532853429E+02  0.00000000000E+00 0. -1.
</event>
<event>
 7    1  0.4520156E-012  0.5052886E+02  0.7816164E-02  0.1300439E+00
        -11   -1    0    0    0    0  0.00000000000E+00  0.00000000000E+00  0.45593999997E+02  0.45594000000E+02  0.51100000000E-03 0. -1.
         11   -1    0    0    0    0 -0.00000000000E+00 -0.00000000000E+00 -0.45593999997E+02  0.45594000000E+02  0.51100000000E-03 0.  1.
    9900012    2    1    2    0    0 -0.28237618196E+02 -0.15072104724E+02  0.25072581531E+02  0.50528858754E+02  0.29999996670E+02 0.  0.
        -12    1    1    2    0    0  0.28237618196E+02  0.15072104724E+02 -0.25072581531E+02  0.40659141246E+02  0.00000000000E+00 0.  1.
         11    1    3    3    0    0 -0.23695360732E+01  0.25348339929E+01 -0.11816221797E+01  0.36655580490E+01  0.51100000000E-03 0. -1.
        -11    1    3    3    0    0 -0.69083587112E+01  0.28076788496E+01 -0.14230838494E+01  0.75916828509E+01  0.51100000000E-03 0.  1.
         12    1    3    3    0    0 -0.18959723412E+02 -0.20414617567E+02  0.27677287560E+02  0.39271617855E+02  0.00000000000E+00 0. -1.
</event>
<event>
 7    1  0.4520156E-012  0.5052890E+02  0.7816164E-02  0.1300439E+00
        -11   -1    0    0    0    0  0.00000000000E+00  0.00000000000E+00  0.45593999997E+02  0.45594000000E+02  0.51100000000E-03 0. -1.
         11   -1    0    0    0    0 -0.00000000000E+00 -0.00000000000E+00 -0.45593999997E+02  0.45594000000E+02  0.51100000000E-03 0.  1.
    9900012    2    1    2    0    0 -0.60833876024E+01  0.22613205679E+02  0.33238502920E+02  0.50528895827E+02  0.30000109355E+02 0.  0.
        -12    1    1    2    0    0  0.60833876024E+01 -0.22613205679E+02 -0.33238502920E+02  0.40659104173E+02  0.00000000000E+00 0.  1.
         11    1    3    3    0    0 -0.98327577583E+01  0.15314255827E+02  0.13609876608E+02  0.22725278837E+02  0.51100000000E-03 0. -1.
        -11    1    3    3    0    0 -0.40039782032E+01  0.71695618276E+01  0.18646454454E+01  0.84208883825E+01  0.51100000000E-03 0.  1.
        -12    1    3    3    0    0  0.77533483591E+01  0.12938802485E+00  0.17763980867E+02  0.19382728608E+02  0.00000000000E+00 0.  1.
</event>
<event>
 7    1  0.4520156E-012  0.5052886E+02  0.7816164E-02  0.1300439E+00
        -11   -1    0    0    0    0  0.00000000000E+00  0.00000000000E+00  0.45593999997E+02  0.45594000000E+02  0.51100000000E-03 0. -1.
         11   -1    0    0    0    0 -0.00000000000E+00 -0.00000000000E+00 -0.45593999997E+02  0.45594000000E+02  0.51100000000E-03 0.  1.
    9900012    2    1    2    0    0 -0.25746600280E+02  0.22350329471E+01  0.31389215727E+02  0.50528860041E+02  0.30000000580E+02 0.  0.
        -12    1    1    2    0    0  0.25746600280E+02 -0.22350329471E+01 -0.31389215727E+02  0.40659139959E+02  0.00000000000E+00 0.  1.
         11    1    3    3    0    0 -0.17267445289E+02  0.47216814928E+01  0.19364986256E+01  0.18005803790E+02  0.51100000000E-03 0.  1.
        -11    1    3    3    0    0 -0.10991501753E+02 -0.21420160201E+01  0.25115505230E+02  0.27498908099E+02  0.51100000000E-03 0. -1.
        -12    1    3    3    0    0  0.25123467623E+01 -0.34463252557E+00  0.43372118720E+01  0.50241481521E+01  0.00000000000E+00 0.  1.
</event>
<event>
 7    1  0.4520156E-012  0.5052885E+02  0.7816164E-02  0.1300439E+00
        -11   -1    0    0    0    0  0.00000000000E+00  0.00000000000E+00  0.45593999997E+02  0.45594000000E+02  0.51100000000E-03 0. -1.
         11   -1    0    0    0    0 -0.00000000000E+00 -0.00000000000E+00 -0.45593999997E+02  0.45594000000E+02  0.51100000000E-03 0.  1.
    9900012    2    1    2    0    0 -0.19488625583E+02 -0.26713255868E-01 -0.35684164005E+02  0.50528846031E+02  0.29999957996E+02 0.  0.
         12    1    1    2    0    0  0.19488625583E+02  0.26713255868E-01  0.35684164005E+02  0.40659153969E+02  0.00000000000E+00 0. -1.
         11    1    3    3    0    0 -0.18026202712E+02 -0.74563866542E+01 -0.16890910083E+02  0.25803963452E+02  0.51100000000E-03 0. -1.
        -11    1    3    3    0    0 -0.68780270439E+00  0.49050628520E+00 -0.17625383313E+02  0.17645617194E+02  0.51100000000E-03 0.  1.
         12    1    3    3    0    0 -0.77462016659E+00  0.69391671132E+01 -0.11678706096E+01  0.70792653847E+01  0.00000000000E+00 0. -1.
</event>
<event>
 7    1  0.4520156E-012  0.5052886E+02  0.7816164E-02  0.1300439E+00
        -11   -1    0    0    0    0  0.00000000000E+00  0.00000000000E+00  0.45593999997E+02  0.45594000000E+02  0.51100000000E-03 0.  1.
         11   -1    0    0    0    0 -0.00000000000E+00 -0.00000000000E+00 -0.45593999997E+02  0.45594000000E+02  0.51100000000E-03 0. -1.
    9900012    2    1    2    0    0  0.20445060763E+02 -0.32746373045E+02 -0.12760891448E+02  0.50528858252E+02  0.29999995142E+02 0.  0.
         12    1    1    2    0    0 -0.20445060763E+02  0.32746373045E+02  0.12760891448E+02  0.40659141748E+02  0.00000000000E+00 0. -1.
         11    1    3    3    0    0 -0.62483065318E+01 -0.40564345043E+01 -0.25122169827E+01  0.78617574264E+01  0.51100000000E-03 0. -1.
        -11    1    3    3    0    0 -0.10439602459E+01 -0.40917372492E+01 -0.76191075004E-01  0.42235023443E+01  0.51100000000E-03 0.  1.
        -12    1    3    3    0    0  0.27737327540E+02 -0.24598201291E+02 -0.10172483390E+02  0.38443598481E+02  0.00000000000E+00 0.  1.
</event>
<event>
 7    1  0.4520156E-012  0.5052886E+02  0.7816164E-02  0.1300439E+00
        -11   -1    0    0    0    0  0.00000000000E+00  0.00000000000E+00  0.45593999997E+02  0.45594000000E+02  0.51100000000E-03 0. -1.
         11   -1    0    0    0    0 -0.00000000000E+00 -0.00000000000E+00 -0.45593999997E+02  0.45594000000E+02  0.51100000000E-03 0.  1.
    9900012    2    1    2    0    0 -0.21743929318E+02  0.10940650747E+02 -0.32567920887E+02  0.50528858693E+02  0.29999996483E+02 0.  0.
         12    1    1    2    0    0  0.21743929318E+02 -0.10940650747E+02  0.32567920887E+02  0.40659141307E+02  0.00000000000E+00 0. -1.
         11    1    3    3    0    0 -0.40579801034E+01  0.64527996226E+01 -0.99111726871E+01  0.12503486305E+02  0.51100000000E-03 0. -1.
        -11    1    3    3    0    0 -0.20159454360E+02  0.10808470823E+02 -0.20969607891E+02  0.31031453350E+02  0.51100000000E-03 0.  1.
         12    1    3    3    0    0  0.24735051458E+01 -0.63206196990E+01 -0.16871403082E+01  0.69939190376E+01  0.00000000000E+00 0. -1.
</event>
<event>
 7    1  0.4520156E-012  0.5052886E+02  0.7816164E-02  0.1300439E+00
        -11   -1    0    0    0    0  0.00000000000E+00  0.00000000000E+00  0.45593999997E+02  0.45594000000E+02  0.51100000000E-03 0. -1.
         11   -1    0    0    0    0 -0.00000000000E+00 -0.00000000000E+00 -0.45593999997E+02  0.45594000000E+02  0.51100000000E-03 0.  1.
    9900012    2    1    2    0    0  0.73583343004E+01  0.25638307517E+02 -0.30687089431E+02  0.50528863834E+02  0.30000012110E+02 0.  0.
         12    1    1    2    0    0 -0.73583343004E+01 -0.25638307517E+02  0.30687089431E+02  0.40659136166E+02  0.00000000000E+00 0. -1.
         11    1    3    3    0    0  0.50554904427E+00  0.48169627529E+00 -0.20142145322E+01  0.21318235341E+01  0.51100000000E-03 0. -1.
        -11    1    3    3    0    0 -0.49314409021E+01  0.26652097177E+02 -0.20316421283E+02  0.33873446345E+02  0.51100000000E-03 0.  1.
        -12    1    3    3    0    0  0.11784226158E+02 -0.14954859347E+01 -0.83564536160E+01  0.14523593955E+02  0.00000000000E+00 0.  1.
</event>
<event>
 7    1  0.4520156E-012  0.5052886E+02  0.7816164E-02  0.1300439E+00
        -11   -1    0    0    0    0  0.00000000000E+00  0.00000000000E+00  0.45593999997E+02  0.45594000000E+02  0.51100000000E-03 0. -1.
         11   -1    0    0    0    0 -0.00000000000E+00 -0.00000000000E+00 -0.45593999997E+02  0.45594000000E+02  0.51100000000E-03 0.  1.
    9900012    2    1    2    0    0 -0.61776041855E+00 -0.47699041003E+01  0.40373657356E+02  0.50528858084E+02  0.29999994632E+02 0.  0.
        -12    1    1    2    0    0  0.61776041855E+00  0.47699041003E+01 -0.40373657356E+02  0.40659141916E+02  0.00000000000E+00 0.  1.
         11    1    3    3    0    0 -0.32992165585E+01 -0.10437516232E+01 -0.10857249173E+01  0.36267128654E+01  0.51100000000E-03 0. -1.
        -11    1    3    3    0    0 -0.93996507051E+01 -0.55643062275E+00  0.16740712070E+02  0.19207146829E+02  0.51100000000E-03 0.  1.
         12    1    3    3    0    0  0.12081106845E+02 -0.31697218543E+01  0.24718670203E+02  0.27694998390E+02  0.00000000000E+00 0. -1.
</event>
<event>
 7    1  0.4939166E-012  0.5052886E+02  0.7816164E-02  0.1300439E+00
        -11   -1    0    0    0    0  0.00000000000E+00  0.00000000000E+00  0.45593999997E+02  0.45594000000E+02  0.51100000000E-03 0. -1.
         11   -1    0    0    0    0 -0.00000000000E+00 -0.00000000000E+00 -0.45593999997E+02  0.45594000000E+02  0.51100000000E-03 0.  1.
    9900012    2    1    2    0    0  0.19701622914E+02 -0.11124114939E+02  0.33782625601E+02  0.50528859931E+02  0.30000000246E+02 0.  0.
        -12    1    1    2    0    0 -0.19701622914E+02  0.11124114939E+02 -0.33782625601E+02  0.40659140069E+02  0.00000000000E+00 0.  1.
         11    1    3    3    0    0 -0.57053443575E+00  0.42873041364E+01  0.11190717158E+01  0.44675281830E+01  0.51100000000E-03 0. -1.
        -11    1    3    3    0    0  0.92181264063E+01  0.40299614322E+01  0.89491747969E+01  0.13464849550E+02  0.51100000000E-03 0.  1.
         12    1    3    3    0    0  0.11054030943E+02 -0.19441380508E+02  0.23714379089E+02  0.32596482198E+02  0.00000000000E+00 0. -1.
</event>
<event>
 7    1  0.4520156E-012  0.5052886E+02  0.7816164E-02  0.1300439E+00
        -11   -1    0    0    0    0  0.00000000000E+00  0.00000000000E+00  0.45593999997E+02  0.45594000000E+02  0.51100000000E-03 0. -1.
         11   -1    0    0    0    0 -0.00000000000E+00 -0.00000000000E+00 -0.45593999997E+02  0.45594000000E+02  0.51100000000E-03 0.  1.
    9900012    2    1    2    0    0 -0.34689733994E+01  0.15071079273E+02 -0.37603119594E+02  0.50528858222E+02  0.29999995052E+02 0.  0.
         12    1    1    2    0    0  0.34689733994E+01 -0.15071079273E+02  0.37603119594E+02  0.40659141778E+02  0.00000000000E+00 0. -1.
         11    1    3    3    0    0 -0.67328203057E+01 -0.53988548061E+01 -0.19649546068E+02  0.21461201351E+02  0.51100000000E-03 0. -1.
        -11    1    3    3    0    0  0.48733697636E+00 -0.56415107142E+00  0.54152899441E+00  0.92142155001E+00  0.51100000000E-03 0.  1.
        -12    1    3    3    0    0  0.27765099299E+01  0.21034085150E+02 -0.18495102521E+02  0.28146235321E+02  0.00000000000E+00 0.  1.
</event>
<event>
 7    1  0.4520156E-012  0.5052886E+02  0.7816164E-02  0.1300439E+00
        -11   -1    0    0    0    0  0.00000000000E+00  0.00000000000E+00  0.45593999997E+02  0.45594000000E+02  0.51100000000E-03 0. -1.
         11   -1    0    0    0    0 -0.00000000000E+00 -0.00000000000E+00 -0.45593999997E+02  0.45594000000E+02  0.51100000000E-03 0.  1.
    9900012    2    1    2    0    0  0.33884096296E+02 -0.10377990745E+02 -0.19933158774E+02  0.50528862129E+02  0.30000006927E+02 0.  0.
         12    1    1    2    0    0 -0.33884096296E+02  0.10377990745E+02  0.19933158774E+02  0.40659137871E+02  0.00000000000E+00 0. -1.
         11    1    3    3    0    0  0.18141253356E+02 -0.45971280391E+01 -0.11878225234E+02  0.22165985079E+02  0.51100000000E-03 0. -1.
        -11    1    3    3    0    0 -0.22008051004E+01  0.50079384040E+01 -0.45898948546E+01  0.71407370198E+01  0.51100000000E-03 0.  1.
         12    1    3    3    0    0  0.17943648040E+02 -0.10788801110E+02 -0.34650386855E+01  0.21222140030E+02  0.00000000000E+00 0. -1.
</event>
<event>
 7    1  0.4520156E-012  0.5052886E+02  0.7816164E-02  0.1300439E+00
        -11   -1    0    0    0    0  0.00000000000E+00  0.00000000000E+00  0.45593999997E+02  0.45594000000E+02  0.51100000000E-03 0. -1.
         11   -1    0    0    0    0 -0.00000000000E+00 -0.00000000000E+00 -0.45593999997E+02  0.45594000000E+02  0.51100000000E-03 0.  1.
    9900012    2    1    2    0    0 -0.18008052939E+02 -0.13120476769E+02 -0.34010720384E+02  0.50528856104E+02  0.29999988613E+02 0.  0.
         12    1    1    2    0    0  0.18008052939E+02  0.13120476769E+02  0.34010720384E+02  0.40659143896E+02  0.00000000000E+00 0. -1.
         11    1    3    3    0    0 -0.87843512412E+01  0.35198349290E+01 -0.12875836035E+02  0.15979399817E+02  0.51100000000E-03 0. -1.
        -11    1    3    3    0    0 -0.11700596274E+02 -0.13417645245E+02 -0.23775802585E+02  0.29702288564E+02  0.51100000000E-03 0.  1.
        -12    1    3    3    0    0  0.24768945757E+01 -0.32226664528E+01  0.26409182359E+01  0.48471677228E+01  0.00000000000E+00 0.  1.
</event>
<event>
 7    1  0.4520156E-012  0.5052886E+02  0.7816164E-02  0.1300439E+00
        -11   -1    0    0    0    0  0.00000000000E+00  0.00000000000E+00  0.45593999997E+02  0.45594000000E+02  0.51100000000E-03 0.  1.
         11   -1    0    0    0    0 -0.00000000000E+00 -0.00000000000E+00 -0.45593999997E+02  0.45594000000E+02  0.51100000000E-03 0. -1.
    9900012    2    1    2    0    0 -0.25135572247E+02 -0.31745870135E+02  0.36835151574E+01  0.50528861462E+02  0.30000004898E+02 0.  0.
         12    1    1    2    0    0  0.25135572247E+02  0.31745870135E+02 -0.36835151574E+01  0.40659138538E+02  0.00000000000E+00 0. -1.
         11    1    3    3    0    0 -0.13260660524E+01 -0.39644457716E+01 -0.12192948728E+00  0.41821224890E+01  0.51100000000E-03 0. -1.
        -11    1    3    3    0    0 -0.75708695839E+01 -0.27171493231E+02  0.84515831047E+01  0.29445498262E+02  0.51100000000E-03 0.  1.
         12    1    3    3    0    0 -0.16238636611E+02 -0.60993113138E+00 -0.46461384600E+01  0.16901240710E+02  0.00000000000E+00 0. -1.
</event>
<event>
 7    1  0.4520156E-012  0.5052886E+02  0.7816164E-02  0.1300439E+00
        -11   -1    0    0    0    0  0.00000000000E+00  0.00000000000E+00  0.45593999997E+02  0.45594000000E+02  0.51100000000E-03 0. -1.
         11   -1    0    0    0    0 -0.00000000000E+00 -0.00000000000E+00 -0.45593999997E+02  0.45594000000E+02  0.51100000000E-03 0.  1.
    9900012    2    1    2    0    0  0.14148325194E+02  0.13249378151E+02  0.35741358414E+02  0.50528857997E+02  0.29999994367E+02 0.  0.
        -12    1    1    2    0    0 -0.14148325194E+02 -0.13249378151E+02 -0.35741358414E+02  0.40659142003E+02  0.00000000000E+00 0.  1.
         11    1    3    3    0    0  0.57895529466E+01 -0.60322089136E+01  0.14915255594E+02  0.17098868892E+02  0.51100000000E-03 0. -1.
        -11    1    3    3    0    0  0.58937921601E+01  0.11193325829E+02  0.21502287449E+02  0.24947458687E+02  0.51100000000E-03 0.  1.
        -12    1    3    3    0    0  0.24649800871E+01  0.80882612351E+01 -0.67618462884E+00  0.84825304178E+01  0.00000000000E+00 0.  1.
</event>
<event>
 7    1  0.4520156E-012  0.5052887E+02  0.7816164E-02  0.1300439E+00
        -11   -1    0    0    0    0  0.00000000000E+00  0.00000000000E+00  0.45593999997E+02  0.45594000000E+02  0.51100000000E-03 0. -1.
         11   -1    0    0    0    0 -0.00000000000E+00 -0.00000000000E+00 -0.45593999997E+02  0.45594000000E+02  0.51100000000E-03 0.  1.
    9900012    2    1    2    0    0  0.44214335147E+00  0.54920406147E+01  0.40284081709E+02  0.50528865233E+02  0.30000016363E+02 0.  0.
        -12    1    1    2    0    0 -0.44214335147E+00 -0.54920406147E+01 -0.40284081709E+02  0.40659134767E+02  0.00000000000E+00 0.  1.
         11    1    3    3    0    0 -0.40974962884E+01  0.26094015110E+00  0.29946921536E+02  0.30227068586E+02  0.51100000000E-03 0. -1.
        -11    1    3    3    0    0  0.14620281354E+01  0.35911821588E+01  0.14420107443E+02  0.14932301044E+02  0.51100000000E-03 0.  1.
        -12    1    3    3    0    0  0.30776115044E+01  0.16399183049E+01 -0.40829472694E+01  0.53694956023E+01  0.00000000000E+00 0.  1.
</event>
<event>
 7    1  0.4520156E-012  0.5052886E+02  0.7816164E-02  0.1300439E+00
        -11   -1    0    0    0    0  0.00000000000E+00  0.00000000000E+00  0.45593999997E+02  0.45594000000E+02  0.51100000000E-03 0. -1.
         11   -1    0    0    0    0 -0.00000000000E+00 -0.00000000000E+00 -0.45593999997E+02  0.45594000000E+02  0.51100000000E-03 0.  1.
    9900012    2    1    2    0    0 -0.66259652453E+01 -0.30172277447E+02 -0.26436643728E+02  0.50528857444E+02  0.29999992688E+02 0.  0.
         12    1    1    2    0    0  0.66259652453E+01  0.30172277447E+02  0.26436643728E+02  0.40659142556E+02  0.00000000000E+00 0. -1.
         11    1    3    3    0    0  0.25310573197E+01  0.22432604216E+01  0.78355781930E+00  0.34716612150E+01  0.51100000000E-03 0. -1.
        -11    1    3    3    0    0 -0.13768256483E+01  0.89221321962E+00  0.16283257851E+01  0.23115229652E+01  0.51100000000E-03 0.  1.
        -12    1    3    3    0    0 -0.77801969166E+01 -0.33307751088E+02 -0.28848527332E+02  0.44745673264E+02  0.00000000000E+00 0.  1.
</event>
<event>
 7    1  0.4520156E-012  0.5052886E+02  0.7816164E-02  0.1300439E+00
        -11   -1    0    0    0    0  0.00000000000E+00  0.00000000000E+00  0.45593999997E+02  0.45594000000E+02  0.51100000000E-03 0. -1.
         11   -1    0    0    0    0 -0.00000000000E+00 -0.00000000000E+00 -0.45593999997E+02  0.45594000000E+02  0.51100000000E-03 0.  1.
    9900012    2    1    2    0    0 -0.27501583681E+01 -0.20318739612E+02 -0.35110556242E+02  0.50528859452E+02  0.29999998791E+02 0.  0.
         12    1    1    2    0    0  0.27501583681E+01  0.20318739612E+02  0.35110556242E+02  0.40659140548E+02  0.00000000000E+00 0. -1.
         11    1    3    3    0    0  0.12023113381E+01  0.27439104154E+01 -0.63991215174E+01  0.70656459986E+01  0.51100000000E-03 0. -1.
        -11    1    3    3    0    0 -0.64843989181E+01 -0.73432261067E+01  0.90499924253E+00  0.98381615596E+01  0.51100000000E-03 0.  1.
        -12    1    3    3    0    0  0.25319292119E+01 -0.15719423921E+02 -0.29616433967E+02  0.33625051894E+02  0.00000000000E+00 0.  1.
</event>
<event>
 7    1  0.4520156E-012  0.5052887E+02  0.7816164E-02  0.1300439E+00
        -11   -1    0    0    0    0  0.00000000000E+00  0.00000000000E+00  0.45593999997E+02  0.45594000000E+02  0.51100000000E-03 0. -1.
         11   -1    0    0    0    0 -0.00000000000E+00 -0.00000000000E+00 -0.45593999997E+02  0.45594000000E+02  0.51100000000E-03 0.  1.
    9900012    2    1    2    0    0  0.42525558011E+01 -0.21801678910E+02  0.34055360519E+02  0.50528868010E+02  0.30000024802E+02 0.  0.
        -12    1    1    2    0    0 -0.42525558011E+01  0.21801678910E+02 -0.34055360519E+02  0.40659131990E+02  0.00000000000E+00 0.  1.
         11    1    3    3    0    0 -0.35753227027E+01 -0.38635578011E+01  0.30640880044E+01  0.60908658556E+01  0.51100000000E-03 0. -1.
        -11    1    3    3    0    0 -0.90215517362E+01 -0.63514048502E+01  0.77591728705E+01  0.13488272803E+02  0.51100000000E-03 0.  1.
         12    1    3    3    0    0  0.16849430240E+02 -0.11586716258E+02  0.23232099644E+02  0.30949729352E+02  0.00000000000E+00 0. -1.
</event>
<event>
 7    1  0.4520156E-012  0.5052887E+02  0.7816164E-02  0.1300439E+00
        -11   -1    0    0    0    0  0.00000000000E+00  0.00000000000E+00  0.45593999997E+02  0.45594000000E+02  0.51100000000E-03 0. -1.
         11   -1    0    0    0    0 -0.00000000000E+00 -0.00000000000E+00 -0.45593999997E+02  0.45594000000E+02  0.51100000000E-03 0.  1.
    9900012    2    1    2    0    0 -0.12645960949E+02 -0.12594610598E+02  0.36532455424E+02  0.50528870105E+02  0.30000031172E+02 0.  0.
        -12    1    1    2    0    0  0.12645960949E+02  0.12594610598E+02 -0.36532455424E+02  0.40659129895E+02  0.00000000000E+00 0.  1.
         11    1    3    3    0    0  0.21659565487E+01  0.60140088384E+01  0.14077667158E+02  0.15460930856E+02  0.51100000000E-03 0. -1.
        -11    1    3    3    0    0  0.85626588445E+00  0.55739398692E+00 -0.64559825534E+00  0.12085845812E+01  0.51100000000E-03 0.  1.
        -12    1    3    3    0    0 -0.15668183383E+02 -0.19166013424E+02  0.23100386522E+02  0.33859354668E+02  0.00000000000E+00 0.  1.
</event>
<event>
 7    1  0.4520156E-012  0.5052887E+02  0.7816164E-02  0.1300439E+00
        -11   -1    0    0    0    0  0.00000000000E+00  0.00000000000E+00  0.45593999997E+02  0.45594000000E+02  0.51100000000E-03 0. -1.
         11   -1    0    0    0    0 -0.00000000000E+00 -0.00000000000E+00 -0.45593999997E+02  0.45594000000E+02  0.51100000000E-03 0.  1.
    9900012    2    1    2    0    0 -0.43334683666E+01  0.26895884607E+02 -0.30182737101E+02  0.50528866022E+02  0.30000018762E+02 0.  0.
         12    1    1    2    0    0  0.43334683666E+01 -0.26895884607E+02  0.30182737101E+02  0.40659133978E+02  0.00000000000E+00 0. -1.
         11    1    3    3    0    0  0.18510322736E+00  0.89475629482E+00 -0.33864758049E+00  0.97444059685E+00  0.51100000000E-03 0. -1.
        -11    1    3    3    0    0  0.13815110046E+01  0.31466675293E+02 -0.24401311636E+02  0.39843245808E+02  0.51100000000E-03 0.  1.
         12    1    3    3    0    0 -0.59000825986E+01 -0.54655469809E+01 -0.54427778843E+01  0.97111796177E+01  0.00000000000E+00 0. -1.
</event>
<event>
 7    1  0.4520156E-012  0.5052888E+02  0.7816164E-02  0.1300439E+00
        -11   -1    0    0    0    0  0.00000000000E+00  0.00000000000E+00  0.45593999997E+02  0.45594000000E+02  0.51100000000E-03 0. -1.
         11   -1    0    0    0    0 -0.00000000000E+00 -0.00000000000E+00 -0.45593999997E+02  0.45594000000E+02  0.51100000000E-03 0.  1.
    9900012    2    1    2    0    0 -0.45058449966E+01 -0.32613668689E+01  0.40276855999E+02  0.50528877012E+02  0.30000052167E+02 0.  0.
        -12    1    1    2    0    0  0.45058449966E+01  0.32613668689E+01 -0.40276855999E+02  0.40659122988E+02  0.00000000000E+00 0.  1.
         11    1    3    3    0    0 -0.49428510541E+01  0.60982553092E+01  0.77936929311E+01  0.11061742364E+02  0.51100000000E-03 0. -1.
        -11    1    3    3    0    0 -0.42433051286E+00  0.47075289587E+01  0.80409543117E+00  0.47945234388E+01  0.51100000000E-03 0.  1.
         12    1    3    3    0    0  0.86133657036E+00 -0.14067151137E+02  0.31679067636E+02  0.34672611210E+02  0.00000000000E+00 0. -1.
</event>
<event>
 7    1  0.4520156E-012  0.5052886E+02  0.7816164E-02  0.1300439E+00
        -11   -1    0    0    0    0  0.00000000000E+00  0.00000000000E+00  0.45593999997E+02  0.45594000000E+02  0.51100000000E-03 0. -1.
         11   -1    0    0    0    0 -0.00000000000E+00 -0.00000000000E+00 -0.45593999997E+02  0.45594000000E+02  0.51100000000E-03 0.  1.
    9900012    2    1    2    0    0 -0.24072976345E+02  0.23816038046E+02 -0.22504521275E+02  0.50528864051E+02  0.30000012769E+02 0.  0.
         12    1    1    2    0    0  0.24072976345E+02 -0.23816038046E+02  0.22504521275E+02  0.40659135949E+02  0.00000000000E+00 0. -1.
         11    1    3    3    0    0 -0.89662942443E+01 -0.21005638707E+01 -0.17518991610E+01  0.93742174064E+01  0.51100000000E-03 0. -1.
        -11    1    3    3    0    0 -0.10365134325E+02  0.38556492672E+01 -0.89275348826E+00  0.11095001122E+02  0.51100000000E-03 0.  1.
        -12    1    3    3    0    0 -0.47415477754E+01  0.22060952649E+02 -0.19859868626E+02  0.30059645522E+02  0.00000000000E+00 0.  1.
</event>
<event>
 7    1  0.4520156E-012  0.5052886E+02  0.7816164E-02  0.1300439E+00
        -11   -1    0    0    0    0  0.00000000000E+00  0.00000000000E+00  0.45593999997E+02  0.45594000000E+02  0.51100000000E-03 0.  1.
         11   -1    0    0    0    0 -0.00000000000E+00 -0.00000000000E+00 -0.45593999997E+02  0.45594000000E+02  0.51100000000E-03 0. -1.
    9900012    2    1    2    0    0 -0.33708523347E+02  0.20176378773E+02  0.10479246267E+02  0.50528863156E+02  0.30000010048E+02 0.  0.
         12    1    1    2    0    0  0.33708523347E+02 -0.20176378773E+02 -0.10479246267E+02  0.40659136844E+02  0.00000000000E+00 0. -1.
         11    1    3    3    0    0 -0.15692990011E+02  0.53906053755E+01  0.15129541933E+01  0.16661860413E+02  0.51100000000E-03 0. -1.
        -11    1    3    3    0    0 -0.99739136887E+01  0.64674255335E+00 -0.60885645769E+01  0.11703326410E+02  0.51100000000E-03 0.  1.
        -12    1    3    3    0    0 -0.80416196473E+01  0.14139030844E+02  0.15054856651E+02  0.22163676332E+02  0.00000000000E+00 0.  1.
</event>
<event>
 7    1  0.4520156E-012  0.5052886E+02  0.7816164E-02  0.1300439E+00
        -11   -1    0    0    0    0  0.00000000000E+00  0.00000000000E+00  0.45593999997E+02  0.45594000000E+02  0.51100000000E-03 0. -1.
         11   -1    0    0    0    0 -0.00000000000E+00 -0.00000000000E+00 -0.45593999997E+02  0.45594000000E+02  0.51100000000E-03 0.  1.
    9900012    2    1    2    0    0  0.32055971452E+01 -0.16355580945E+02 -0.37086176300E+02  0.50528863836E+02  0.30000012115E+02 0.  0.
         12    1    1    2    0    0 -0.32055971452E+01  0.16355580945E+02  0.37086176300E+02  0.40659136164E+02  0.00000000000E+00 0. -1.
         11    1    3    3    0    0 -0.40978581831E+01  0.45320254092E+01 -0.85702232953E+01  0.10525227959E+02  0.51100000000E-03 0. -1.
        -11    1    3    3    0    0  0.28694240873E+01  0.23347955150E+01 -0.12261664351E+01  0.38972232522E+01  0.51100000000E-03 0.  1.
        -12    1    3    3    0    0  0.44340312410E+01 -0.23222401869E+02 -0.27289786569E+02  0.36106412624E+02  0.00000000000E+00 0.  1.
</event>
<event>
 7    1  0.4520156E-012  0.5052886E+02  0.7816164E-02  0.1300439E+00
        -11   -1    0    0    0    0  0.00000000000E+00  0.00000000000E+00  0.45593999997E+02  0.45594000000E+02  0.51100000000E-03 0. -1.
         11   -1    0    0    0    0 -0.00000000000E+00 -0.00000000000E+00 -0.45593999997E+02  0.45594000000E+02  0.51100000000E-03 0.  1.
    9900012    2    1    2    0    0 -0.12786785124E+02 -0.30009160736E+01  0.38479326217E+02  0.50528856905E+02  0.29999991049E+02 0.  0.
        -12    1    1    2    0    0  0.12786785124E+02  0.30009160736E+01 -0.38479326217E+02  0.40659143095E+02  0.00000000000E+00 0.  1.
         11    1    3    3    0    0 -0.40994270889E+01 -0.10037066940E+01  0.57076042512E+01  0.70985545102E+01  0.51100000000E-03 0. -1.
        -11    1    3    3    0    0 -0.12700214277E+02 -0.39498071413E+01  0.34087161324E+01  0.13730104335E+02  0.51100000000E-03 0.  1.
        -12    1    3    3    0    0  0.40128562411E+01  0.19525977616E+01  0.29363005833E+02  0.29700198060E+02  0.00000000000E+00 0.  1.
</event>
<event>
 7    1  0.4520156E-012  0.5052885E+02  0.7816164E-02  0.1300439E+00
        -11   -1    0    0    0    0  0.00000000000E+00  0.00000000000E+00  0.45593999997E+02  0.45594000000E+02  0.51100000000E-03 0. -1.
         11   -1    0    0    0    0 -0.00000000000E+00 -0.00000000000E+00 -0.45593999997E+02  0.45594000000E+02  0.51100000000E-03 0.  1.
    9900012    2    1    2    0    0  0.10732290024E+02  0.41535101828E+01 -0.38996578848E+02  0.50528845338E+02  0.29999955888E+02 0.  0.
         12    1    1    2    0    0 -0.10732290024E+02 -0.41535101828E+01  0.38996578848E+02  0.40659154662E+02  0.00000000000E+00 0. -1.
         11    1    3    3    0    0 -0.35620117460E+01  0.84345499597E+00 -0.24598338731E+02  0.24869210132E+02  0.51100000000E-03 0. -1.
        -11    1    3    3    0    0  0.45537307514E+01 -0.53320998940E+01 -0.93645960098E+01  0.11698863694E+02  0.51100000000E-03 0.  1.
        -12    1    3    3    0    0  0.97405710182E+01  0.86421550809E+01 -0.50336441074E+01  0.13960771512E+02  0.00000000000E+00 0.  1.
</event>
<event>
 7    1  0.4520156E-012  0.5052887E+02  0.7816164E-02  0.1300439E+00
        -11   -1    0    0    0    0  0.00000000000E+00  0.00000000000E+00  0.45593999997E+02  0.45594000000E+02  0.51100000000E-03 0. -1.
         11   -1    0    0    0    0 -0.00000000000E+00 -0.00000000000E+00 -0.45593999997E+02  0.45594000000E+02  0.51100000000E-03 0.  1.
    9900012    2    1    2    0    0  0.26528321978E+02 -0.10798210000E+02 -0.28858471743E+02  0.50528873134E+02  0.30000040378E+02 0.  0.
         12    1    1    2    0    0 -0.26528321978E+02  0.10798210000E+02  0.28858471743E+02  0.40659126866E+02  0.00000000000E+00 0. -1.
         11    1    3    3    0    0  0.10998958923E+02  0.27926091677E+01  0.10609139240E+01  0.11397425234E+02  0.51100000000E-03 0. -1.
        -11    1    3    3    0    0  0.58034892401E+01 -0.27194900711E+01 -0.66681191443E+00  0.64436598294E+01  0.51100000000E-03 0.  1.
         12    1    3    3    0    0  0.97258738155E+01 -0.10871329097E+02 -0.29252573752E+02  0.32687788070E+02  0.00000000000E+00 0. -1.
</event>
<event>
 7    1  0.4668335E-012  0.5052885E+02  0.7816164E-02  0.1300439E+00
        -11   -1    0    0    0    0  0.00000000000E+00  0.00000000000E+00  0.45593999997E+02  0.45594000000E+02  0.51100000000E-03 0. -1.
         11   -1    0    0    0    0 -0.00000000000E+00 -0.00000000000E+00 -0.45593999997E+02  0.45594000000E+02  0.51100000000E-03 0.  1.
    9900012    2    1    2    0    0 -0.11855771862E+02 -0.22139236050E+01  0.38829187044E+02  0.50528849115E+02  0.29999967370E+02 0.  0.
        -12    1    1    2    0    0  0.11855771862E+02  0.22139236050E+01 -0.38829187044E+02  0.40659150885E+02  0.00000000000E+00 0.  1.
         11    1    3    3    0    0 -0.39987480553E+01 -0.12218162262E+02  0.16977528377E+02  0.21295772940E+02  0.51100000000E-03 0. -1.
        -11    1    3    3    0    0  0.16925211380E+01  0.19779833623E+01 -0.13185785007E+01  0.29181664633E+01  0.51100000000E-03 0.  1.
         12    1    3    3    0    0 -0.95495449449E+01  0.80262552945E+01  0.23170237168E+02  0.26314909712E+02  0.00000000000E+00 0. -1.
</event>
<event>
 7    1  0.4520156E-012  0.5052884E+02  0.7816164E-02  0.1300439E+00
        -11   -1    0    0    0    0  0.00000000000E+00  0.00000000000E+00  0.45593999997E+02  0.45594000000E+02  0.51100000000E-03 0. -1.
         11   -1    0    0    0    0 -0.00000000000E+00 -0.00000000000E+00 -0.45593999997E+02  0.45594000000E+02  0.51100000000E-03 0.  1.
    9900012    2    1    2    0    0  0.13672825344E+01  0.27966554289E+02  0.29481679217E+02  0.50528843223E+02  0.29999949461E+02 0.  0.
        -12    1    1    2    0    0 -0.13672825344E+01 -0.27966554289E+02 -0.29481679217E+02  0.40659156777E+02  0.00000000000E+00 0.  1.
         11    1    3    3    0    0  0.12120677978E+01  0.21441589372E+02  0.29707695380E+02  0.36657305250E+02  0.51100000000E-03 0. -1.
        -11    1    3    3    0    0  0.40705515956E+01  0.45334852039E+01  0.43822507701E+01  0.75050649870E+01  0.51100000000E-03 0.  1.
         12    1    3    3    0    0 -0.39153368590E+01  0.19914797135E+01 -0.46082669324E+01  0.63664729866E+01  0.00000000000E+00 0. -1.
</event>
<event>
 7    1  0.4520156E-012  0.5052889E+02  0.7816164E-02  0.1300439E+00
        -11   -1    0    0    0    0  0.00000000000E+00  0.00000000000E+00  0.45593999997E+02  0.45594000000E+02  0.51100000000E-03 0. -1.
         11   -1    0    0    0    0 -0.00000000000E+00 -0.00000000000E+00 -0.45593999997E+02  0.45594000000E+02  0.51100000000E-03 0.  1.
    9900012    2    1    2    0    0 -0.21081968481E+02  0.22157582062E+02  0.26790959966E+02  0.50528888183E+02  0.30000086120E+02 0.  0.
        -12    1    1    2    0    0  0.21081968481E+02 -0.22157582062E+02 -0.26790959966E+02  0.40659111817E+02  0.00000000000E+00 0.  1.
         11    1    3    3    0    0 -0.62802223124E+01  0.24102332080E+01  0.32726064001E+00  0.67347988981E+01  0.51100000000E-03 0. -1.
        -11    1    3    3    0    0 -0.94067551304E+01  0.78356882922E+01 -0.20609080822E+01  0.12415006866E+02  0.51100000000E-03 0.  1.
         12    1    3    3    0    0 -0.53949910382E+01  0.11911660561E+02  0.28524607409E+02  0.31379082419E+02  0.00000000000E+00 0. -1.
</event>
<event>
 7    1  0.4520156E-012  0.5052885E+02  0.7816164E-02  0.1300439E+00
        -11   -1    0    0    0    0  0.00000000000E+00  0.00000000000E+00  0.45593999997E+02  0.45594000000E+02  0.51100000000E-03 0. -1.
         11   -1    0    0    0    0 -0.00000000000E+00 -0.00000000000E+00 -0.45593999997E+02  0.45594000000E+02  0.51100000000E-03 0.  1.
    9900012    2    1    2    0    0 -0.56498410101E+01  0.12612447011E+02 -0.38238354071E+02  0.50528852873E+02  0.29999978791E+02 0.  0.
         12    1    1    2    0    0  0.56498410101E+01 -0.12612447011E+02  0.38238354071E+02  0.40659147127E+02  0.00000000000E+00 0. -1.
         11    1    3    3    0    0 -0.90894348211E-01 -0.47708119940E+01 -0.39708499805E+01  0.62077821075E+01  0.51100000000E-03 0. -1.
        -11    1    3    3    0    0  0.60877157117E+01  0.12164433213E+01 -0.22368517902E+01  0.65987516344E+01  0.51100000000E-03 0.  1.
        -12    1    3    3    0    0 -0.11646662374E+02  0.16166815684E+02 -0.32030652301E+02  0.37722319131E+02  0.00000000000E+00 0.  1.
</event>
<event>
 7    1  0.4520156E-012  0.5052888E+02  0.7816164E-02  0.1300439E+00
        -11   -1    0    0    0    0  0.00000000000E+00  0.00000000000E+00  0.45593999997E+02  0.45594000000E+02  0.51100000000E-03 0. -1.
         11   -1    0    0    0    0 -0.00000000000E+00 -0.00000000000E+00 -0.45593999997E+02  0.45594000000E+02  0.51100000000E-03 0.  1.
    9900012    2    1    2    0    0 -0.15949706316E+02 -0.62780108689E+01 -0.36869461766E+02  0.50528883397E+02  0.30000071573E+02 0.  0.
         12    1    1    2    0    0  0.15949706316E+02  0.62780108689E+01  0.36869461766E+02  0.40659116603E+02  0.00000000000E+00 0. -1.
         11    1    3    3    0    0  0.26883250035E+01  0.32677325975E+01  0.45857630049E+00  0.42562260440E+01  0.51100000000E-03 0. -1.
        -11    1    3    3    0    0 -0.11665176378E+02 -0.82673152263E+01 -0.86043796877E+01  0.16687126507E+02  0.51100000000E-03 0.  1.
        -12    1    3    3    0    0 -0.69728549417E+01 -0.12784282401E+01 -0.28723658379E+02  0.29585530846E+02  0.00000000000E+00 0.  1.
</event>
<event>
 7    1  0.6049155E-012  0.5052885E+02  0.7816164E-02  0.1300439E+00
        -11   -1    0    0    0    0  0.00000000000E+00  0.00000000000E+00  0.45593999997E+02  0.45594000000E+02  0.51100000000E-03 0. -1.
         11   -1    0    0    0    0 -0.00000000000E+00 -0.00000000000E+00 -0.45593999997E+02  0.45594000000E+02  0.51100000000E-03 0.  1.
    9900012    2    1    2    0    0 -0.20222690494E+02  0.17121550348E+02  0.30839286288E+02  0.50528852494E+02  0.29999977641E+02 0.  0.
        -12    1    1    2    0    0  0.20222690494E+02 -0.17121550348E+02 -0.30839286288E+02  0.40659147506E+02  0.00000000000E+00 0.  1.
         11    1    3    3    0    0 -0.38897939364E+01  0.33145484361E+01 -0.10917637321E+01  0.52257704227E+01  0.51100000000E-03 0. -1.
        -11    1    3    3    0    0  0.21939244484E+01 -0.31365910022E+01  0.13835172247E+02  0.14354912015E+02  0.51100000000E-03 0.  1.
         12    1    3    3    0    0 -0.18526821006E+02  0.16943592914E+02  0.18095877773E+02  0.30948170056E+02  0.00000000000E+00 0. -1.
</event>
<event>
 7    1  0.4520156E-012  0.5052892E+02  0.7816164E-02  0.1300439E+00
        -11   -1    0    0    0    0  0.00000000000E+00  0.00000000000E+00  0.45593999997E+02  0.45594000000E+02  0.51100000000E-03 0. -1.
         11   -1    0    0    0    0 -0.00000000000E+00 -0.00000000000E+00 -0.45593999997E+02  0.45594000000E+02  0.51100000000E-03 0.  1.
    9900012    2    1    2    0    0  0.19088626190E+02 -0.42514418157E+01  0.35647025487E+02  0.50528919423E+02  0.30000181077E+02 0.  0.
        -12    1    1    2    0    0 -0.19088626190E+02  0.42514418157E+01 -0.35647025487E+02  0.40659080577E+02  0.00000000000E+00 0.  1.
         11    1    3    3    0    0  0.19610504105E+01 -0.43813966737E+00  0.19521608673E+02  0.19624751986E+02  0.51100000000E-03 0. -1.
        -11    1    3    3    0    0  0.35661202802E+01  0.67213416461E+01  0.10227046078E+02  0.12747004319E+02  0.51100000000E-03 0.  1.
        -12    1    3    3    0    0  0.13561455499E+02 -0.10534643794E+02  0.58983707363E+01  0.18157163117E+02  0.00000000000E+00 0.  1.
</event>
<event>
 7    1  0.4520156E-012  0.5052886E+02  0.7816164E-02  0.1300439E+00
        -11   -1    0    0    0    0  0.00000000000E+00  0.00000000000E+00  0.45593999997E+02  0.45594000000E+02  0.51100000000E-03 0. -1.
         11   -1    0    0    0    0 -0.00000000000E+00 -0.00000000000E+00 -0.45593999997E+02  0.45594000000E+02  0.51100000000E-03 0.  1.
    9900012    2    1    2    0    0  0.32035500754E+02  0.46538853492E+00  0.25033490621E+02  0.50528861449E+02  0.30000004862E+02 0.  0.
        -12    1    1    2    0    0 -0.32035500754E+02 -0.46538853492E+00 -0.25033490621E+02  0.40659138551E+02  0.00000000000E+00 0.  1.
         11    1    3    3    0    0  0.18013107180E+01 -0.41899279138E+01  0.23052389632E+01  0.51102194830E+01  0.51100000000E-03 0. -1.
        -11    1    3    3    0    0  0.40055896670E+01  0.11384884442E+02  0.90274790779E+01  0.15071686074E+02  0.51100000000E-03 0.  1.
         12    1    3    3    0    0  0.26228600369E+02 -0.67295679934E+01  0.13700772580E+02  0.30346955893E+02  0.00000000000E+00 0. -1.
</event>
<event>
 7    1  0.4520156E-012  0.5052886E+02  0.7816164E-02  0.1300439E+00
        -11   -1    0    0    0    0  0.00000000000E+00  0.00000000000E+00  0.45593999997E+02  0.45594000000E+02  0.51100000000E-03 0. -1.
         11   -1    0    0    0    0 -0.00000000000E+00 -0.00000000000E+00 -0.45593999997E+02  0.45594000000E+02  0.51100000000E-03 0.  1.
    9900012    2    1    2    0    0 -0.66506466213E+01  0.17206825311E+02  0.36233403485E+02  0.50528862455E+02  0.30000007918E+02 0.  0.
        -12    1    1    2    0    0  0.66506466213E+01 -0.17206825311E+02 -0.36233403485E+02  0.40659137545E+02  0.00000000000E+00 0.  1.
         11    1    3    3    0    0 -0.41427707142E+01  0.10129322854E+02  0.18178313187E+02  0.21218312875E+02  0.51100000000E-03 0. -1.
        -11    1    3    3    0    0 -0.90619485610E+01  0.98186922698E+01  0.46645387043E+01  0.14152157122E+02  0.51100000000E-03 0.  1.
         12    1    3    3    0    0  0.65540726539E+01 -0.27411898122E+01  0.13390551594E+02  0.15158392459E+02  0.00000000000E+00 0. -1.
</event>
<event>
 7    1  0.4520156E-012  0.5052886E+02  0.7816164E-02  0.1300439E+00
        -11   -1    0    0    0    0  0.00000000000E+00  0.00000000000E+00  0.45593999997E+02  0.45594000000E+02  0.51100000000E-03 0. -1.
         11   -1    0    0    0    0 -0.00000000000E+00 -0.00000000000E+00 -0.45593999997E+02  0.45594000000E+02  0.51100000000E-03 0.  1.
    9900012    2    1    2    0    0 -0.20737087822E+01  0.14956167148E+02  0.37751535879E+02  0.50528860005E+02  0.30000000473E+02 0.  0.
        -12    1    1    2    0    0  0.20737087822E+01 -0.14956167148E+02 -0.37751535879E+02  0.40659139995E+02  0.00000000000E+00 0.  1.
         11    1    3    3    0    0 -0.11418577647E+02  0.49482503504E+01  0.73404456523E+01  0.14448226176E+02  0.51100000000E-03 0. -1.
        -11    1    3    3    0    0 -0.30937382592E+01 -0.34027092144E+00  0.35358520524E+01  0.47105467532E+01  0.51100000000E-03 0.  1.
         12    1    3    3    0    0  0.12438607124E+02  0.10348187719E+02  0.26875238174E+02  0.31370087076E+02  0.00000000000E+00 0. -1.
</event>
<event>
 7    1  0.4520156E-012  0.5052885E+02  0.7816164E-02  0.1300439E+00
        -11   -1    0    0    0    0  0.00000000000E+00  0.00000000000E+00  0.45593999997E+02  0.45594000000E+02  0.51100000000E-03 0. -1.
         11   -1    0    0    0    0 -0.00000000000E+00 -0.00000000000E+00 -0.45593999997E+02  0.45594000000E+02  0.51100000000E-03 0.  1.
    9900012    2    1    2    0    0 -0.29977754733E+01 -0.12606100779E+02 -0.38539153752E+02  0.50528845969E+02  0.29999957807E+02 0.  0.
         12    1    1    2    0    0  0.29977754733E+01  0.12606100779E+02  0.38539153752E+02  0.40659154031E+02  0.00000000000E+00 0. -1.
         11    1    3    3    0    0 -0.23325722882E+01 -0.51104811864E+00  0.12128045658E+01  0.26782380094E+01  0.51100000000E-03 0. -1.
        -11    1    3    3    0    0 -0.55524967960E+01  0.58171188294E+01 -0.13020688101E+02  0.15303836481E+02  0.51100000000E-03 0.  1.
        -12    1    3    3    0    0  0.48872936108E+01 -0.17912171490E+02 -0.26731270217E+02  0.32546771479E+02  0.00000000000E+00 0.  1.
</event>
<event>
 7    1  0.4520156E-012  0.5052885E+02  0.7816164E-02  0.1300439E+00
        -11   -1    0    0    0    0  0.00000000000E+00  0.00000000000E+00  0.45593999997E+02  0.45594000000E+02  0.51100000000E-03 0. -1.
         11   -1    0    0    0    0 -0.00000000000E+00 -0.00000000000E+00 -0.45593999997E+02  0.45594000000E+02  0.51100000000E-03 0.  1.
    9900012    2    1    2    0    0 -0.27765101543E+02 -0.16899299818E+02  0.24427026499E+02  0.50528845783E+02  0.29999957242E+02 0.  0.
        -12    1    1    2    0    0  0.27765101543E+02  0.16899299818E+02 -0.24427026499E+02  0.40659154217E+02  0.00000000000E+00 0.  1.
         11    1    3    3    0    0 -0.93907288372E+01 -0.47943611918E+00  0.79925852852E+01  0.12340869778E+02  0.51100000000E-03 0. -1.
        -11    1    3    3    0    0 -0.30066414188E+01  0.63064815434E+01  0.25250337527E+01  0.74288220999E+01  0.51100000000E-03 0.  1.
        -12    1    3    3    0    0 -0.15367731287E+02 -0.22726345243E+02  0.13909407461E+02  0.30759153905E+02  0.00000000000E+00 0.  1.
</event>
<event>
 7    1  0.4520156E-012  0.5052885E+02  0.7816164E-02  0.1300439E+00
        -11   -1    0    0    0    0  0.00000000000E+00  0.00000000000E+00  0.45593999997E+02  0.45594000000E+02  0.51100000000E-03 0. -1.
         11   -1    0    0    0    0 -0.00000000000E+00 -0.00000000000E+00 -0.45593999997E+02  0.45594000000E+02  0.51100000000E-03 0.  1.
    9900012    2    1    2    0    0  0.87154443448E+01 -0.52455207350E+01 -0.39366124155E+02  0.50528853564E+02  0.29999980892E+02 0.  0.
         12    1    1    2    0    0 -0.87154443448E+01  0.52455207350E+01  0.39366124155E+02  0.40659146436E+02  0.00000000000E+00 0. -1.
         11    1    3    3    0    0 -0.74800580458E+00  0.84294347551E+00  0.79373533791E+00  0.13784347770E+01  0.51100000000E-03 0. -1.
        -11    1    3    3    0    0  0.14252671272E+01  0.89637132322E+01 -0.23959504622E+02  0.25621034392E+02  0.51100000000E-03 0.  1.
         12    1    3    3    0    0  0.80381830221E+01 -0.15052177443E+02 -0.16200354871E+02  0.23529384395E+02  0.00000000000E+00 0. -1.
</event>
<event>
 7    1  0.4520156E-012  0.5052887E+02  0.7816164E-02  0.1300439E+00
        -11   -1    0    0    0    0  0.00000000000E+00  0.00000000000E+00  0.45593999997E+02  0.45594000000E+02  0.51100000000E-03 0. -1.
         11   -1    0    0    0    0 -0.00000000000E+00 -0.00000000000E+00 -0.45593999997E+02  0.45594000000E+02  0.51100000000E-03 0.  1.
    9900012    2    1    2    0    0  0.10424891222E+02  0.33016818860E+02 -0.21316109555E+02  0.50528865587E+02  0.30000017439E+02 0.  0.
         12    1    1    2    0    0 -0.10424891222E+02 -0.33016818860E+02  0.21316109555E+02  0.40659134413E+02  0.00000000000E+00 0. -1.
         11    1    3    3    0    0 -0.50650211687E+01  0.41737301480E+01 -0.52218859834E+01  0.83870469340E+01  0.51100000000E-03 0. -1.
        -11    1    3    3    0    0  0.17924821286E+02  0.13440406636E+02 -0.13972811615E+02  0.26404227187E+02  0.51100000000E-03 0.  1.
         12    1    3    3    0    0 -0.24349088950E+01  0.15402682076E+02 -0.21214119563E+01  0.15737591466E+02  0.00000000000E+00 0. -1.
</event>
<event>
 7    1  0.4520156E-012  0.5052886E+02  0.7816164E-02  0.1300439E+00
        -11   -1    0    0    0    0  0.00000000000E+00  0.00000000000E+00  0.45593999997E+02  0.45594000000E+02  0.51100000000E-03 0. -1.
         11   -1    0    0    0    0 -0.00000000000E+00 -0.00000000000E+00 -0.45593999997E+02  0.45594000000E+02  0.51100000000E-03 0.  1.
    9900012    2    1    2    0    0  0.26537573811E+01 -0.23986860044E+02  0.32722371331E+02  0.50528862422E+02  0.30000007818E+02 0.  0.
        -12    1    1    2    0    0 -0.26537573811E+01  0.23986860044E+02 -0.32722371331E+02  0.40659137578E+02  0.00000000000E+00 0.  1.
         11    1    3    3    0    0 -0.36782934259E+01 -0.16383535450E+02  0.14184988031E+02  0.21980990925E+02  0.51100000000E-03 0. -1.
        -11    1    3    3    0    0 -0.45205147142E+01  0.35091483018E+01  0.25747748911E+01  0.62752403210E+01  0.51100000000E-03 0.  1.
        -12    1    3    3    0    0  0.10852565521E+02 -0.11112472897E+02  0.15962608409E+02  0.22272631176E+02  0.00000000000E+00 0.  1.
</event>
<event>
 7    1  0.4520156E-012  0.5052888E+02  0.7816164E-02  0.1300439E+00
        -11   -1    0    0    0    0  0.00000000000E+00  0.00000000000E+00  0.45593999997E+02  0.45594000000E+02  0.51100000000E-03 0. -1.
         11   -1    0    0    0    0 -0.00000000000E+00 -0.00000000000E+00 -0.45593999997E+02  0.45594000000E+02  0.51100000000E-03 0.  1.
    9900012    2    1    2    0    0  0.25157296308E+01 -0.39925370327E+02  0.72663748065E+01  0.50528876865E+02  0.30000051718E+02 0.  0.
        -12    1    1    2    0    0 -0.25157296308E+01  0.39925370327E+02 -0.72663748065E+01  0.40659123135E+02  0.00000000000E+00 0.  1.
         11    1    3    3    0    0 -0.48682488491E+01 -0.13033860543E+02  0.26842258297E+01  0.14169913058E+02  0.51100000000E-03 0.  1.
        -11    1    3    3    0    0  0.21688990096E+00 -0.22598831524E+02  0.11641011436E+02  0.25421789374E+02  0.51100000000E-03 0. -1.
         12    1    3    3    0    0  0.71670885789E+01 -0.42926782603E+01 -0.70588624595E+01  0.10937174433E+02  0.00000000000E+00 0. -1.
</event>
<event>
 7    1  0.4520156E-012  0.5052887E+02  0.7816164E-02  0.1300439E+00
        -11   -1    0    0    0    0  0.00000000000E+00  0.00000000000E+00  0.45593999997E+02  0.45594000000E+02  0.51100000000E-03 0.  1.
         11   -1    0    0    0    0 -0.00000000000E+00 -0.00000000000E+00 -0.45593999997E+02  0.45594000000E+02  0.51100000000E-03 0. -1.
    9900012    2    1    2    0    0 -0.40389785363E+02 -0.37241183804E+01 -0.28214705088E+01  0.50528874146E+02  0.30000043456E+02 0.  0.
         12    1    1    2    0    0  0.40389785363E+02  0.37241183804E+01  0.28214705088E+01  0.40659125854E+02  0.00000000000E+00 0. -1.
         11    1    3    3    0    0 -0.28083928511E+02 -0.57801211491E+01 -0.10661604555E+02  0.30590630151E+02  0.51100000000E-03 0. -1.
        -11    1    3    3    0    0 -0.56713000017E+01  0.13863086646E+01 -0.34824217138E+01  0.67979965193E+01  0.51100000000E-03 0.  1.
        -12    1    3    3    0    0 -0.66345568497E+01  0.66969410404E+00  0.11322555760E+02  0.13140247476E+02  0.00000000000E+00 0.  1.
</event>
<event>
 7    1  0.4520156E-012  0.5052886E+02  0.7816164E-02  0.1300439E+00
        -11   -1    0    0    0    0  0.00000000000E+00  0.00000000000E+00  0.45593999997E+02  0.45594000000E+02  0.51100000000E-03 0. -1.
         11   -1    0    0    0    0 -0.00000000000E+00 -0.00000000000E+00 -0.45593999997E+02  0.45594000000E+02  0.51100000000E-03 0.  1.
    9900012    2    1    2    0    0 -0.38536901621E+01 -0.19694478674E+02 -0.35361589785E+02  0.50528862648E+02  0.30000008504E+02 0.  0.
         12    1    1    2    0    0  0.38536901621E+01  0.19694478674E+02  0.35361589785E+02  0.40659137352E+02  0.00000000000E+00 0. -1.
         11    1    3    3    0    0 -0.17767319963E+01 -0.25683175816E+01 -0.12310010855E+02  0.12699976350E+02  0.51100000000E-03 0. -1.
        -11    1    3    3    0    0 -0.51437707569E+01 -0.21262100521E+02 -0.24128352514E+02  0.32568584426E+02  0.51100000000E-03 0.  1.
         12    1    3    3    0    0  0.30668125911E+01  0.41359394289E+01  0.10767735842E+01  0.52603018716E+01  0.00000000000E+00 0. -1.
</event>
<event>
 7    1  0.4590707E-012  0.5052890E+02  0.7816164E-02  0.1300439E+00
        -11   -1    0    0    0    0  0.00000000000E+00  0.00000000000E+00  0.45593999997E+02  0.45594000000E+02  0.51100000000E-03 0. -1.
         11   -1    0    0    0    0 -0.00000000000E+00 -0.00000000000E+00 -0.45593999997E+02  0.45594000000E+02  0.51100000000E-03 0.  1.
    9900012    2    1    2    0    0 -0.24776232776E+02  0.13915952769E+02  0.29080003231E+02  0.50528904585E+02  0.30000135977E+02 0.  0.
        -12    1    1    2    0    0  0.24776232776E+02 -0.13915952769E+02 -0.29080003231E+02  0.40659095415E+02  0.00000000000E+00 0.  1.
         11    1    3    3    0    0 -0.11622968752E+02  0.15328358993E+01 -0.11830937647E+00  0.11724205127E+02  0.51100000000E-03 0. -1.
        -11    1    3    3    0    0 -0.95728980184E+01  0.90669292133E+01  0.49716164838E+01  0.14091364467E+02  0.51100000000E-03 0.  1.
         12    1    3    3    0    0 -0.35803660064E+01  0.33161876562E+01  0.24226696123E+02  0.24713334991E+02  0.00000000000E+00 0. -1.
</event>
<event>
 7    1  0.4520156E-012  0.5052886E+02  0.7816164E-02  0.1300439E+00
        -11   -1    0    0    0    0  0.00000000000E+00  0.00000000000E+00  0.45593999997E+02  0.45594000000E+02  0.51100000000E-03 0.  1.
         11   -1    0    0    0    0 -0.00000000000E+00 -0.00000000000E+00 -0.45593999997E+02  0.45594000000E+02  0.51100000000E-03 0. -1.
    9900012    2    1    2    0    0  0.21350812630E+02 -0.31176126978E+02 -0.15011905737E+02  0.50528863177E+02  0.30000010114E+02 0.  0.
         12    1    1    2    0    0 -0.21350812630E+02  0.31176126978E+02  0.15011905737E+02  0.40659136823E+02  0.00000000000E+00 0. -1.
         11    1    3    3    0    0 -0.53850166655E+01 -0.75171223110E+01 -0.14243052480E+00  0.92480170330E+01  0.51100000000E-03 0. -1.
        -11    1    3    3    0    0  0.85677023053E+01 -0.16488333266E+02 -0.43002697698E+01  0.19072571327E+02  0.51100000000E-03 0.  1.
         12    1    3    3    0    0  0.18168126990E+02 -0.71706714014E+01 -0.10569205442E+02  0.22208274817E+02  0.00000000000E+00 0. -1.
</event>
<event>
 7    1  0.4520156E-012  0.5052889E+02  0.7816164E-02  0.1300439E+00
        -11   -1    0    0    0    0  0.00000000000E+00  0.00000000000E+00  0.45593999997E+02  0.45594000000E+02  0.51100000000E-03 0. -1.
         11   -1    0    0    0    0 -0.00000000000E+00 -0.00000000000E+00 -0.45593999997E+02  0.45594000000E+02  0.51100000000E-03 0.  1.
    9900012    2    1    2    0    0 -0.22353041308E+02 -0.29149141367E+01  0.33837966374E+02  0.50528890953E+02  0.30000094542E+02 0.  0.
        -12    1    1    2    0    0  0.22353041308E+02  0.29149141367E+01 -0.33837966374E+02  0.40659109047E+02  0.00000000000E+00 0.  1.
         11    1    3    3    0    0 -0.92234941950E+01 -0.81328339682E+01  0.19190992936E+02  0.22792762967E+02  0.51100000000E-03 0. -1.
        -11    1    3    3    0    0 -0.79262723445E+01 -0.14661337853E+01  0.17110879780E+02  0.18914479867E+02  0.51100000000E-03 0.  1.
        -12    1    3    3    0    0 -0.52032747688E+01  0.66840536168E+01 -0.24639063425E+01  0.88216481190E+01  0.00000000000E+00 0.  1.
</event>
<event>
 7    1  0.4520156E-012  0.5052892E+02  0.7816164E-02  0.1300439E+00
        -11   -1    0    0    0    0  0.00000000000E+00  0.00000000000E+00  0.45593999997E+02  0.45594000000E+02  0.51100000000E-03 0. -1.
         11   -1    0    0    0    0 -0.00000000000E+00 -0.00000000000E+00 -0.45593999997E+02  0.45594000000E+02  0.51100000000E-03 0.  1.
    9900012    2    1    2    0    0  0.77678267738E+01  0.13653869674E+02 -0.37501909032E+02  0.50528923880E+02  0.30000194626E+02 0.  0.
         12    1    1    2    0    0 -0.77678267738E+01 -0.13653869674E+02  0.37501909032E+02  0.40659076120E+02  0.00000000000E+00 0. -1.
         11    1    3    3    0    0  0.15036934099E+02  0.55061003831E+01 -0.25622850291E+02  0.30215178071E+02  0.51100000000E-03 0. -1.
        -11    1    3    3    0    0 -0.18532957942E+01  0.56332630176E+01 -0.12953789813E+02  0.14246719914E+02  0.51100000000E-03 0.  1.
        -12    1    3    3    0    0 -0.54158115314E+01  0.25145062738E+01  0.10747310719E+01  0.60670258959E+01  0.00000000000E+00 0.  1.
</event>
<event>
 7    1  0.4520156E-012  0.5052887E+02  0.7816164E-02  0.1300439E+00
        -11   -1    0    0    0    0  0.00000000000E+00  0.00000000000E+00  0.45593999997E+02  0.45594000000E+02  0.51100000000E-03 0. -1.
         11   -1    0    0    0    0 -0.00000000000E+00 -0.00000000000E+00 -0.45593999997E+02  0.45594000000E+02  0.51100000000E-03 0.  1.
    9900012    2    1    2    0    0 -0.20829401032E+02  0.27614873305E+02  0.21371009643E+02  0.50528865378E+02  0.30000016804E+02 0.  0.
        -12    1    1    2    0    0  0.20829401032E+02 -0.27614873305E+02 -0.21371009643E+02  0.40659134622E+02  0.00000000000E+00 0.  1.
         11    1    3    3    0    0 -0.21032688703E+02  0.23382581459E+02  0.14337640531E+02  0.34564245197E+02  0.51100000000E-03 0. -1.
        -11    1    3    3    0    0 -0.17698226390E+01  0.25727062343E+01  0.10888149367E+02  0.11327086406E+02  0.51100000000E-03 0.  1.
         12    1    3    3    0    0  0.19731103105E+01  0.16595856122E+01 -0.38547802555E+01  0.46375337756E+01  0.00000000000E+00 0. -1.
</event>
<event>
 7    1  0.4520156E-012  0.5052879E+02  0.7816164E-02  0.1300439E+00
        -11   -1    0    0    0    0  0.00000000000E+00  0.00000000000E+00  0.45593999997E+02  0.45594000000E+02  0.51100000000E-03 0.  1.
         11   -1    0    0    0    0 -0.00000000000E+00 -0.00000000000E+00 -0.45593999997E+02  0.45594000000E+02  0.51100000000E-03 0. -1.
    9900012    2    1    2    0    0 -0.21581578507E+02  0.33165018007E+02  0.93535021288E+01  0.50528794986E+02  0.29999802840E+02 0.  0.
         12    1    1    2    0    0  0.21581578507E+02 -0.33165018007E+02 -0.93535021288E+01  0.40659205014E+02  0.00000000000E+00 0. -1.
         11    1    3    3    0    0 -0.52333617069E+01  0.20751027089E+02  0.10252842673E+01  0.21425321657E+02  0.51100000000E-03 0. -1.
        -11    1    3    3    0    0 -0.98411945213E+01  0.34462803311E+01  0.13349366381E+02  0.16939053715E+02  0.51100000000E-03 0.  1.
         12    1    3    3    0    0 -0.65070222789E+01  0.89677105869E+01 -0.50211485191E+01  0.12164419615E+02  0.00000000000E+00 0. -1.
</event>
<event>
 7    1  0.4520156E-012  0.5052886E+02  0.7816164E-02  0.1300439E+00
        -11   -1    0    0    0    0  0.00000000000E+00  0.00000000000E+00  0.45593999997E+02  0.45594000000E+02  0.51100000000E-03 0. -1.
         11   -1    0    0    0    0 -0.00000000000E+00 -0.00000000000E+00 -0.45593999997E+02  0.45594000000E+02  0.51100000000E-03 0.  1.
    9900012    2    1    2    0    0  0.33936798402E+02 -0.75071189836E+01 -0.21097452727E+02  0.50528860403E+02  0.30000001681E+02 0.  0.
         12    1    1    2    0    0 -0.33936798402E+02  0.75071189836E+01  0.21097452727E+02  0.40659139597E+02  0.00000000000E+00 0. -1.
         11    1    3    3    0    0  0.89066092369E+01  0.28851962410E+01  0.40328865995E+01  0.10193930549E+02  0.51100000000E-03 0. -1.
        -11    1    3    3    0    0  0.13850094047E+02 -0.83128267837E+00 -0.37328035499E+01  0.14368366595E+02  0.51100000000E-03 0.  1.
         12    1    3    3    0    0  0.11180095118E+02 -0.95610325462E+01 -0.21397535776E+02  0.25966563259E+02  0.00000000000E+00 0. -1.
</event>
<event>
 7    1  0.4520156E-012  0.5052884E+02  0.7816164E-02  0.1300439E+00
        -11   -1    0    0    0    0  0.00000000000E+00  0.00000000000E+00  0.45593999997E+02  0.45594000000E+02  0.51100000000E-03 0. -1.
         11   -1    0    0    0    0 -0.00000000000E+00 -0.00000000000E+00 -0.45593999997E+02  0.45594000000E+02  0.51100000000E-03 0.  1.
    9900012    2    1    2    0    0  0.76177645592E+00 -0.38890298187E+02  0.11837726406E+02  0.50528839127E+02  0.29999937011E+02 0.  0.
        -12    1    1    2    0    0 -0.76177645592E+00  0.38890298187E+02 -0.11837726406E+02  0.40659160873E+02  0.00000000000E+00 0.  1.
         11    1    3    3    0    0  0.50525547781E+01  0.11765218916E+01  0.14479414646E+01  0.53860048545E+01  0.51100000000E-03 0. -1.
        -11    1    3    3    0    0 -0.78029868235E+00 -0.27296511974E+02  0.14954401839E+02  0.31134266759E+02  0.51100000000E-03 0.  1.
        -12    1    3    3    0    0 -0.35104796398E+01 -0.12770308104E+02 -0.45646168970E+01  0.14008567514E+02  0.00000000000E+00 0.  1.
</event>
<event>
 7    1  0.4520156E-012  0.5052886E+02  0.7816164E-02  0.1300439E+00
        -11   -1    0    0    0    0  0.00000000000E+00  0.00000000000E+00  0.45593999997E+02  0.45594000000E+02  0.51100000000E-03 0. -1.
         11   -1    0    0    0    0 -0.00000000000E+00 -0.00000000000E+00 -0.45593999997E+02  0.45594000000E+02  0.51100000000E-03 0.  1.
    9900012    2    1    2    0    0 -0.33398929532E+02 -0.23266539660E+01 -0.23070847803E+02  0.50528857966E+02  0.29999994275E+02 0.  0.
         12    1    1    2    0    0  0.33398929532E+02  0.23266539660E+01  0.23070847803E+02  0.40659142034E+02  0.00000000000E+00 0. -1.
         11    1    3    3    0    0 -0.42459194257E+01  0.77416393096E+00 -0.87013942316E+00  0.44027610017E+01  0.51100000000E-03 0. -1.
        -11    1    3    3    0    0 -0.23579003521E+02  0.97337053344E+01 -0.94744394084E+01  0.27211751670E+02  0.51100000000E-03 0.  1.
         12    1    3    3    0    0 -0.55740065850E+01 -0.12834523231E+02 -0.12726268972E+02  0.18914345295E+02  0.00000000000E+00 0. -1.
</event>
<event>
 7    1  0.4520156E-012  0.5052885E+02  0.7816164E-02  0.1300439E+00
        -11   -1    0    0    0    0  0.00000000000E+00  0.00000000000E+00  0.45593999997E+02  0.45594000000E+02  0.51100000000E-03 0. -1.
         11   -1    0    0    0    0 -0.00000000000E+00 -0.00000000000E+00 -0.45593999997E+02  0.45594000000E+02  0.51100000000E-03 0.  1.
    9900012    2    1    2    0    0 -0.27217253201E+02 -0.23236918972E+02  0.19298535382E+02  0.50528846750E+02  0.29999960181E+02 0.  0.
        -12    1    1    2    0    0  0.27217253201E+02  0.23236918972E+02 -0.19298535382E+02  0.40659153250E+02  0.00000000000E+00 0.  1.
         11    1    3    3    0    0 -0.87336858382E+01 -0.73116177545E+01  0.92452159294E+01  0.14670072950E+02  0.51100000000E-03 0. -1.
        -11    1    3    3    0    0 -0.18528792330E+02 -0.21727105767E+02  0.91618180476E+01  0.29988700879E+02  0.51100000000E-03 0.  1.
        -12    1    3    3    0    0  0.45224966777E-01  0.58018045503E+01  0.89150140519E+00  0.58700729206E+01  0.00000000000E+00 0.  1.
</event>
<event>
 7    1  0.4520156E-012  0.5052886E+02  0.7816164E-02  0.1300439E+00
        -11   -1    0    0    0    0  0.00000000000E+00  0.00000000000E+00  0.45593999997E+02  0.45594000000E+02  0.51100000000E-03 0.  1.
         11   -1    0    0    0    0 -0.00000000000E+00 -0.00000000000E+00 -0.45593999997E+02  0.45594000000E+02  0.51100000000E-03 0. -1.
    9900012    2    1    2    0    0 -0.38680307165E+02 -0.12449227792E+02  0.14200490729E+01  0.50528856202E+02  0.29999988912E+02 0.  0.
         12    1    1    2    0    0  0.38680307165E+02  0.12449227792E+02 -0.14200490729E+01  0.40659143798E+02  0.00000000000E+00 0. -1.
         11    1    3    3    0    0 -0.63434803613E-01 -0.25548092448E+01  0.27854173458E+00  0.25707314155E+01  0.51100000000E-03 0. -1.
        -11    1    3    3    0    0 -0.14730759608E+02 -0.16410402021E+02 -0.46356901609E+01  0.22534111845E+02  0.51100000000E-03 0.  1.
        -12    1    3    3    0    0 -0.23886112754E+02  0.65159834737E+01  0.57771974992E+01  0.25424012942E+02  0.00000000000E+00 0.  1.
</event>
<event>
 7    1  0.4520156E-012  0.5052887E+02  0.7816164E-02  0.1300439E+00
        -11   -1    0    0    0    0  0.00000000000E+00  0.00000000000E+00  0.45593999997E+02  0.45594000000E+02  0.51100000000E-03 0.  1.
         11   -1    0    0    0    0 -0.00000000000E+00 -0.00000000000E+00 -0.45593999997E+02  0.45594000000E+02  0.51100000000E-03 0. -1.
    9900012    2    1    2    0    0  0.38298828564E+02 -0.93598358894E+01 -0.99377121505E+01  0.50528869168E+02  0.30000028322E+02 0.  0.
         12    1    1    2    0    0 -0.38298828564E+02  0.93598358894E+01  0.99377121505E+01  0.40659130832E+02  0.00000000000E+00 0. -1.
         11    1    3    3    0    0  0.19411802073E+01 -0.34468244496E+01 -0.12406122884E+01  0.41458290480E+01  0.51100000000E-03 0. -1.
        -11    1    3    3    0    0  0.29325668320E+02 -0.13705521601E+02  0.57867942257E+00  0.32375469339E+02  0.51100000000E-03 0.  1.
         12    1    3    3    0    0  0.70319800365E+01  0.77925101610E+01 -0.92757792847E+01  0.14007570781E+02  0.00000000000E+00 0. -1.
</event>
<event>
 7    1  0.4520156E-012  0.5052886E+02  0.7816164E-02  0.1300439E+00
        -11   -1    0    0    0    0  0.00000000000E+00  0.00000000000E+00  0.45593999997E+02  0.45594000000E+02  0.51100000000E-03 0. -1.
         11   -1    0    0    0    0 -0.00000000000E+00 -0.00000000000E+00 -0.45593999997E+02  0.45594000000E+02  0.51100000000E-03 0.  1.
    9900012    2    1    2    0    0 -0.21575542600E+02 -0.31322669589E+02  0.14371903916E+02  0.50528864608E+02  0.30000014461E+02 0.  0.
        -12    1    1    2    0    0  0.21575542600E+02  0.31322669589E+02 -0.14371903916E+02  0.40659135392E+02  0.00000000000E+00 0.  1.
         11    1    3    3    0    0  0.35228719437E+01 -0.43059302657E+01  0.79552263898E+01  0.97075892661E+01  0.51100000000E-03 0. -1.
        -11    1    3    3    0    0  0.18440551500E+01  0.22731223013E+00 -0.40723662770E+00  0.19021178139E+01  0.51100000000E-03 0.  1.
        -12    1    3    3    0    0 -0.26942469694E+02 -0.27244051554E+02  0.68239141539E+01  0.38919157528E+02  0.00000000000E+00 0.  1.
</event>
<event>
 7    1  0.4520156E-012  0.5052885E+02  0.7816164E-02  0.1300439E+00
        -11   -1    0    0    0    0  0.00000000000E+00  0.00000000000E+00  0.45593999997E+02  0.45594000000E+02  0.51100000000E-03 0. -1.
         11   -1    0    0    0    0 -0.00000000000E+00 -0.00000000000E+00 -0.45593999997E+02  0.45594000000E+02  0.51100000000E-03 0.  1.
    9900012    2    1    2    0    0  0.21414140423E+02  0.18314168958E+02 -0.29311984256E+02  0.50528848316E+02  0.29999964940E+02 0.  0.
         12    1    1    2    0    0 -0.21414140423E+02 -0.18314168958E+02  0.29311984256E+02  0.40659151684E+02  0.00000000000E+00 0. -1.
         11    1    3    3    0    0  0.70732015016E+01  0.19084277867E+02 -0.19441562959E+02  0.28146300143E+02  0.51100000000E-03 0. -1.
        -11    1    3    3    0    0  0.53807889118E+01  0.62467772408E+01 -0.18224443934E+01  0.84437206869E+01  0.51100000000E-03 0.  1.
        -12    1    3    3    0    0  0.89601500096E+01 -0.70168861501E+01 -0.80479769035E+01  0.13938827486E+02  0.00000000000E+00 0.  1.
</event>
<event>
 7    1  0.4520156E-012  0.5052886E+02  0.7816164E-02  0.1300439E+00
        -11   -1    0    0    0    0  0.00000000000E+00  0.00000000000E+00  0.45593999997E+02  0.45594000000E+02  0.51100000000E-03 0. -1.
         11   -1    0    0    0    0 -0.00000000000E+00 -0.00000000000E+00 -0.45593999997E+02  0.45594000000E+02  0.51100000000E-03 0.  1.
    9900012    2    1    2    0    0 -0.16157640431E+02  0.11421793166E+01  0.37293321585E+02  0.50528858928E+02  0.29999997196E+02 0.  0.
        -12    1    1    2    0    0  0.16157640431E+02 -0.11421793166E+01 -0.37293321585E+02  0.40659141072E+02  0.00000000000E+00 0.  1.
         11    1    3    3    0    0 -0.26757322600E+01 -0.39604979152E+01  0.42287114464E+01  0.63817777790E+01  0.51100000000E-03 0. -1.
        -11    1    3    3    0    0 -0.16633846814E+02 -0.50307726975E+01  0.13951339366E+02  0.22285273256E+02  0.51100000000E-03 0.  1.
        -12    1    3    3    0    0  0.31519386424E+01  0.10133449929E+02  0.19113270773E+02  0.21861807892E+02  0.00000000000E+00 0.  1.
</event>
<event>
 7    1  0.4520156E-012  0.5052886E+02  0.7816164E-02  0.1300439E+00
        -11   -1    0    0    0    0  0.00000000000E+00  0.00000000000E+00  0.45593999997E+02  0.45594000000E+02  0.51100000000E-03 0.  1.
         11   -1    0    0    0    0 -0.00000000000E+00 -0.00000000000E+00 -0.45593999997E+02  0.45594000000E+02  0.51100000000E-03 0. -1.
    9900012    2    1    2    0    0 -0.21099504370E+02  0.32298319608E+02  0.12837253259E+02  0.50528860740E+02  0.30000002704E+02 0.  0.
        -12    1    1    2    0    0  0.21099504370E+02 -0.32298319608E+02 -0.12837253259E+02  0.40659139260E+02  0.00000000000E+00 0.  1.
         11    1    3    3    0    0 -0.17370042639E+02  0.12014212082E+02  0.23935733675E+01  0.21255325614E+02  0.51100000000E-03 0. -1.
        -11    1    3    3    0    0 -0.46771193472E+01 -0.19542357314E+01  0.23739766079E+01  0.55973429301E+01  0.51100000000E-03 0.  1.
         12    1    3    3    0    0  0.94765761648E+00  0.22238343257E+02  0.80697032834E+01  0.23676192195E+02  0.00000000000E+00 0. -1.
</event>
<event>
 7    1  0.4520156E-012  0.5052885E+02  0.7816164E-02  0.1300439E+00
        -11   -1    0    0    0    0  0.00000000000E+00  0.00000000000E+00  0.45593999997E+02  0.45594000000E+02  0.51100000000E-03 0. -1.
         11   -1    0    0    0    0 -0.00000000000E+00 -0.00000000000E+00 -0.45593999997E+02  0.45594000000E+02  0.51100000000E-03 0.  1.
    9900012    2    1    2    0    0 -0.12573818828E+02  0.84810460640E+01 -0.37724489150E+02  0.50528854118E+02  0.29999982576E+02 0.  0.
         12    1    1    2    0    0  0.12573818828E+02 -0.84810460640E+01  0.37724489150E+02  0.40659145882E+02  0.00000000000E+00 0. -1.
         11    1    3    3    0    0  0.32500608031E+00 -0.10460209991E+01  0.39597158814E+00  0.11647242774E+01  0.51100000000E-03 0. -1.
        -11    1    3    3    0    0 -0.10605842491E+02 -0.76673787666E+01 -0.22457097122E+02  0.25992187355E+02  0.51100000000E-03 0.  1.
        -12    1    3    3    0    0 -0.22929824166E+01  0.17194445830E+02 -0.15663363617E+02  0.23371942485E+02  0.00000000000E+00 0.  1.
</event>
<event>
 7    1  0.4520156E-012  0.5052886E+02  0.7816164E-02  0.1300439E+00
        -11   -1    0    0    0    0  0.00000000000E+00  0.00000000000E+00  0.45593999997E+02  0.45594000000E+02  0.51100000000E-03 0. -1.
         11   -1    0    0    0    0 -0.00000000000E+00 -0.00000000000E+00 -0.45593999997E+02  0.45594000000E+02  0.51100000000E-03 0.  1.
    9900012    2    1    2    0    0  0.22625239117E+02 -0.27605251002E+02 -0.19473431195E+02  0.50528857726E+02  0.29999993543E+02 0.  0.
         12    1    1    2    0    0 -0.22625239117E+02  0.27605251002E+02  0.19473431195E+02  0.40659142274E+02  0.00000000000E+00 0. -1.
         11    1    3    3    0    0 -0.38686217746E+01 -0.15575820823E+01 -0.22345459376E+01  0.47313309107E+01  0.51100000000E-03 0. -1.
        -11    1    3    3    0    0  0.16871483488E+01 -0.13192714007E+02 -0.67561513783E+00  0.13317305602E+02  0.51100000000E-03 0.  1.
        -12    1    3    3    0    0  0.24806712543E+02 -0.12854954912E+02 -0.16563270120E+02  0.32480221213E+02  0.00000000000E+00 0.  1.
</event>
<event>
 7    1  0.4520156E-012  0.5052886E+02  0.7816164E-02  0.1300439E+00
        -11   -1    0    0    0    0  0.00000000000E+00  0.00000000000E+00  0.45593999997E+02  0.45594000000E+02  0.51100000000E-03 0. -1.
         11   -1    0    0    0    0 -0.00000000000E+00 -0.00000000000E+00 -0.45593999997E+02  0.45594000000E+02  0.51100000000E-03 0.  1.
    9900012    2    1    2    0    0 -0.66854355520E+01 -0.70696231124E+01 -0.39477726668E+02  0.50528861761E+02  0.30000005810E+02 0.  0.
         12    1    1    2    0    0  0.66854355520E+01  0.70696231124E+01  0.39477726668E+02  0.40659138239E+02  0.00000000000E+00 0. -1.
         11    1    3    3    0    0  0.17321392972E+00 -0.35114750210E+01 -0.23813029541E+02  0.24071161917E+02  0.51100000000E-03 0. -1.
        -11    1    3    3    0    0 -0.22458036194E+01 -0.68526159454E+01 -0.18689634697E+02  0.20032584071E+02  0.51100000000E-03 0.  1.
         12    1    3    3    0    0 -0.46128458624E+01  0.32944678539E+01  0.30249375702E+01  0.64251157728E+01  0.00000000000E+00 0. -1.
</event>
<event>
 7    1  0.4520156E-012  0.5052888E+02  0.7816164E-02  0.1300439E+00
        -11   -1    0    0    0    0  0.00000000000E+00  0.00000000000E+00  0.45593999997E+02  0.45594000000E+02  0.51100000000E-03 0. -1.
         11   -1    0    0    0    0 -0.00000000000E+00 -0.00000000000E+00 -0.45593999997E+02  0.45594000000E+02  0.51100000000E-03 0.  1.
    9900012    2    1    2    0    0 -0.18987864827E+02 -0.84808465159E+00 -0.35943087216E+02  0.50528883226E+02  0.30000071053E+02 0.  0.
         12    1    1    2    0    0  0.18987864827E+02  0.84808465159E+00  0.35943087216E+02  0.40659116774E+02  0.00000000000E+00 0. -1.
         11    1    3    3    0    0 -0.76508613419E+01  0.60711719144E+01 -0.13840400392E+02  0.16939642586E+02  0.51100000000E-03 0. -1.
        -11    1    3    3    0    0 -0.19609029002E+01  0.31274266711E+01 -0.19189984951E+02  0.19541787545E+02  0.51100000000E-03 0.  1.
         12    1    3    3    0    0 -0.93761005847E+01 -0.10046683237E+02 -0.29127018733E+01  0.14047453095E+02  0.00000000000E+00 0. -1.
</event>
<event>
 7    1  0.4520156E-012  0.5052893E+02  0.7816164E-02  0.1300439E+00
        -11   -1    0    0    0    0  0.00000000000E+00  0.00000000000E+00  0.45593999997E+02  0.45594000000E+02  0.51100000000E-03 0.  1.
         11   -1    0    0    0    0 -0.00000000000E+00 -0.00000000000E+00 -0.45593999997E+02  0.45594000000E+02  0.51100000000E-03 0. -1.
    9900012    2    1    2    0    0 -0.13437987113E+02  0.34400559615E+02 -0.17005354369E+02  0.50528928728E+02  0.30000209360E+02 0.  0.
        -12    1    1    2    0    0  0.13437987113E+02 -0.34400559615E+02  0.17005354369E+02  0.40659071272E+02  0.00000000000E+00 0.  1.
         11    1    3    3    0    0 -0.17196655881E+02  0.10384664954E+02 -0.10604940197E+02  0.22716315646E+02  0.51100000000E-03 0. -1.
        -11    1    3    3    0    0 -0.12589977676E+01 -0.14945310487E+00 -0.25304070460E+01  0.28302600038E+01  0.51100000000E-03 0.  1.
        -12    1    3    3    0    0  0.50176665357E+01  0.24165347766E+02 -0.38700071264E+01  0.24982353078E+02  0.00000000000E+00 0.  1.
</event>
<event>
 7    1  0.5327767E-012  0.5052888E+02  0.7816164E-02  0.1300439E+00
        -11   -1    0    0    0    0  0.00000000000E+00  0.00000000000E+00  0.45593999997E+02  0.45594000000E+02  0.51100000000E-03 0. -1.
         11   -1    0    0    0    0 -0.00000000000E+00 -0.00000000000E+00 -0.45593999997E+02  0.45594000000E+02  0.51100000000E-03 0.  1.
    9900012    2    1    2    0    0 -0.29391504732E+02 -0.48997243733E+01  0.27663981985E+02  0.50528883573E+02  0.30000072110E+02 0.  0.
        -12    1    1    2    0    0  0.29391504732E+02  0.48997243733E+01 -0.27663981985E+02  0.40659116427E+02  0.00000000000E+00 0.  1.
         11    1    3    3    0    0 -0.73918166571E+01  0.16310055823E+01  0.17755404673E+01  0.77750676468E+01  0.51100000000E-03 0. -1.
        -11    1    3    3    0    0 -0.12997335972E+01  0.29425242590E+01 -0.40318586202E+01  0.51578717155E+01  0.51100000000E-03 0.  1.
         12    1    3    3    0    0 -0.20699954478E+02 -0.94732542146E+01  0.29920300138E+02  0.37595944211E+02  0.00000000000E+00 0. -1.
</event>
<event>
 7    1  0.4520156E-012  0.5052884E+02  0.7816164E-02  0.1300439E+00
        -11   -1    0    0    0    0  0.00000000000E+00  0.00000000000E+00  0.45593999997E+02  0.45594000000E+02  0.51100000000E-03 0. -1.
         11   -1    0    0    0    0 -0.00000000000E+00 -0.00000000000E+00 -0.45593999997E+02  0.45594000000E+02  0.51100000000E-03 0.  1.
    9900012    2    1    2    0    0  0.16660073882E+02 -0.26451754286E+02  0.25998336926E+02  0.50528844948E+02  0.29999954705E+02 0.  0.
        -12    1    1    2    0    0 -0.16660073882E+02  0.26451754286E+02 -0.25998336926E+02  0.40659155052E+02  0.00000000000E+00 0.  1.
         11    1    3    3    0    0 -0.40909598792E+01 -0.87770298815E+01  0.90071601163E+01  0.13225019467E+02  0.51100000000E-03 0.  1.
        -11    1    3    3    0    0  0.31513482595E+01 -0.31261116473E+01  0.13491257971E+02  0.14202732546E+02  0.51100000000E-03 0. -1.
         12    1    3    3    0    0  0.17599685502E+02 -0.14548612757E+02  0.34999188392E+01  0.23101092935E+02  0.00000000000E+00 0. -1.
</event>
<event>
 7    1  0.4953968E-012  0.5052886E+02  0.7816164E-02  0.1300439E+00
        -11   -1    0    0    0    0  0.00000000000E+00  0.00000000000E+00  0.45593999997E+02  0.45594000000E+02  0.51100000000E-03 0. -1.
         11   -1    0    0    0    0 -0.00000000000E+00 -0.00000000000E+00 -0.45593999997E+02  0.45594000000E+02  0.51100000000E-03 0.  1.
    9900012    2    1    2    0    0 -0.18485167451E+02 -0.92668995213E+01  0.35008412123E+02  0.50528858816E+02  0.29999996857E+02 0.  0.
        -12    1    1    2    0    0  0.18485167451E+02  0.92668995213E+01 -0.35008412123E+02  0.40659141184E+02  0.00000000000E+00 0.  1.
         11    1    3    3    0    0 -0.12780564485E+02 -0.77848203317E+01  0.13482590722E+02  0.20142653971E+02  0.51100000000E-03 0. -1.
        -11    1    3    3    0    0 -0.56282567714E+01 -0.57879348973E+01 -0.35943901678E+00  0.80812536978E+01  0.51100000000E-03 0.  1.
         12    1    3    3    0    0 -0.76346194507E-01  0.43058557077E+01  0.21885260418E+02  0.22304951148E+02  0.00000000000E+00 0. -1.
</event>
<event>
 7    1  0.4520156E-012  0.5052886E+02  0.7816164E-02  0.1300439E+00
        -11   -1    0    0    0    0  0.00000000000E+00  0.00000000000E+00  0.45593999997E+02  0.45594000000E+02  0.51100000000E-03 0. -1.
         11   -1    0    0    0    0 -0.00000000000E+00 -0.00000000000E+00 -0.45593999997E+02  0.45594000000E+02  0.51100000000E-03 0.  1.
    9900012    2    1    2    0    0 -0.11645246079E+02 -0.22956448362E+02 -0.31473088230E+02  0.50528861293E+02  0.30000004386E+02 0.  0.
         12    1    1    2    0    0  0.11645246079E+02  0.22956448362E+02  0.31473088230E+02  0.40659138707E+02  0.00000000000E+00 0. -1.
         11    1    3    3    0    0 -0.16737919969E+01 -0.20631870951E+01  0.99264419677E+00  0.28361352931E+01  0.51100000000E-03 0. -1.
        -11    1    3    3    0    0  0.63034423928E+00  0.58931550029E+01 -0.75965762562E+01  0.96350703591E+01  0.51100000000E-03 0.  1.
        -12    1    3    3    0    0 -0.10601798322E+02 -0.26786416270E+02 -0.24869156171E+02  0.38057655641E+02  0.00000000000E+00 0.  1.
</event>
<event>
 7    1  0.4520156E-012  0.5052886E+02  0.7816164E-02  0.1300439E+00
        -11   -1    0    0    0    0  0.00000000000E+00  0.00000000000E+00  0.45593999997E+02  0.45594000000E+02  0.51100000000E-03 0. -1.
         11   -1    0    0    0    0 -0.00000000000E+00 -0.00000000000E+00 -0.45593999997E+02  0.45594000000E+02  0.51100000000E-03 0.  1.
    9900012    2    1    2    0    0 -0.19759601592E+02  0.10842994441E+02  0.33840114225E+02  0.50528859401E+02  0.29999998634E+02 0.  0.
        -12    1    1    2    0    0  0.19759601592E+02 -0.10842994441E+02 -0.33840114225E+02  0.40659140599E+02  0.00000000000E+00 0.  1.
         11    1    3    3    0    0 -0.83488197216E+01  0.70463006472E+01 -0.70153350640E+00  0.10947387500E+02  0.51100000000E-03 0. -1.
        -11    1    3    3    0    0 -0.36485724536E+01  0.20023403991E+01  0.29815017836E-01  0.41620111989E+01  0.51100000000E-03 0.  1.
         12    1    3    3    0    0 -0.77622094168E+01  0.17943533946E+01  0.34511832714E+02  0.35419460702E+02  0.00000000000E+00 0. -1.
</event>
<event>
 7    1  0.4520156E-012  0.5052886E+02  0.7816164E-02  0.1300439E+00
        -11   -1    0    0    0    0  0.00000000000E+00  0.00000000000E+00  0.45593999997E+02  0.45594000000E+02  0.51100000000E-03 0.  1.
         11   -1    0    0    0    0 -0.00000000000E+00 -0.00000000000E+00 -0.45593999997E+02  0.45594000000E+02  0.51100000000E-03 0. -1.
    9900012    2    1    2    0    0  0.40019690786E+02  0.54723436570E+01  0.46522717937E+01  0.50528857995E+02  0.29999994363E+02 0.  0.
        -12    1    1    2    0    0 -0.40019690786E+02 -0.54723436570E+01 -0.46522717937E+01  0.40659142005E+02  0.00000000000E+00 0.  1.
         11    1    3    3    0    0  0.41137920114E+02  0.44722133007E+01  0.49927136477E+01  0.41680407303E+02  0.51100000000E-03 0. -1.
        -11    1    3    3    0    0  0.14077977799E+01  0.43308288231E+01  0.51070393128E+00  0.45824438513E+01  0.51100000000E-03 0.  1.
        -12    1    3    3    0    0 -0.25260271076E+01 -0.33306984668E+01 -0.85114578529E+00  0.42660068416E+01  0.00000000000E+00 0.  1.
</event>
<event>
 7    1  0.4520156E-012  0.5052885E+02  0.7816164E-02  0.1300439E+00
        -11   -1    0    0    0    0  0.00000000000E+00  0.00000000000E+00  0.45593999997E+02  0.45594000000E+02  0.51100000000E-03 0. -1.
         11   -1    0    0    0    0 -0.00000000000E+00 -0.00000000000E+00 -0.45593999997E+02  0.45594000000E+02  0.51100000000E-03 0.  1.
    9900012    2    1    2    0    0 -0.10149149501E+02 -0.33059587109E+02  0.21382810218E+02  0.50528854557E+02  0.29999983911E+02 0.  0.
        -12    1    1    2    0    0  0.10149149501E+02  0.33059587109E+02 -0.21382810218E+02  0.40659145443E+02  0.00000000000E+00 0.  1.
         11    1    3    3    0    0 -0.65009296842E+01 -0.32304063674E+01 -0.50076784027E+00  0.72765638009E+01  0.51100000000E-03 0. -1.
        -11    1    3    3    0    0  0.18443265184E+00 -0.10614929879E+02 -0.35073357160E+01  0.11180883500E+02  0.51100000000E-03 0.  1.
        -12    1    3    3    0    0 -0.38326524681E+01 -0.19214250862E+02  0.25390913774E+02  0.32071407256E+02  0.00000000000E+00 0.  1.
</event>
<event>
 7    1  0.4520156E-012  0.5052887E+02  0.7816164E-02  0.1300439E+00
        -11   -1    0    0    0    0  0.00000000000E+00  0.00000000000E+00  0.45593999997E+02  0.45594000000E+02  0.51100000000E-03 0. -1.
         11   -1    0    0    0    0 -0.00000000000E+00 -0.00000000000E+00 -0.45593999997E+02  0.45594000000E+02  0.51100000000E-03 0.  1.
    9900012    2    1    2    0    0  0.30710378698E+02 -0.84359941476E+01  0.25275912811E+02  0.50528866641E+02  0.30000020643E+02 0.  0.
        -12    1    1    2    0    0 -0.30710378698E+02  0.84359941476E+01 -0.25275912811E+02  0.40659133359E+02  0.00000000000E+00 0.  1.
         11    1    3    3    0    0  0.96862803512E+01 -0.48943090430E+01  0.79706285039E+01  0.13465110733E+02  0.51100000000E-03 0. -1.
        -11    1    3    3    0    0  0.23341428948E+02 -0.57747975790E+01  0.52836877986E+01  0.24618853536E+02  0.51100000000E-03 0.  1.
        -12    1    3    3    0    0 -0.23173306010E+01  0.22331124744E+01  0.12021596509E+02  0.12444902373E+02  0.00000000000E+00 0.  1.
</event>
<event>
 7    1  0.4520156E-012  0.5052886E+02  0.7816164E-02  0.1300439E+00
        -11   -1    0    0    0    0  0.00000000000E+00  0.00000000000E+00  0.45593999997E+02  0.45594000000E+02  0.51100000000E-03 0.  1.
         11   -1    0    0    0    0 -0.00000000000E+00 -0.00000000000E+00 -0.45593999997E+02  0.45594000000E+02  0.51100000000E-03 0. -1.
    9900012    2    1    2    0    0 -0.31402095307E+02  0.22955659741E+02  0.11836892774E+02  0.50528856694E+02  0.29999990408E+02 0.  0.
        -12    1    1    2    0    0  0.31402095307E+02 -0.22955659741E+02 -0.11836892774E+02  0.40659143306E+02  0.00000000000E+00 0.  1.
         11    1    3    3    0    0 -0.10462351038E+02  0.13532018321E+01 -0.27283806714E+01  0.10896605242E+02  0.51100000000E-03 0. -1.
        -11    1    3    3    0    0 -0.61545983795E+01  0.19313905660E+02  0.25241044224E+01  0.20427362445E+02  0.51100000000E-03 0.  1.
         12    1    3    3    0    0 -0.14785145889E+02  0.22885522487E+01  0.12041169023E+02  0.19204889008E+02  0.00000000000E+00 0. -1.
</event>
<event>
 7    1  0.4520156E-012  0.5052886E+02  0.7816164E-02  0.1300439E+00
        -11   -1    0    0    0    0  0.00000000000E+00  0.00000000000E+00  0.45593999997E+02  0.45594000000E+02  0.51100000000E-03 0. -1.
         11   -1    0    0    0    0 -0.00000000000E+00 -0.00000000000E+00 -0.45593999997E+02  0.45594000000E+02  0.51100000000E-03 0.  1.
    9900012    2    1    2    0    0  0.93108731791E+01 -0.28719765859E+02  0.27233228489E+02  0.50528855343E+02  0.29999986300E+02 0.  0.
        -12    1    1    2    0    0 -0.93108731791E+01  0.28719765859E+02 -0.27233228489E+02  0.40659144657E+02  0.00000000000E+00 0.  1.
         11    1    3    3    0    0  0.75325869927E+01 -0.41738798979E+00  0.67785338922E+01  0.10142120169E+02  0.51100000000E-03 0. -1.
        -11    1    3    3    0    0 -0.90503157899E+01 -0.14255444846E+02  0.78087380863E+01  0.18603825263E+02  0.51100000000E-03 0.  1.
         12    1    3    3    0    0  0.10828601976E+02 -0.14046933023E+02  0.12645956510E+02  0.21782909911E+02  0.00000000000E+00 0. -1.
</event>
<event>
 7    1  0.4520156E-012  0.5052891E+02  0.7816164E-02  0.1300439E+00
        -11   -1    0    0    0    0  0.00000000000E+00  0.00000000000E+00  0.45593999997E+02  0.45594000000E+02  0.51100000000E-03 0.  1.
         11   -1    0    0    0    0 -0.00000000000E+00 -0.00000000000E+00 -0.45593999997E+02  0.45594000000E+02  0.51100000000E-03 0. -1.
    9900012    2    1    2    0    0  0.35993894563E+02  0.18373466154E+02  0.44740342317E+01  0.50528908930E+02  0.30000149185E+02 0.  0.
        -12    1    1    2    0    0 -0.35993894563E+02 -0.18373466154E+02 -0.44740342317E+01  0.40659091070E+02  0.00000000000E+00 0.  1.
         11    1    3    3    0    0  0.25242755924E+01  0.37467846532E+01  0.17742886864E+01  0.48537061208E+01  0.51100000000E-03 0. -1.
        -11    1    3    3    0    0  0.21323581738E+02  0.22199658640E+02  0.49773492157E+01  0.31181629004E+02  0.51100000000E-03 0.  1.
         12    1    3    3    0    0  0.12146037232E+02 -0.75729771385E+01 -0.22776036704E+01  0.14493573806E+02  0.00000000000E+00 0. -1.
</event>
<event>
 7    1  0.4520156E-012  0.5052887E+02  0.7816164E-02  0.1300439E+00
        -11   -1    0    0    0    0  0.00000000000E+00  0.00000000000E+00  0.45593999997E+02  0.45594000000E+02  0.51100000000E-03 0. -1.
         11   -1    0    0    0    0 -0.00000000000E+00 -0.00000000000E+00 -0.45593999997E+02  0.45594000000E+02  0.51100000000E-03 0.  1.
    9900012    2    1    2    0    0 -0.61689937302E+01  0.33395973407E+02  0.22356595381E+02  0.50528869655E+02  0.30000029803E+02 0.  0.
        -12    1    1    2    0    0  0.61689937302E+01 -0.33395973407E+02 -0.22356595381E+02  0.40659130345E+02  0.00000000000E+00 0.  1.
         11    1    3    3    0    0 -0.50214428492E+01  0.41914298323E+01  0.88180613475E+01  0.10979124670E+02  0.51100000000E-03 0. -1.
        -11    1    3    3    0    0 -0.56206819195E+01  0.20704721451E+01  0.10225319674E+02  0.11850573102E+02  0.51100000000E-03 0.  1.
        -12    1    3    3    0    0  0.44731310386E+01  0.27134071429E+02  0.33132143589E+01  0.27699171883E+02  0.00000000000E+00 0.  1.
</event>
<event>
 7    1  0.4520156E-012  0.5052889E+02  0.7816164E-02  0.1300439E+00
        -11   -1    0    0    0    0  0.00000000000E+00  0.00000000000E+00  0.45593999997E+02  0.45594000000E+02  0.51100000000E-03 0.  1.
         11   -1    0    0    0    0 -0.00000000000E+00 -0.00000000000E+00 -0.45593999997E+02  0.45594000000E+02  0.51100000000E-03 0. -1.
    9900012    2    1    2    0    0  0.83536119734E+01 -0.39284763108E+02  0.63314779330E+01  0.50528892062E+02  0.30000097912E+02 0.  0.
         12    1    1    2    0    0 -0.83536119734E+01  0.39284763108E+02 -0.63314779330E+01  0.40659107938E+02  0.00000000000E+00 0. -1.
         11    1    3    3    0    0  0.80140967535E+01 -0.13258257606E+02  0.11009051333E+02  0.19005429568E+02  0.51100000000E-03 0. -1.
        -11    1    3    3    0    0  0.69074624319E+01 -0.17718668221E+02  0.18107149872E+01  0.19103479521E+02  0.51100000000E-03 0.  1.
         12    1    3    3    0    0 -0.65679472120E+01 -0.83078372808E+01 -0.64882883876E+01  0.12419982974E+02  0.00000000000E+00 0. -1.
</event>
<event>
 7    1  0.4520156E-012  0.5052886E+02  0.7816164E-02  0.1300439E+00
        -11   -1    0    0    0    0  0.00000000000E+00  0.00000000000E+00  0.45593999997E+02  0.45594000000E+02  0.51100000000E-03 0.  1.
         11   -1    0    0    0    0 -0.00000000000E+00 -0.00000000000E+00 -0.45593999997E+02  0.45594000000E+02  0.51100000000E-03 0. -1.
    9900012    2    1    2    0    0  0.82399098573E+01  0.27944552514E+02 -0.28361442836E+02  0.50528861182E+02  0.30000004050E+02 0.  0.
         12    1    1    2    0    0 -0.82399098573E+01 -0.27944552514E+02  0.28361442836E+02  0.40659138818E+02  0.00000000000E+00 0. -1.
         11    1    3    3    0    0  0.10613195143E+01 -0.13593802691E+01 -0.12457528996E+02  0.12576340596E+02  0.51100000000E-03 0. -1.
        -11    1    3    3    0    0  0.19169272118E+01  0.10725958793E+01 -0.78146186505E+01  0.81174710822E+01  0.51100000000E-03 0.  1.
        -12    1    3    3    0    0  0.52616631312E+01  0.28231336904E+02 -0.80892951893E+01  0.29835049504E+02  0.00000000000E+00 0.  1.
</event>
<event>
 7    1  0.4520156E-012  0.5052885E+02  0.7816164E-02  0.1300439E+00
        -11   -1    0    0    0    0  0.00000000000E+00  0.00000000000E+00  0.45593999997E+02  0.45594000000E+02  0.51100000000E-03 0. -1.
         11   -1    0    0    0    0 -0.00000000000E+00 -0.00000000000E+00 -0.45593999997E+02  0.45594000000E+02  0.51100000000E-03 0.  1.
    9900012    2    1    2    0    0 -0.47548229306E+01 -0.20155063739E+02  0.34990448156E+02  0.50528850997E+02  0.29999973092E+02 0.  0.
        -12    1    1    2    0    0  0.47548229306E+01  0.20155063739E+02 -0.34990448156E+02  0.40659149003E+02  0.00000000000E+00 0.  1.
         11    1    3    3    0    0 -0.98119145482E+01 -0.13528012717E+02  0.11997015957E+02  0.20572048690E+02  0.51100000000E-03 0. -1.
        -11    1    3    3    0    0 -0.17750747243E+01  0.52208602299E+01  0.70677562509E+01  0.89644548357E+01  0.51100000000E-03 0.  1.
        -12    1    3    3    0    0  0.68321663419E+01 -0.11847911252E+02  0.15925675948E+02  0.20992347471E+02  0.00000000000E+00 0.  1.
</event>
<event>
 7    1  0.4520156E-012  0.5052886E+02  0.7816164E-02  0.1300439E+00
        -11   -1    0    0    0    0  0.00000000000E+00  0.00000000000E+00  0.45593999997E+02  0.45594000000E+02  0.51100000000E-03 0. -1.
         11   -1    0    0    0    0 -0.00000000000E+00 -0.00000000000E+00 -0.45593999997E+02  0.45594000000E+02  0.51100000000E-03 0.  1.
    9900012    2    1    2    0    0  0.17279526298E+02 -0.36777387240E+02  0.14169190447E+01  0.50528857106E+02  0.29999991659E+02 0.  0.
         12    1    1    2    0    0 -0.17279526298E+02  0.36777387240E+02 -0.14169190447E+01  0.40659142894E+02  0.00000000000E+00 0. -1.
         11    1    3    3    0    0  0.33484621224E+01 -0.73037910007E+01 -0.49436697833E+01  0.94338450674E+01  0.51100000000E-03 0. -1.
        -11    1    3    3    0    0 -0.41570110883E+01 -0.79690718531E+01 -0.55622068439E+01  0.10570004381E+02  0.51100000000E-03 0.  1.
         12    1    3    3    0    0  0.18088075264E+02 -0.21504524387E+02  0.11922795672E+02  0.30525007657E+02  0.00000000000E+00 0. -1.
</event>
<event>
 7    1  0.4520156E-012  0.5052886E+02  0.7816164E-02  0.1300439E+00
        -11   -1    0    0    0    0  0.00000000000E+00  0.00000000000E+00  0.45593999997E+02  0.45594000000E+02  0.51100000000E-03 0. -1.
         11   -1    0    0    0    0 -0.00000000000E+00 -0.00000000000E+00 -0.45593999997E+02  0.45594000000E+02  0.51100000000E-03 0.  1.
    9900012    2    1    2    0    0  0.26348621415E+02 -0.44206844535E+01  0.30649202329E+02  0.50528857056E+02  0.29999991507E+02 0.  0.
        -12    1    1    2    0    0 -0.26348621415E+02  0.44206844535E+01 -0.30649202329E+02  0.40659142944E+02  0.00000000000E+00 0.  1.
         11    1    3    3    0    0  0.95667640229E+01  0.74735822037E+01  0.24171653580E+02  0.27048960089E+02  0.51100000000E-03 0. -1.
        -11    1    3    3    0    0  0.67908669499E+01 -0.39834618684E+00  0.44160808865E+01  0.81102604319E+01  0.51100000000E-03 0.  1.
        -12    1    3    3    0    0  0.99909904425E+01 -0.11495920470E+02  0.20614678630E+01  0.15369636535E+02  0.00000000000E+00 0.  1.
</event>
<event>
 7    1  0.4520156E-012  0.5052885E+02  0.7816164E-02  0.1300439E+00
        -11   -1    0    0    0    0  0.00000000000E+00  0.00000000000E+00  0.45593999997E+02  0.45594000000E+02  0.51100000000E-03 0. -1.
         11   -1    0    0    0    0 -0.00000000000E+00 -0.00000000000E+00 -0.45593999997E+02  0.45594000000E+02  0.51100000000E-03 0.  1.
    9900012    2    1    2    0    0  0.20878810533E+02  0.22352387794E+02  0.26788287370E+02  0.50528852080E+02  0.29999976382E+02 0.  0.
        -12    1    1    2    0    0 -0.20878810533E+02 -0.22352387794E+02 -0.26788287370E+02  0.40659147920E+02  0.00000000000E+00 0.  1.
         11    1    3    3    0    0  0.21630797296E+02  0.76519808657E+01  0.20352870710E+02  0.30670564867E+02  0.51100000000E-03 0. -1.
        -11    1    3    3    0    0  0.51937254378E+01  0.57703352636E+01  0.44479428295E+01  0.89473878117E+01  0.51100000000E-03 0.  1.
        -12    1    3    3    0    0 -0.59457122017E+01  0.89300716645E+01  0.19874738308E+01  0.10910899401E+02  0.00000000000E+00 0.  1.
</event>
<event>
 7    1  0.4520156E-012  0.5052873E+02  0.7816164E-02  0.1300439E+00
        -11   -1    0    0    0    0  0.00000000000E+00  0.00000000000E+00  0.45593999997E+02  0.45594000000E+02  0.51100000000E-03 0. -1.
         11   -1    0    0    0    0 -0.00000000000E+00 -0.00000000000E+00 -0.45593999997E+02  0.45594000000E+02  0.51100000000E-03 0.  1.
    9900012    2    1    2    0    0  0.32795953672E+02  0.11436724645E+02  0.21137721015E+02  0.50528726794E+02  0.29999595562E+02 0.  0.
        -12    1    1    2    0    0 -0.32795953672E+02 -0.11436724645E+02 -0.21137721015E+02  0.40659273206E+02  0.00000000000E+00 0.  1.
         11    1    3    3    0    0  0.33846022087E+01  0.36218623426E+01  0.13454976888E+02  0.14339101166E+02  0.51100000000E-03 0. -1.
        -11    1    3    3    0    0  0.27797614532E+02  0.10364478639E+02  0.11059291377E+02  0.31661296833E+02  0.51100000000E-03 0.  1.
        -12    1    3    3    0    0  0.16137369321E+01 -0.25496163362E+01 -0.33765472503E+01  0.45283287956E+01  0.00000000000E+00 0.  1.
</event>
<event>
 7    1  0.4520156E-012  0.5052885E+02  0.7816164E-02  0.1300439E+00
        -11   -1    0    0    0    0  0.00000000000E+00  0.00000000000E+00  0.45593999997E+02  0.45594000000E+02  0.51100000000E-03 0. -1.
         11   -1    0    0    0    0 -0.00000000000E+00 -0.00000000000E+00 -0.45593999997E+02  0.45594000000E+02  0.51100000000E-03 0.  1.
    9900012    2    1    2    0    0  0.11080834090E+02  0.10477643444E+02 -0.37690851607E+02  0.50528853537E+02  0.29999980810E+02 0.  0.
         12    1    1    2    0    0 -0.11080834090E+02 -0.10477643444E+02  0.37690851607E+02  0.40659146463E+02  0.00000000000E+00 0. -1.
         11    1    3    3    0    0  0.23464717211E+01  0.12066934324E+00 -0.67894968188E+01  0.71845499471E+01  0.51100000000E-03 0.  1.
        -11    1    3    3    0    0  0.12103080060E+02 -0.55446006814E+01 -0.89969757115E+01  0.16067753915E+02  0.51100000000E-03 0. -1.
         12    1    3    3    0    0 -0.33687176911E+01  0.15901574782E+02 -0.21904379077E+02  0.27276549675E+02  0.00000000000E+00 0. -1.
</event>
<event>
 7    1  0.4520156E-012  0.5052884E+02  0.7816164E-02  0.1300439E+00
        -11   -1    0    0    0    0  0.00000000000E+00  0.00000000000E+00  0.45593999997E+02  0.45594000000E+02  0.51100000000E-03 0. -1.
         11   -1    0    0    0    0 -0.00000000000E+00 -0.00000000000E+00 -0.45593999997E+02  0.45594000000E+02  0.51100000000E-03 0.  1.
    9900012    2    1    2    0    0  0.39694495026E+01 -0.23215574138E+02 -0.33142837792E+02  0.50528842252E+02  0.29999946508E+02 0.  0.
         12    1    1    2    0    0 -0.39694495026E+01  0.23215574138E+02  0.33142837792E+02  0.40659157748E+02  0.00000000000E+00 0. -1.
         11    1    3    3    0    0  0.10413025697E+01  0.11612005269E+01  0.13326065839E+01  0.20514722211E+01  0.51100000000E-03 0. -1.
        -11    1    3    3    0    0 -0.10168295052E+02 -0.12934939124E+02 -0.13914296119E+02  0.21547958399E+02  0.51100000000E-03 0.  1.
        -12    1    3    3    0    0  0.13096441985E+02 -0.11441835540E+02 -0.20561148257E+02  0.26929411631E+02  0.00000000000E+00 0.  1.
</event>
<event>
 7    1  0.4520156E-012  0.5052887E+02  0.7816164E-02  0.1300439E+00
        -11   -1    0    0    0    0  0.00000000000E+00  0.00000000000E+00  0.45593999997E+02  0.45594000000E+02  0.51100000000E-03 0. -1.
         11   -1    0    0    0    0 -0.00000000000E+00 -0.00000000000E+00 -0.45593999997E+02  0.45594000000E+02  0.51100000000E-03 0.  1.
    9900012    2    1    2    0    0  0.30449298413E+02 -0.77577001472E+01  0.25803557082E+02  0.50528865189E+02  0.30000016230E+02 0.  0.
        -12    1    1    2    0    0 -0.30449298413E+02  0.77577001472E+01 -0.25803557082E+02  0.40659134811E+02  0.00000000000E+00 0.  1.
         11    1    3    3    0    0  0.18201538499E+02 -0.87131367965E+01  0.23839796840E+02  0.31233806527E+02  0.51100000000E-03 0. -1.
        -11    1    3    3    0    0  0.84564409752E+01 -0.52478620141E+01  0.53227906522E+01  0.11286432132E+02  0.51100000000E-03 0.  1.
         12    1    3    3    0    0  0.37913189392E+01  0.62032986634E+01 -0.33590304095E+01  0.80086265301E+01  0.00000000000E+00 0. -1.
</event>
<event>
 7    1  0.4520156E-012  0.5052887E+02  0.7816164E-02  0.1300439E+00
        -11   -1    0    0    0    0  0.00000000000E+00  0.00000000000E+00  0.45593999997E+02  0.45594000000E+02  0.51100000000E-03 0. -1.
         11   -1    0    0    0    0 -0.00000000000E+00 -0.00000000000E+00 -0.45593999997E+02  0.45594000000E+02  0.51100000000E-03 0.  1.
    9900012    2    1    2    0    0  0.81010745379E+01 -0.24334622538E+02 -0.31549389028E+02  0.50528865592E+02  0.30000017454E+02 0.  0.
         12    1    1    2    0    0 -0.81010745379E+01  0.24334622538E+02  0.31549389028E+02  0.40659134408E+02  0.00000000000E+00 0. -1.
         11    1    3    3    0    0  0.71371733052E+01 -0.26796534026E+02 -0.22973634530E+02  0.36010850620E+02  0.51100000000E-03 0. -1.
        -11    1    3    3    0    0 -0.35236147372E+01 -0.18381135736E+01 -0.70897792008E+01  0.81276990411E+01  0.51100000000E-03 0.  1.
        -12    1    3    3    0    0  0.44875159700E+01  0.43000250619E+01 -0.14859752972E+01  0.63903159309E+01  0.00000000000E+00 0.  1.
</event>
<event>
 7    1  0.4520156E-012  0.5052886E+02  0.7816164E-02  0.1300439E+00
        -11   -1    0    0    0    0  0.00000000000E+00  0.00000000000E+00  0.45593999997E+02  0.45594000000E+02  0.51100000000E-03 0. -1.
         11   -1    0    0    0    0 -0.00000000000E+00 -0.00000000000E+00 -0.45593999997E+02  0.45594000000E+02  0.51100000000E-03 0.  1.
    9900012    2    1    2    0    0 -0.27181946700E+01  0.34710396106E+02  0.20999182531E+02  0.50528857768E+02  0.29999993671E+02 0.  0.
        -12    1    1    2    0    0  0.27181946700E+01 -0.34710396106E+02 -0.20999182531E+02  0.40659142232E+02  0.00000000000E+00 0.  1.
         11    1    3    3    0    0  0.91841556750E+01  0.44266096620E+01  0.82049941693E+01  0.13086845233E+02  0.51100000000E-03 0. -1.
        -11    1    3    3    0    0  0.15884580150E+01  0.31323499934E+01 -0.16246016435E+01  0.38696441836E+01  0.51100000000E-03 0.  1.
         12    1    3    3    0    0 -0.13490808360E+02  0.27151436451E+02  0.14418790005E+02  0.33572368352E+02  0.00000000000E+00 0. -1.
</event>
<event>
 7    1  0.4520156E-012  0.5052886E+02  0.7816164E-02  0.1300439E+00
        -11   -1    0    0    0    0  0.00000000000E+00  0.00000000000E+00  0.45593999997E+02  0.45594000000E+02  0.51100000000E-03 0. -1.
         11   -1    0    0    0    0 -0.00000000000E+00 -0.00000000000E+00 -0.45593999997E+02  0.45594000000E+02  0.51100000000E-03 0.  1.
    9900012    2    1    2    0    0 -0.14741465477E+01  0.71311814666E+01 -0.40001731215E+02  0.50528863790E+02  0.30000011976E+02 0.  0.
         12    1    1    2    0    0  0.14741465477E+01 -0.71311814666E+01  0.40001731215E+02  0.40659136210E+02  0.00000000000E+00 0. -1.
         11    1    3    3    0    0  0.30936371315E+00 -0.31539112804E+01 -0.17044999528E+02  0.17337095243E+02  0.51100000000E-03 0.  1.
        -11    1    3    3    0    0 -0.50144721255E+01 -0.25488865770E+01 -0.18327124900E+02  0.19170948355E+02  0.51100000000E-03 0. -1.
        -12    1    3    3    0    0  0.32309618647E+01  0.12833979324E+02 -0.46296067864E+01  0.14020820192E+02  0.00000000000E+00 0.  1.
</event>
<event>
 7    1  0.4520156E-012  0.5052889E+02  0.7816164E-02  0.1300439E+00
        -11   -1    0    0    0    0  0.00000000000E+00  0.00000000000E+00  0.45593999997E+02  0.45594000000E+02  0.51100000000E-03 0. -1.
         11   -1    0    0    0    0 -0.00000000000E+00 -0.00000000000E+00 -0.45593999997E+02  0.45594000000E+02  0.51100000000E-03 0.  1.
    9900012    2    1    2    0    0  0.48346906480E+01  0.35430715969E+02 -0.19350802467E+02  0.50528887566E+02  0.30000084247E+02 0.  0.
         12    1    1    2    0    0 -0.48346906480E+01 -0.35430715969E+02  0.19350802467E+02  0.40659112434E+02  0.00000000000E+00 0. -1.
         11    1    3    3    0    0  0.83166878137E+01  0.76507731542E+01 -0.41516098289E+01  0.12038998732E+02  0.51100000000E-03 0.  1.
        -11    1    3    3    0    0  0.62433437678E+01  0.24053145016E+02 -0.11991228755E+02  0.27592076651E+02  0.51100000000E-03 0. -1.
        -12    1    3    3    0    0 -0.97253409335E+01  0.37267977990E+01 -0.32079638833E+01  0.10897812183E+02  0.00000000000E+00 0.  1.
</event>
<event>
 7    1  0.4520156E-012  0.5052887E+02  0.7816164E-02  0.1300439E+00
        -11   -1    0    0    0    0  0.00000000000E+00  0.00000000000E+00  0.45593999997E+02  0.45594000000E+02  0.51100000000E-03 0. -1.
         11   -1    0    0    0    0 -0.00000000000E+00 -0.00000000000E+00 -0.45593999997E+02  0.45594000000E+02  0.51100000000E-03 0.  1.
    9900012    2    1    2    0    0  0.23719661189E+02 -0.22051430038E+02  0.24582048525E+02  0.50528868143E+02  0.30000025207E+02 0.  0.
        -12    1    1    2    0    0 -0.23719661189E+02  0.22051430038E+02 -0.24582048525E+02  0.40659131857E+02  0.00000000000E+00 0.  1.
         11    1    3    3    0    0  0.19791917529E+01 -0.31123933229E+01 -0.52301813958E+01  0.63999210843E+01  0.51100000000E-03 0. -1.
        -11    1    3    3    0    0  0.12818314968E+02 -0.26683020099E+01  0.74284191978E+01  0.15053585827E+02  0.51100000000E-03 0.  1.
         12    1    3    3    0    0  0.89221544683E+01 -0.16270734706E+02  0.22383810723E+02  0.29075361231E+02  0.00000000000E+00 0. -1.
</event>
<event>
 7    1  0.4520156E-012  0.5052886E+02  0.7816164E-02  0.1300439E+00
        -11   -1    0    0    0    0  0.00000000000E+00  0.00000000000E+00  0.45593999997E+02  0.45594000000E+02  0.51100000000E-03 0. -1.
         11   -1    0    0    0    0 -0.00000000000E+00 -0.00000000000E+00 -0.45593999997E+02  0.45594000000E+02  0.51100000000E-03 0.  1.
    9900012    2    1    2    0    0 -0.14318800964E+02  0.31145208648E+01 -0.37926737529E+02  0.50528859320E+02  0.29999998388E+02 0.  0.
         12    1    1    2    0    0  0.14318800964E+02 -0.31145208648E+01  0.37926737529E+02  0.40659140680E+02  0.00000000000E+00 0. -1.
         11    1    3    3    0    0 -0.66623510483E+01  0.54965094700E+01 -0.24453054056E+02  0.25933576514E+02  0.51100000000E-03 0.  1.
        -11    1    3    3    0    0 -0.11344572848E+02 -0.77087393685E+01 -0.11269174611E+02  0.17751571549E+02  0.51100000000E-03 0. -1.
        -12    1    3    3    0    0  0.36881229319E+01  0.53267507634E+01 -0.22045088610E+01  0.68437112574E+01  0.00000000000E+00 0.  1.
</event>
<event>
 7    1  0.4520156E-012  0.5052886E+02  0.7816164E-02  0.1300439E+00
        -11   -1    0    0    0    0  0.00000000000E+00  0.00000000000E+00  0.45593999997E+02  0.45594000000E+02  0.51100000000E-03 0. -1.
         11   -1    0    0    0    0 -0.00000000000E+00 -0.00000000000E+00 -0.45593999997E+02  0.45594000000E+02  0.51100000000E-03 0.  1.
    9900012    2    1    2    0    0 -0.34639417409E+02 -0.48794897699E+01  0.20723580013E+02  0.50528862928E+02  0.30000009357E+02 0.  0.
        -12    1    1    2    0    0  0.34639417409E+02  0.48794897699E+01 -0.20723580013E+02  0.40659137072E+02  0.00000000000E+00 0.  1.
         11    1    3    3    0    0 -0.10357499076E+02 -0.72111406787E+01  0.27652578803E+01  0.12919945372E+02  0.51100000000E-03 0. -1.
        -11    1    3    3    0    0 -0.76609388760E+01 -0.34543614782E+01 -0.41323382294E+01  0.93647646626E+01  0.51100000000E-03 0.  1.
        -12    1    3    3    0    0 -0.16620979457E+02  0.57860123870E+01  0.22090660362E+02  0.28244152894E+02  0.00000000000E+00 0.  1.
</event>
<event>
 7    1  0.4520156E-012  0.5052885E+02  0.7816164E-02  0.1300439E+00
        -11   -1    0    0    0    0  0.00000000000E+00  0.00000000000E+00  0.45593999997E+02  0.45594000000E+02  0.51100000000E-03 0. -1.
         11   -1    0    0    0    0 -0.00000000000E+00 -0.00000000000E+00 -0.45593999997E+02  0.45594000000E+02  0.51100000000E-03 0.  1.
    9900012    2    1    2    0    0  0.20022980009E+02 -0.74086426466E+01 -0.34602869365E+02  0.50528852412E+02  0.29999977392E+02 0.  0.
         12    1    1    2    0    0 -0.20022980009E+02  0.74086426466E+01  0.34602869365E+02  0.40659147588E+02  0.00000000000E+00 0. -1.
         11    1    3    3    0    0 -0.12664256228E+01 -0.12089751780E+02 -0.12005241999E+02  0.17084840288E+02  0.51100000000E-03 0. -1.
        -11    1    3    3    0    0  0.62006803158E+01  0.30142296094E+01 -0.88526771624E+00  0.69510945690E+01  0.51100000000E-03 0.  1.
        -12    1    3    3    0    0  0.15088725316E+02  0.16668795243E+01 -0.21712359650E+02  0.26492917555E+02  0.00000000000E+00 0.  1.
</event>
<event>
 7    1  0.4520156E-012  0.5052885E+02  0.7816164E-02  0.1300439E+00
        -11   -1    0    0    0    0  0.00000000000E+00  0.00000000000E+00  0.45593999997E+02  0.45594000000E+02  0.51100000000E-03 0. -1.
         11   -1    0    0    0    0 -0.00000000000E+00 -0.00000000000E+00 -0.45593999997E+02  0.45594000000E+02  0.51100000000E-03 0.  1.
    9900012    2    1    2    0    0 -0.68999380367E+01 -0.18206718645E+00 -0.40068993476E+02  0.50528849350E+02  0.29999968086E+02 0.  0.
         12    1    1    2    0    0  0.68999380367E+01  0.18206718645E+00  0.40068993476E+02  0.40659150650E+02  0.00000000000E+00 0. -1.
         11    1    3    3    0    0 -0.18591650407E+01 -0.66627114679E+01 -0.59689195046E+01  0.91365321138E+01  0.51100000000E-03 0. -1.
        -11    1    3    3    0    0 -0.35506146494E+01 -0.80777841271E+01 -0.13231508382E+02  0.15903781786E+02  0.51100000000E-03 0.  1.
         12    1    3    3    0    0 -0.14901583466E+01  0.14558428409E+02 -0.20868565590E+02  0.25488535450E+02  0.00000000000E+00 0. -1.
</event>
<event>
 7    1  0.4520156E-012  0.5052886E+02  0.7816164E-02  0.1300439E+00
        -11   -1    0    0    0    0  0.00000000000E+00  0.00000000000E+00  0.45593999997E+02  0.45594000000E+02  0.51100000000E-03 0.  1.
         11   -1    0    0    0    0 -0.00000000000E+00 -0.00000000000E+00 -0.45593999997E+02  0.45594000000E+02  0.51100000000E-03 0. -1.
    9900012    2    1    2    0    0  0.14086650072E+02 -0.29952428643E+02  0.23613222371E+02  0.50528856347E+02  0.29999989352E+02 0.  0.
        -12    1    1    2    0    0 -0.14086650072E+02  0.29952428643E+02 -0.23613222371E+02  0.40659143653E+02  0.00000000000E+00 0.  1.
         11    1    3    3    0    0  0.10103702233E+02 -0.41120002824E+01  0.47296220103E+01  0.11889603432E+02  0.51100000000E-03 0. -1.
        -11    1    3    3    0    0  0.63271765635E+01  0.10676049414E+01  0.57037356751E+01  0.85851933285E+01  0.51100000000E-03 0.  1.
        -12    1    3    3    0    0 -0.23442287254E+01 -0.26908033302E+02  0.13179864685E+02  0.30054059587E+02  0.00000000000E+00 0.  1.
</event>
<event>
 7    1  0.4520156E-012  0.5052886E+02  0.7816164E-02  0.1300439E+00
        -11   -1    0    0    0    0  0.00000000000E+00  0.00000000000E+00  0.45593999997E+02  0.45594000000E+02  0.51100000000E-03 0. -1.
         11   -1    0    0    0    0 -0.00000000000E+00 -0.00000000000E+00 -0.45593999997E+02  0.45594000000E+02  0.51100000000E-03 0.  1.
    9900012    2    1    2    0    0  0.34981007279E+01  0.17883036989E+02  0.36347299103E+02  0.50528857452E+02  0.29999992712E+02 0.  0.
        -12    1    1    2    0    0 -0.34981007279E+01 -0.17883036989E+02 -0.36347299103E+02  0.40659142548E+02  0.00000000000E+00 0.  1.
         11    1    3    3    0    0 -0.40296340227E+01  0.78706224666E+01  0.16065265006E+02  0.18337867606E+02  0.51100000000E-03 0. -1.
        -11    1    3    3    0    0  0.11418976342E+02  0.13912634032E+02  0.19647092528E+02  0.26645124347E+02  0.51100000000E-03 0.  1.
        -12    1    3    3    0    0 -0.38912415912E+01 -0.39002195097E+01  0.63494156938E+00  0.55458654998E+01  0.00000000000E+00 0.  1.
</event>
<event>
 7    1  0.4520156E-012  0.5052886E+02  0.7816164E-02  0.1300439E+00
        -11   -1    0    0    0    0  0.00000000000E+00  0.00000000000E+00  0.45593999997E+02  0.45594000000E+02  0.51100000000E-03 0. -1.
         11   -1    0    0    0    0 -0.00000000000E+00 -0.00000000000E+00 -0.45593999997E+02  0.45594000000E+02  0.51100000000E-03 0.  1.
    9900012    2    1    2    0    0  0.20257762193E+02  0.26362740515E+00  0.35252228164E+02  0.50528855653E+02  0.29999987243E+02 0.  0.
        -12    1    1    2    0    0 -0.20257762193E+02 -0.26362740515E+00 -0.35252228164E+02  0.40659144347E+02  0.00000000000E+00 0.  1.
         11    1    3    3    0    0  0.32899859460E+01  0.80798311506E+01  0.16957903226E+02  0.19070347691E+02  0.51100000000E-03 0. -1.
        -11    1    3    3    0    0  0.55022677451E+01  0.29323531659E+01  0.13751957914E+02  0.15099337474E+02  0.51100000000E-03 0.  1.
        -12    1    3    3    0    0  0.11465508502E+02 -0.10748556911E+02  0.45423670240E+01  0.16359170488E+02  0.00000000000E+00 0.  1.
</event>
<event>
 7    1  0.4520156E-012  0.5052884E+02  0.7816164E-02  0.1300439E+00
        -11   -1    0    0    0    0  0.00000000000E+00  0.00000000000E+00  0.45593999997E+02  0.45594000000E+02  0.51100000000E-03 0. -1.
         11   -1    0    0    0    0 -0.00000000000E+00 -0.00000000000E+00 -0.45593999997E+02  0.45594000000E+02  0.51100000000E-03 0.  1.
    9900012    2    1    2    0    0  0.13913382648E+02 -0.29657747277E+02 -0.24083246951E+02  0.50528843909E+02  0.29999951547E+02 0.  0.
         12    1    1    2    0    0 -0.13913382648E+02  0.29657747277E+02  0.24083246951E+02  0.40659156091E+02  0.00000000000E+00 0. -1.
         11    1    3    3    0    0  0.42101044438E+01 -0.57240524544E+01  0.32371219829E+01  0.78082465971E+01  0.51100000000E-03 0. -1.
        -11    1    3    3    0    0  0.90161828458E+01 -0.49988416639E+01 -0.10956340892E+01  0.10367274734E+02  0.51100000000E-03 0.  1.
         12    1    3    3    0    0  0.68709535873E+00 -0.18934853159E+02 -0.26224734845E+02  0.32353322579E+02  0.00000000000E+00 0. -1.
</event>
<event>
 7    1  0.5107460E-012  0.5052886E+02  0.7816164E-02  0.1300439E+00
        -11   -1    0    0    0    0  0.00000000000E+00  0.00000000000E+00  0.45593999997E+02  0.45594000000E+02  0.51100000000E-03 0. -1.
         11   -1    0    0    0    0 -0.00000000000E+00 -0.00000000000E+00 -0.45593999997E+02  0.45594000000E+02  0.51100000000E-03 0.  1.
    9900012    2    1    2    0    0 -0.16592477517E+02 -0.25199362833E+02  0.27255232031E+02  0.50528857481E+02  0.29999992798E+02 0.  0.
        -12    1    1    2    0    0  0.16592477517E+02  0.25199362833E+02 -0.27255232031E+02  0.40659142519E+02  0.00000000000E+00 0.  1.
         11    1    3    3    0    0  0.22414408129E+01 -0.23545164477E+01  0.12833051460E+02  0.13238391694E+02  0.51100000000E-03 0. -1.
        -11    1    3    3    0    0 -0.85717279304E+01  0.97108248318E-01  0.56503824979E+00  0.85908799438E+01  0.51100000000E-03 0.  1.
         12    1    3    3    0    0 -0.10262190400E+02 -0.22941954633E+02  0.13857142322E+02  0.28699585842E+02  0.00000000000E+00 0. -1.
</event>
<event>
 7    1  0.5348417E-012  0.5052886E+02  0.7816164E-02  0.1300439E+00
        -11   -1    0    0    0    0  0.00000000000E+00  0.00000000000E+00  0.45593999997E+02  0.45594000000E+02  0.51100000000E-03 0. -1.
         11   -1    0    0    0    0 -0.00000000000E+00 -0.00000000000E+00 -0.45593999997E+02  0.45594000000E+02  0.51100000000E-03 0.  1.
    9900012    2    1    2    0    0 -0.14365566802E+01  0.41744650299E+00  0.40631606172E+02  0.50528863551E+02  0.30000011250E+02 0.  0.
        -12    1    1    2    0    0  0.14365566802E+01 -0.41744650299E+00 -0.40631606172E+02  0.40659136449E+02  0.00000000000E+00 0.  1.
         11    1    3    3    0    0  0.18258321559E+01 -0.52397809397E+01  0.21616290313E+02  0.22317100496E+02  0.51100000000E-03 0. -1.
        -11    1    3    3    0    0 -0.29426395443E+01 -0.28257179550E+01 -0.27026535488E+01  0.48936842884E+01  0.51100000000E-03 0.  1.
         12    1    3    3    0    0 -0.31974929188E+00  0.84829453977E+01  0.21717969407E+02  0.23318078767E+02  0.00000000000E+00 0. -1.
</event>
<event>
 7    1  0.4520156E-012  0.5052885E+02  0.7816164E-02  0.1300439E+00
        -11   -1    0    0    0    0  0.00000000000E+00  0.00000000000E+00  0.45593999997E+02  0.45594000000E+02  0.51100000000E-03 0.  1.
         11   -1    0    0    0    0 -0.00000000000E+00 -0.00000000000E+00 -0.45593999997E+02  0.45594000000E+02  0.51100000000E-03 0. -1.
    9900012    2    1    2    0    0  0.83554434438E+01 -0.38559070059E+02 -0.98260621181E+01  0.50528845856E+02  0.29999957464E+02 0.  0.
         12    1    1    2    0    0 -0.83554434438E+01  0.38559070059E+02  0.98260621181E+01  0.40659154144E+02  0.00000000000E+00 0. -1.
         11    1    3    3    0    0 -0.59138920877E+01 -0.20886657431E+00 -0.44617245672E+01  0.74111221313E+01  0.51100000000E-03 0. -1.
        -11    1    3    3    0    0  0.44177671661E+01 -0.13597425036E+02 -0.79372529486E+01  0.16352572244E+02  0.51100000000E-03 0.  1.
        -12    1    3    3    0    0  0.98515683654E+01 -0.24752778448E+02  0.25729153977E+01  0.26765151481E+02  0.00000000000E+00 0.  1.
</event>
<event>
 7    1  0.4520156E-012  0.5052886E+02  0.7816164E-02  0.1300439E+00
        -11   -1    0    0    0    0  0.00000000000E+00  0.00000000000E+00  0.45593999997E+02  0.45594000000E+02  0.51100000000E-03 0. -1.
         11   -1    0    0    0    0 -0.00000000000E+00 -0.00000000000E+00 -0.45593999997E+02  0.45594000000E+02  0.51100000000E-03 0.  1.
    9900012    2    1    2    0    0 -0.21505536566E+02  0.10695950932E+02  0.32806616166E+02  0.50528861623E+02  0.30000005388E+02 0.  0.
        -12    1    1    2    0    0  0.21505536566E+02 -0.10695950932E+02 -0.32806616166E+02  0.40659138377E+02  0.00000000000E+00 0.  1.
         11    1    3    3    0    0 -0.42097440488E+01  0.57950702395E+01  0.17756765313E+01  0.73795536073E+01  0.51100000000E-03 0.  1.
        -11    1    3    3    0    0 -0.71475590017E+01  0.14150555926E+02  0.20094063771E+02  0.25594867294E+02  0.51100000000E-03 0. -1.
        -12    1    3    3    0    0 -0.10148233515E+02 -0.92496752329E+01  0.10936875864E+02  0.17554440722E+02  0.00000000000E+00 0.  1.
</event>
<event>
 7    1  0.4520156E-012  0.5052886E+02  0.7816164E-02  0.1300439E+00
        -11   -1    0    0    0    0  0.00000000000E+00  0.00000000000E+00  0.45593999997E+02  0.45594000000E+02  0.51100000000E-03 0. -1.
         11   -1    0    0    0    0 -0.00000000000E+00 -0.00000000000E+00 -0.45593999997E+02  0.45594000000E+02  0.51100000000E-03 0.  1.
    9900012    2    1    2    0    0  0.31607010372E+01 -0.31777647646E+02  0.25166580838E+02  0.50528859428E+02  0.29999998718E+02 0.  0.
        -12    1    1    2    0    0 -0.31607010372E+01  0.31777647646E+02 -0.25166580838E+02  0.40659140572E+02  0.00000000000E+00 0.  1.
         11    1    3    3    0    0 -0.51767981603E+01 -0.14066872839E+02  0.17820724502E+02  0.23286355935E+02  0.51100000000E-03 0. -1.
        -11    1    3    3    0    0 -0.95798593124E+00 -0.81862900912E+01  0.10710820123E+02  0.13514982444E+02  0.51100000000E-03 0.  1.
        -12    1    3    3    0    0  0.92954851288E+01 -0.95244847155E+01 -0.33649637872E+01  0.13727521049E+02  0.00000000000E+00 0.  1.
</event>
<event>
 7    1  0.4520156E-012  0.5052886E+02  0.7816164E-02  0.1300439E+00
        -11   -1    0    0    0    0  0.00000000000E+00  0.00000000000E+00  0.45593999997E+02  0.45594000000E+02  0.51100000000E-03 0. -1.
         11   -1    0    0    0    0 -0.00000000000E+00 -0.00000000000E+00 -0.45593999997E+02  0.45594000000E+02  0.51100000000E-03 0.  1.
    9900012    2    1    2    0    0  0.97541686570E+01 -0.31231875238E+02  0.24136937197E+02  0.50528861122E+02  0.30000003866E+02 0.  0.
        -12    1    1    2    0    0 -0.97541686570E+01  0.31231875238E+02 -0.24136937197E+02  0.40659138878E+02  0.00000000000E+00 0.  1.
         11    1    3    3    0    0  0.54714132743E+01 -0.19469527982E+02  0.13911928834E+02  0.24546703388E+02  0.51100000000E-03 0. -1.
        -11    1    3    3    0    0 -0.40525099008E+00 -0.16914705635E+02  0.72781010338E+01  0.18418530072E+02  0.51100000000E-03 0.  1.
        -12    1    3    3    0    0  0.46880063728E+01  0.51523583786E+01  0.29469073292E+01  0.75636276627E+01  0.00000000000E+00 0.  1.
</event>
<event>
 7    1  0.4520156E-012  0.5052885E+02  0.7816164E-02  0.1300439E+00
        -11   -1    0    0    0    0  0.00000000000E+00  0.00000000000E+00  0.45593999997E+02  0.45594000000E+02  0.51100000000E-03 0. -1.
         11   -1    0    0    0    0 -0.00000000000E+00 -0.00000000000E+00 -0.45593999997E+02  0.45594000000E+02  0.51100000000E-03 0.  1.
    9900012    2    1    2    0    0  0.93993794434E+01  0.38497594724E+02 -0.90968846716E+01  0.50528850425E+02  0.29999971351E+02 0.  0.
         12    1    1    2    0    0 -0.93993794434E+01 -0.38497594724E+02  0.90968846716E+01  0.40659149575E+02  0.00000000000E+00 0. -1.
         11    1    3    3    0    0 -0.12355798898E+01  0.28473960182E+02 -0.51268256805E+01  0.28958201048E+02  0.51100000000E-03 0. -1.
        -11    1    3    3    0    0  0.76443667172E+01  0.40368797661E+01 -0.95324893732E+01  0.12868608886E+02  0.51100000000E-03 0.  1.
         12    1    3    3    0    0  0.29905926160E+01  0.59867547755E+01  0.55624303821E+01  0.87020404902E+01  0.00000000000E+00 0. -1.
</event>
<event>
 7    1  0.4520156E-012  0.5052885E+02  0.7816164E-02  0.1300439E+00
        -11   -1    0    0    0    0  0.00000000000E+00  0.00000000000E+00  0.45593999997E+02  0.45594000000E+02  0.51100000000E-03 0. -1.
         11   -1    0    0    0    0 -0.00000000000E+00 -0.00000000000E+00 -0.45593999997E+02  0.45594000000E+02  0.51100000000E-03 0.  1.
    9900012    2    1    2    0    0 -0.33404885701E+02  0.29234364031E+01 -0.22994200337E+02  0.50528854434E+02  0.29999983536E+02 0.  0.
         12    1    1    2    0    0  0.33404885701E+02 -0.29234364031E+01  0.22994200337E+02  0.40659145566E+02  0.00000000000E+00 0. -1.
         11    1    3    3    0    0 -0.14920655777E+02  0.15209407510E+02 -0.14152707290E+02  0.25578333986E+02  0.51100000000E-03 0. -1.
        -11    1    3    3    0    0 -0.19707904908E+01 -0.11013401772E+01 -0.37320497781E+01  0.43617841707E+01  0.51100000000E-03 0.  1.
         12    1    3    3    0    0 -0.16513439433E+02 -0.11184630930E+02 -0.51094432685E+01  0.20588736276E+02  0.00000000000E+00 0. -1.
</event>
<event>
 7    1  0.4520156E-012  0.5052887E+02  0.7816164E-02  0.1300439E+00
        -11   -1    0    0    0    0  0.00000000000E+00  0.00000000000E+00  0.45593999997E+02  0.45594000000E+02  0.51100000000E-03 0. -1.
         11   -1    0    0    0    0 -0.00000000000E+00 -0.00000000000E+00 -0.45593999997E+02  0.45594000000E+02  0.51100000000E-03 0.  1.
    9900012    2    1    2    0    0 -0.73523407791E+01 -0.11251380736E+02 -0.38373354720E+02  0.50528870203E+02  0.30000031469E+02 0.  0.
         12    1    1    2    0    0  0.73523407791E+01  0.11251380736E+02  0.38373354720E+02  0.40659129797E+02  0.00000000000E+00 0. -1.
         11    1    3    3    0    0 -0.17923454816E+01  0.25317846256E+01 -0.63724718189E+00  0.31667838492E+01  0.51100000000E-03 0. -1.
        -11    1    3    3    0    0 -0.24436818828E+01  0.47326438300E+01 -0.22673648600E+02  0.23290853138E+02  0.51100000000E-03 0.  1.
        -12    1    3    3    0    0 -0.31163134147E+01 -0.18515809191E+02 -0.15062458938E+02  0.24071233216E+02  0.00000000000E+00 0.  1.
</event>
<event>
 7    1  0.4520156E-012  0.5052888E+02  0.7816164E-02  0.1300439E+00
        -11   -1    0    0    0    0  0.00000000000E+00  0.00000000000E+00  0.45593999997E+02  0.45594000000E+02  0.51100000000E-03 0.  1.
         11   -1    0    0    0    0 -0.00000000000E+00 -0.00000000000E+00 -0.45593999997E+02  0.45594000000E+02  0.51100000000E-03 0. -1.
    9900012    2    1    2    0    0 -0.37613442633E+02 -0.15137668533E+02 -0.30404430174E+01  0.50528875943E+02  0.30000048918E+02 0.  0.
        -12    1    1    2    0    0  0.37613442633E+02  0.15137668533E+02  0.30404430174E+01  0.40659124057E+02  0.00000000000E+00 0.  1.
         11    1    3    3    0    0 -0.16759693514E+02 -0.17246681404E+01 -0.51021282802E+01  0.17603792777E+02  0.51100000000E-03 0. -1.
        -11    1    3    3    0    0 -0.20759393313E+02 -0.25572145875E+01  0.53353268408E+01  0.21586048038E+02  0.51100000000E-03 0.  1.
        -12    1    3    3    0    0 -0.94355806108E-01 -0.10855785805E+02 -0.32736415780E+01  0.11339035128E+02  0.00000000000E+00 0.  1.
</event>
<event>
 7    1  0.4520156E-012  0.5052886E+02  0.7816164E-02  0.1300439E+00
        -11   -1    0    0    0    0  0.00000000000E+00  0.00000000000E+00  0.45593999997E+02  0.45594000000E+02  0.51100000000E-03 0. -1.
         11   -1    0    0    0    0 -0.00000000000E+00 -0.00000000000E+00 -0.45593999997E+02  0.45594000000E+02  0.51100000000E-03 0.  1.
    9900012    2    1    2    0    0  0.14427627282E+02 -0.10993935494E+02  0.36388767125E+02  0.50528863026E+02  0.30000009653E+02 0.  0.
        -12    1    1    2    0    0 -0.14427627282E+02  0.10993935494E+02 -0.36388767125E+02  0.40659136974E+02  0.00000000000E+00 0.  1.
         11    1    3    3    0    0  0.79283492529E+01  0.57645058398E+01  0.28499480035E+01  0.10208352136E+02  0.51100000000E-03 0.  1.
        -11    1    3    3    0    0  0.33279989037E+01 -0.77508701228E+01  0.41140633674E+01  0.93849391056E+01  0.51100000000E-03 0. -1.
         12    1    3    3    0    0  0.31712791257E+01 -0.90075712108E+01  0.29424755754E+02  0.30935571784E+02  0.00000000000E+00 0. -1.
</event>
<event>
 7    1  0.4520156E-012  0.5052886E+02  0.7816164E-02  0.1300439E+00
        -11   -1    0    0    0    0  0.00000000000E+00  0.00000000000E+00  0.45593999997E+02  0.45594000000E+02  0.51100000000E-03 0. -1.
         11   -1    0    0    0    0 -0.00000000000E+00 -0.00000000000E+00 -0.45593999997E+02  0.45594000000E+02  0.51100000000E-03 0.  1.
    9900012    2    1    2    0    0  0.32508009914E+02 -0.19142664004E+02  0.15164216468E+02  0.50528858902E+02  0.29999997118E+02 0.  0.
        -12    1    1    2    0    0 -0.32508009914E+02  0.19142664004E+02 -0.15164216468E+02  0.40659141098E+02  0.00000000000E+00 0.  1.
         11    1    3    3    0    0 -0.36794180742E+01 -0.66008989573E+01  0.65209839503E+00  0.75851972280E+01  0.51100000000E-03 0. -1.
        -11    1    3    3    0    0  0.11180637088E+02 -0.36002690717E+00 -0.75748822841E+00  0.11212049489E+02  0.51100000000E-03 0.  1.
         12    1    3    3    0    0  0.25006790900E+02 -0.12181738139E+02  0.15269606302E+02  0.31731612185E+02  0.00000000000E+00 0. -1.
</event>
<event>
 7    1  0.4520156E-012  0.5052886E+02  0.7816164E-02  0.1300439E+00
        -11   -1    0    0    0    0  0.00000000000E+00  0.00000000000E+00  0.45593999997E+02  0.45594000000E+02  0.51100000000E-03 0. -1.
         11   -1    0    0    0    0 -0.00000000000E+00 -0.00000000000E+00 -0.45593999997E+02  0.45594000000E+02  0.51100000000E-03 0.  1.
    9900012    2    1    2    0    0 -0.88567988549E+01 -0.31004642616E+02 -0.24767614910E+02  0.50528862060E+02  0.30000006717E+02 0.  0.
         12    1    1    2    0    0  0.88567988549E+01  0.31004642616E+02  0.24767614910E+02  0.40659137940E+02  0.00000000000E+00 0. -1.
         11    1    3    3    0    0 -0.54822379636E+01 -0.16599455737E+02 -0.29680584217E+01  0.17731504023E+02  0.51100000000E-03 0. -1.
        -11    1    3    3    0    0  0.17008143047E+01  0.44252025097E+01 -0.24988215403E+01  0.53590387107E+01  0.51100000000E-03 0.  1.
         12    1    3    3    0    0 -0.50753751959E+01 -0.18830389389E+02 -0.19300734948E+02  0.27438319326E+02  0.00000000000E+00 0. -1.
</event>
<event>
 7    1  0.4520156E-012  0.5052900E+02  0.7816164E-02  0.1300438E+00
        -11   -1    0    0    0    0  0.00000000000E+00  0.00000000000E+00  0.45593999997E+02  0.45594000000E+02  0.51100000000E-03 0. -1.
         11   -1    0    0    0    0 -0.00000000000E+00 -0.00000000000E+00 -0.45593999997E+02  0.45594000000E+02  0.51100000000E-03 0.  1.
    9900012    2    1    2    0    0 -0.12653173665E+02  0.36125679058E+02 -0.13710838226E+02  0.50528996371E+02  0.30000414967E+02 0.  0.
         12    1    1    2    0    0  0.12653173665E+02 -0.36125679058E+02  0.13710838226E+02  0.40659003629E+02  0.00000000000E+00 0. -1.
         11    1    3    3    0    0 -0.12516977813E+02  0.29660069941E+02 -0.52374419559E+01  0.32616334573E+02  0.51100000000E-03 0. -1.
        -11    1    3    3    0    0 -0.62785628927E+01  0.70501368385E+01 -0.63918044785E+01  0.11400874799E+02  0.51100000000E-03 0.  1.
         12    1    3    3    0    0  0.61423670414E+01 -0.58452772102E+00 -0.20815917921E+01  0.65117869988E+01  0.00000000000E+00 0. -1.
</event>
<event>
 7    1  0.4520156E-012  0.5052886E+02  0.7816164E-02  0.1300439E+00
        -11   -1    0    0    0    0  0.00000000000E+00  0.00000000000E+00  0.45593999997E+02  0.45594000000E+02  0.51100000000E-03 0. -1.
         11   -1    0    0    0    0 -0.00000000000E+00 -0.00000000000E+00 -0.45593999997E+02  0.45594000000E+02  0.51100000000E-03 0.  1.
    9900012    2    1    2    0    0 -0.12228177058E+02  0.98749904092E+01  0.37498295345E+02  0.50528857073E+02  0.29999991560E+02 0.  0.
        -12    1    1    2    0    0  0.12228177058E+02 -0.98749904092E+01 -0.37498295345E+02  0.40659142927E+02  0.00000000000E+00 0.  1.
         11    1    3    3    0    0  0.20387475027E+01  0.29798147551E+01  0.31370298495E+01  0.47829639234E+01  0.51100000000E-03 0. -1.
        -11    1    3    3    0    0  0.36034321828E+00  0.29903590332E+00 -0.40713451539E+01  0.40981851263E+01  0.51100000000E-03 0.  1.
        -12    1    3    3    0    0 -0.14627267779E+02  0.65961397508E+01  0.38432610649E+02  0.41647708024E+02  0.00000000000E+00 0.  1.
</event>
<event>
 7    1  0.4520156E-012  0.5052886E+02  0.7816164E-02  0.1300439E+00
        -11   -1    0    0    0    0  0.00000000000E+00  0.00000000000E+00  0.45593999997E+02  0.45594000000E+02  0.51100000000E-03 0. -1.
         11   -1    0    0    0    0 -0.00000000000E+00 -0.00000000000E+00 -0.45593999997E+02  0.45594000000E+02  0.51100000000E-03 0.  1.
    9900012    2    1    2    0    0 -0.20205564613E+02 -0.87893334240E+01  0.34170871268E+02  0.50528859987E+02  0.30000000418E+02 0.  0.
        -12    1    1    2    0    0  0.20205564613E+02  0.87893334240E+01 -0.34170871268E+02  0.40659140013E+02  0.00000000000E+00 0.  1.
         11    1    3    3    0    0 -0.24988329422E+02 -0.73128003592E+01  0.15651652773E+02  0.30378740776E+02  0.51100000000E-03 0.  1.
        -11    1    3    3    0    0  0.49040507347E+00 -0.32562364997E+01  0.78902984407E+01  0.85498761993E+01  0.51100000000E-03 0. -1.
        -12    1    3    3    0    0  0.42923597349E+01  0.17797034349E+01  0.10628920054E+02  0.11600243012E+02  0.00000000000E+00 0.  1.
</event>
<event>
 7    1  0.4520156E-012  0.5052881E+02  0.7816164E-02  0.1300439E+00
        -11   -1    0    0    0    0  0.00000000000E+00  0.00000000000E+00  0.45593999997E+02  0.45594000000E+02  0.51100000000E-03 0. -1.
         11   -1    0    0    0    0 -0.00000000000E+00 -0.00000000000E+00 -0.45593999997E+02  0.45594000000E+02  0.51100000000E-03 0.  1.
    9900012    2    1    2    0    0  0.22502542595E+01  0.32558209656E+02  0.24250137376E+02  0.50528808875E+02  0.29999845055E+02 0.  0.
        -12    1    1    2    0    0 -0.22502542595E+01 -0.32558209656E+02 -0.24250137376E+02  0.40659191125E+02  0.00000000000E+00 0.  1.
         11    1    3    3    0    0  0.81774203588E-01 -0.15969403255E+00 -0.14414049934E+01  0.14525280791E+01  0.51100000000E-03 0. -1.
        -11    1    3    3    0    0  0.54119318946E+01  0.55024764424E+01 -0.39795917469E+01  0.86835133768E+01  0.51100000000E-03 0.  1.
         12    1    3    3    0    0 -0.32434518388E+01  0.27215427246E+02  0.29671134116E+02  0.40392767419E+02  0.00000000000E+00 0. -1.
</event>
<event>
 7    1  0.4520156E-012  0.5052886E+02  0.7816164E-02  0.1300439E+00
        -11   -1    0    0    0    0  0.00000000000E+00  0.00000000000E+00  0.45593999997E+02  0.45594000000E+02  0.51100000000E-03 0. -1.
         11   -1    0    0    0    0 -0.00000000000E+00 -0.00000000000E+00 -0.45593999997E+02  0.45594000000E+02  0.51100000000E-03 0.  1.
    9900012    2    1    2    0    0 -0.45181362064E+01 -0.33198766918E+02  0.23034623729E+02  0.50528861175E+02  0.30000004028E+02 0.  0.
        -12    1    1    2    0    0  0.45181362064E+01  0.33198766918E+02 -0.23034623729E+02  0.40659138825E+02  0.00000000000E+00 0.  1.
         11    1    3    3    0    0 -0.80855333040E+01 -0.15595504942E+02  0.13806715467E+02  0.22343254362E+02  0.51100000000E-03 0. -1.
        -11    1    3    3    0    0 -0.65728647911E+01 -0.14664175272E+02  0.53090680289E+01  0.16924148178E+02  0.51100000000E-03 0.  1.
        -12    1    3    3    0    0  0.10140261889E+02 -0.29390867040E+01  0.39188402324E+01  0.11261458635E+02  0.00000000000E+00 0.  1.
</event>
<event>
 7    1  0.4520156E-012  0.5052887E+02  0.7816164E-02  0.1300439E+00
        -11   -1    0    0    0    0  0.00000000000E+00  0.00000000000E+00  0.45593999997E+02  0.45594000000E+02  0.51100000000E-03 0. -1.
         11   -1    0    0    0    0 -0.00000000000E+00 -0.00000000000E+00 -0.45593999997E+02  0.45594000000E+02  0.51100000000E-03 0.  1.
    9900012    2    1    2    0    0  0.28832876362E+02 -0.28418268883E+01 -0.28526381683E+02  0.50528865832E+02  0.30000018182E+02 0.  0.
         12    1    1    2    0    0 -0.28832876362E+02  0.28418268883E+01  0.28526381683E+02  0.40659134168E+02  0.00000000000E+00 0. -1.
         11    1    3    3    0    0 -0.54308117374E+01 -0.11836587096E+01  0.43868007787E+00  0.55755900620E+01  0.51100000000E-03 0. -1.
        -11    1    3    3    0    0  0.16681499355E+02  0.25814606151E+00 -0.13580592633E+02  0.21512125805E+02  0.51100000000E-03 0.  1.
        -12    1    3    3    0    0  0.17582188745E+02 -0.19163142402E+01 -0.15384469128E+02  0.23441149965E+02  0.00000000000E+00 0.  1.
</event>
<event>
 7    1  0.4520156E-012  0.5052888E+02  0.7816164E-02  0.1300439E+00
        -11   -1    0    0    0    0  0.00000000000E+00  0.00000000000E+00  0.45593999997E+02  0.45594000000E+02  0.51100000000E-03 0. -1.
         11   -1    0    0    0    0 -0.00000000000E+00 -0.00000000000E+00 -0.45593999997E+02  0.45594000000E+02  0.51100000000E-03 0.  1.
    9900012    2    1    2    0    0  0.18047926676E+02 -0.11903767636E+02 -0.34434533398E+02  0.50528875175E+02  0.30000046582E+02 0.  0.
         12    1    1    2    0    0 -0.18047926676E+02  0.11903767636E+02  0.34434533398E+02  0.40659124825E+02  0.00000000000E+00 0. -1.
         11    1    3    3    0    0  0.13864926105E+01 -0.77432092414E+01 -0.36739791783E+01  0.86820374556E+01  0.51100000000E-03 0. -1.
        -11    1    3    3    0    0  0.21420802914E+02 -0.30509504899E+01 -0.17874544064E+02  0.28065252932E+02  0.51100000000E-03 0.  1.
         12    1    3    3    0    0 -0.47593688483E+01 -0.11096079043E+01 -0.12886010155E+02  0.13781584788E+02  0.00000000000E+00 0. -1.
</event>
<event>
 7    1  0.4761503E-012  0.5052886E+02  0.7816164E-02  0.1300439E+00
        -11   -1    0    0    0    0  0.00000000000E+00  0.00000000000E+00  0.45593999997E+02  0.45594000000E+02  0.51100000000E-03 0. -1.
         11   -1    0    0    0    0 -0.00000000000E+00 -0.00000000000E+00 -0.45593999997E+02  0.45594000000E+02  0.51100000000E-03 0.  1.
    9900012    2    1    2    0    0  0.11309159880E+02 -0.31084386231E+02  0.23643800749E+02  0.50528862301E+02  0.30000007449E+02 0.  0.
        -12    1    1    2    0    0 -0.11309159880E+02  0.31084386231E+02 -0.23643800749E+02  0.40659137699E+02  0.00000000000E+00 0.  1.
         11    1    3    3    0    0  0.50713237943E+01 -0.16345499276E+02  0.15374799780E+02  0.23006045731E+02  0.51100000000E-03 0. -1.
        -11    1    3    3    0    0  0.13267178486E+01  0.50380181849E+01  0.43161105208E+01  0.67653985669E+01  0.51100000000E-03 0.  1.
         12    1    3    3    0    0  0.49111182374E+01 -0.19776905140E+02  0.39528904485E+01  0.20757418003E+02  0.00000000000E+00 0. -1.
</event>
<event>
 7    1  0.5186755E-012  0.5052886E+02  0.7816164E-02  0.1300439E+00
        -11   -1    0    0    0    0  0.00000000000E+00  0.00000000000E+00  0.45593999997E+02  0.45594000000E+02  0.51100000000E-03 0. -1.
         11   -1    0    0    0    0 -0.00000000000E+00 -0.00000000000E+00 -0.45593999997E+02  0.45594000000E+02  0.51100000000E-03 0.  1.
    9900012    2    1    2    0    0  0.22753286449E+02 -0.16431037446E+02  0.29418956370E+02  0.50528855522E+02  0.29999986844E+02 0.  0.
        -12    1    1    2    0    0 -0.22753286449E+02  0.16431037446E+02 -0.29418956370E+02  0.40659144478E+02  0.00000000000E+00 0.  1.
         11    1    3    3    0    0 -0.67968235460E+00 -0.41729517013E+01  0.67588472546E+01  0.79722964369E+01  0.51100000000E-03 0. -1.
        -11    1    3    3    0    0 -0.19559215238E+01 -0.16217869291E+01 -0.36705530886E+01  0.44641664494E+01  0.51100000000E-03 0.  1.
         12    1    3    3    0    0  0.25388890328E+02 -0.10636298815E+02  0.26330662204E+02  0.38092392635E+02  0.00000000000E+00 0. -1.
</event>
<event>
 7    1  0.4520156E-012  0.5052886E+02  0.7816164E-02  0.1300439E+00
        -11   -1    0    0    0    0  0.00000000000E+00  0.00000000000E+00  0.45593999997E+02  0.45594000000E+02  0.51100000000E-03 0. -1.
         11   -1    0    0    0    0 -0.00000000000E+00 -0.00000000000E+00 -0.45593999997E+02  0.45594000000E+02  0.51100000000E-03 0.  1.
    9900012    2    1    2    0    0 -0.81498426091E+01 -0.13948094562E+02  0.37312148342E+02  0.50528859695E+02  0.29999999528E+02 0.  0.
        -12    1    1    2    0    0  0.81498426091E+01  0.13948094562E+02 -0.37312148342E+02  0.40659140305E+02  0.00000000000E+00 0.  1.
         11    1    3    3    0    0  0.35092465458E+01 -0.10163624452E+02  0.19657890086E+02  0.22406399001E+02  0.51100000000E-03 0. -1.
        -11    1    3    3    0    0  0.19581739045E+01 -0.70438362128E+01  0.92559678811E+01  0.11795041980E+02  0.51100000000E-03 0.  1.
        -12    1    3    3    0    0 -0.13617263059E+02  0.32593661028E+01  0.83982903752E+01  0.16327418714E+02  0.00000000000E+00 0.  1.
</event>
<event>
 7    1  0.5983810E-012  0.5052888E+02  0.7816164E-02  0.1300439E+00
        -11   -1    0    0    0    0  0.00000000000E+00  0.00000000000E+00  0.45593999997E+02  0.45594000000E+02  0.51100000000E-03 0. -1.
         11   -1    0    0    0    0 -0.00000000000E+00 -0.00000000000E+00 -0.45593999997E+02  0.45594000000E+02  0.51100000000E-03 0.  1.
    9900012    2    1    2    0    0  0.18314809687E+02 -0.16874615380E+02  0.32139999090E+02  0.50528875076E+02  0.30000046280E+02 0.  0.
        -12    1    1    2    0    0 -0.18314809687E+02  0.16874615380E+02 -0.32139999090E+02  0.40659124924E+02  0.00000000000E+00 0.  1.
         11    1    3    3    0    0  0.30804541445E+01 -0.13504055883E+02  0.40102506828E+01  0.14419806997E+02  0.51100000000E-03 0. -1.
        -11    1    3    3    0    0 -0.25068836362E+01  0.27960083724E+01  0.60560705143E+01  0.71258766983E+01  0.51100000000E-03 0.  1.
         12    1    3    3    0    0  0.17741239178E+02 -0.61665678699E+01  0.22073677893E+02  0.28983191381E+02  0.00000000000E+00 0. -1.
</event>
<event>
 7    1  0.4520156E-012  0.5052886E+02  0.7816164E-02  0.1300439E+00
        -11   -1    0    0    0    0  0.00000000000E+00  0.00000000000E+00  0.45593999997E+02  0.45594000000E+02  0.51100000000E-03 0. -1.
         11   -1    0    0    0    0 -0.00000000000E+00 -0.00000000000E+00 -0.45593999997E+02  0.45594000000E+02  0.51100000000E-03 0.  1.
    9900012    2    1    2    0    0  0.20907127463E+02 -0.23073227355E+02  0.26147346443E+02  0.50528861724E+02  0.30000005697E+02 0.  0.
        -12    1    1    2    0    0 -0.20907127463E+02  0.23073227355E+02 -0.26147346443E+02  0.40659138276E+02  0.00000000000E+00 0.  1.
         11    1    3    3    0    0  0.15938417757E+01  0.13227743883E+00 -0.15708146042E+01  0.22417153497E+01  0.51100000000E-03 0. -1.
        -11    1    3    3    0    0  0.13842363598E+02 -0.14213308581E+02  0.13386212261E+01  0.19885197455E+02  0.51100000000E-03 0.  1.
         12    1    3    3    0    0  0.54709220889E+01 -0.89921962135E+01  0.26379539821E+02  0.28401948919E+02  0.00000000000E+00 0. -1.
</event>
<event>
 7    1  0.4520156E-012  0.5052885E+02  0.7816164E-02  0.1300439E+00
        -11   -1    0    0    0    0  0.00000000000E+00  0.00000000000E+00  0.45593999997E+02  0.45594000000E+02  0.51100000000E-03 0. -1.
         11   -1    0    0    0    0 -0.00000000000E+00 -0.00000000000E+00 -0.45593999997E+02  0.45594000000E+02  0.51100000000E-03 0.  1.
    9900012    2    1    2    0    0 -0.88194542861E+01 -0.43758400535E+01  0.39449149621E+02  0.50528853970E+02  0.29999982126E+02 0.  0.
        -12    1    1    2    0    0  0.88194542861E+01  0.43758400535E+01 -0.39449149621E+02  0.40659146030E+02  0.00000000000E+00 0.  1.
         11    1    3    3    0    0  0.37910574554E+01  0.59306278742E+01  0.36834992215E+01  0.79443458125E+01  0.51100000000E-03 0. -1.
        -11    1    3    3    0    0  0.36751637022E+01 -0.20436272430E+01  0.33407758509E+01  0.53706632824E+01  0.51100000000E-03 0.  1.
         12    1    3    3    0    0 -0.16285675444E+02 -0.82628406848E+01  0.32424874549E+02  0.37213844875E+02  0.00000000000E+00 0. -1.
</event>
<event>
 7    1  0.4520156E-012  0.5052885E+02  0.7816164E-02  0.1300439E+00
        -11   -1    0    0    0    0  0.00000000000E+00  0.00000000000E+00  0.45593999997E+02  0.45594000000E+02  0.51100000000E-03 0. -1.
         11   -1    0    0    0    0 -0.00000000000E+00 -0.00000000000E+00 -0.45593999997E+02  0.45594000000E+02  0.51100000000E-03 0.  1.
    9900012    2    1    2    0    0 -0.34061968939E+01  0.72194995236E+01 -0.39867816433E+02  0.50528854193E+02  0.29999982805E+02 0.  0.
         12    1    1    2    0    0  0.34061968939E+01 -0.72194995236E+01  0.39867816433E+02  0.40659145807E+02  0.00000000000E+00 0. -1.
         11    1    3    3    0    0  0.10377720652E+01  0.10804706287E+01 -0.14513905259E+02  0.14591018942E+02  0.51100000000E-03 0. -1.
        -11    1    3    3    0    0  0.34167316430E+01 -0.24774808561E+01 -0.23800087174E+02  0.24171390449E+02  0.51100000000E-03 0.  1.
         12    1    3    3    0    0 -0.78607006021E+01  0.86165097511E+01 -0.15538239996E+01  0.11766444802E+02  0.00000000000E+00 0. -1.
</event>
<event>
 7    1  0.4520156E-012  0.5052886E+02  0.7816164E-02  0.1300439E+00
        -11   -1    0    0    0    0  0.00000000000E+00  0.00000000000E+00  0.45593999997E+02  0.45594000000E+02  0.51100000000E-03 0. -1.
         11   -1    0    0    0    0 -0.00000000000E+00 -0.00000000000E+00 -0.45593999997E+02  0.45594000000E+02  0.51100000000E-03 0.  1.
    9900012    2    1    2    0    0 -0.13857756479E+02 -0.24068812527E+01 -0.38148855786E+02  0.50528859702E+02  0.29999999550E+02 0.  0.
         12    1    1    2    0    0  0.13857756479E+02  0.24068812527E+01  0.38148855786E+02  0.40659140298E+02  0.00000000000E+00 0. -1.
         11    1    3    3    0    0 -0.98778578512E+01 -0.29139685953E+01 -0.66515802248E+01  0.12259967718E+02  0.51100000000E-03 0. -1.
        -11    1    3    3    0    0 -0.10378510085E+01 -0.10392841398E+02 -0.15311526433E+02  0.18534592767E+02  0.51100000000E-03 0.  1.
         12    1    3    3    0    0 -0.29420476193E+01  0.10899928741E+02 -0.16185749128E+02  0.19734299217E+02  0.00000000000E+00 0. -1.
</event>
<event>
 7    1  0.4520156E-012  0.5052883E+02  0.7816164E-02  0.1300439E+00
        -11   -1    0    0    0    0  0.00000000000E+00  0.00000000000E+00  0.45593999997E+02  0.45594000000E+02  0.51100000000E-03 0. -1.
         11   -1    0    0    0    0 -0.00000000000E+00 -0.00000000000E+00 -0.45593999997E+02  0.45594000000E+02  0.51100000000E-03 0.  1.
    9900012    2    1    2    0    0  0.17469007301E+02  0.28559974390E+02 -0.23072273659E+02  0.50528829263E+02  0.29999907026E+02 0.  0.
         12    1    1    2    0    0 -0.17469007301E+02 -0.28559974390E+02  0.23072273659E+02  0.40659170737E+02  0.00000000000E+00 0. -1.
         11    1    3    3    0    0  0.59591148018E+01  0.71885315755E+01  0.15205104267E+01  0.94603376077E+01  0.51100000000E-03 0. -1.
        -11    1    3    3    0    0  0.73974461179E+01  0.19542243587E+02 -0.57169357043E+01  0.21663444962E+02  0.51100000000E-03 0.  1.
         12    1    3    3    0    0  0.41124463813E+01  0.18291992275E+01 -0.18875848381E+02  0.19405046693E+02  0.00000000000E+00 0. -1.
</event>
<event>
 7    1  0.4520156E-012  0.5052885E+02  0.7816164E-02  0.1300439E+00
        -11   -1    0    0    0    0  0.00000000000E+00  0.00000000000E+00  0.45593999997E+02  0.45594000000E+02  0.51100000000E-03 0. -1.
         11   -1    0    0    0    0 -0.00000000000E+00 -0.00000000000E+00 -0.45593999997E+02  0.45594000000E+02  0.51100000000E-03 0.  1.
    9900012    2    1    2    0    0 -0.14680255183E+02  0.42144873165E+01 -0.37681490124E+02  0.50528849818E+02  0.29999969506E+02 0.  0.
         12    1    1    2    0    0  0.14680255183E+02 -0.42144873165E+01  0.37681490124E+02  0.40659150182E+02  0.00000000000E+00 0. -1.
         11    1    3    3    0    0 -0.41309534885E+01  0.62326472768E+01 -0.14739334690E+02  0.16527512099E+02  0.51100000000E-03 0. -1.
        -11    1    3    3    0    0 -0.13826548651E+02  0.61167977433E+01 -0.19270031785E+02  0.24493321284E+02  0.51100000000E-03 0.  1.
         12    1    3    3    0    0  0.32772469564E+01 -0.81349577036E+01 -0.36721236482E+01  0.95080164356E+01  0.00000000000E+00 0. -1.
</event>
<event>
 7    1  0.4520156E-012  0.5052884E+02  0.7816164E-02  0.1300439E+00
        -11   -1    0    0    0    0  0.00000000000E+00  0.00000000000E+00  0.45593999997E+02  0.45594000000E+02  0.51100000000E-03 0. -1.
         11   -1    0    0    0    0 -0.00000000000E+00 -0.00000000000E+00 -0.45593999997E+02  0.45594000000E+02  0.51100000000E-03 0.  1.
    9900012    2    1    2    0    0 -0.24976011864E+02 -0.15708512559E+02  0.27975150893E+02  0.50528836176E+02  0.29999928039E+02 0.  0.
        -12    1    1    2    0    0  0.24976011864E+02  0.15708512559E+02 -0.27975150893E+02  0.40659163824E+02  0.00000000000E+00 0.  1.
         11    1    3    3    0    0 -0.25356537752E+02 -0.11613424830E+02  0.26614847350E+02  0.38550949960E+02  0.51100000000E-03 0. -1.
        -11    1    3    3    0    0  0.93875646895E-01  0.30222126646E+01  0.34180816003E+01  0.45635363606E+01  0.51100000000E-03 0.  1.
        -12    1    3    3    0    0  0.28665024126E+00 -0.71173003928E+01 -0.20577780579E+01  0.74143498554E+01  0.00000000000E+00 0.  1.
</event>
<event>
 7    1  0.4520156E-012  0.5052886E+02  0.7816164E-02  0.1300439E+00
        -11   -1    0    0    0    0  0.00000000000E+00  0.00000000000E+00  0.45593999997E+02  0.45594000000E+02  0.51100000000E-03 0.  1.
         11   -1    0    0    0    0 -0.00000000000E+00 -0.00000000000E+00 -0.45593999997E+02  0.45594000000E+02  0.51100000000E-03 0. -1.
    9900012    2    1    2    0    0 -0.32638826230E+02 -0.16804036783E+02 -0.17478476172E+02  0.50528858849E+02  0.29999996957E+02 0.  0.
         12    1    1    2    0    0  0.32638826230E+02  0.16804036783E+02  0.17478476172E+02  0.40659141151E+02  0.00000000000E+00 0. -1.
         11    1    3    3    0    0 -0.10722856820E+02 -0.50378035557E-02  0.24753211540E+01  0.11004857965E+02  0.51100000000E-03 0. -1.
        -11    1    3    3    0    0 -0.15136191226E+02 -0.22358538455E+01 -0.19965394116E+01  0.15430148966E+02  0.51100000000E-03 0.  1.
         12    1    3    3    0    0 -0.67797781840E+01 -0.14563145134E+02 -0.17957257914E+02  0.24093851917E+02  0.00000000000E+00 0. -1.
</event>
<event>
 7    1  0.4520156E-012  0.5052885E+02  0.7816164E-02  0.1300439E+00
        -11   -1    0    0    0    0  0.00000000000E+00  0.00000000000E+00  0.45593999997E+02  0.45594000000E+02  0.51100000000E-03 0. -1.
         11   -1    0    0    0    0 -0.00000000000E+00 -0.00000000000E+00 -0.45593999997E+02  0.45594000000E+02  0.51100000000E-03 0.  1.
    9900012    2    1    2    0    0  0.13003811256E+02 -0.97728815374E+01 -0.37263358476E+02  0.50528853358E+02  0.29999980266E+02 0.  0.
         12    1    1    2    0    0 -0.13003811256E+02  0.97728815374E+01  0.37263358476E+02  0.40659146642E+02  0.00000000000E+00 0. -1.
         11    1    3    3    0    0  0.50582315576E+01 -0.35440158690E+01 -0.35324336841E+02  0.35860208149E+02  0.51100000000E-03 0.  1.
        -11    1    3    3    0    0  0.25864965463E+01 -0.79028815338E+01 -0.32077225820E+01  0.89126306636E+01  0.51100000000E-03 0. -1.
        -12    1    3    3    0    0  0.53590831526E+01  0.16740158654E+01  0.12687009465E+01  0.57560145453E+01  0.00000000000E+00 0.  1.
</event>
<event>
 7    1  0.4520156E-012  0.5052885E+02  0.7816164E-02  0.1300439E+00
        -11   -1    0    0    0    0  0.00000000000E+00  0.00000000000E+00  0.45593999997E+02  0.45594000000E+02  0.51100000000E-03 0. -1.
         11   -1    0    0    0    0 -0.00000000000E+00 -0.00000000000E+00 -0.45593999997E+02  0.45594000000E+02  0.51100000000E-03 0.  1.
    9900012    2    1    2    0    0  0.89850182701E+01  0.20113763073E+02 -0.34174147126E+02  0.50528851583E+02  0.29999974870E+02 0.  0.
         12    1    1    2    0    0 -0.89850182701E+01 -0.20113763073E+02  0.34174147126E+02  0.40659148417E+02  0.00000000000E+00 0. -1.
         11    1    3    3    0    0 -0.65196220917E+01  0.12598065961E+02 -0.93738127005E+01  0.17002502844E+02  0.51100000000E-03 0. -1.
        -11    1    3    3    0    0 -0.23746389899E+01  0.32310759996E+01 -0.61149894108E+01  0.73124454325E+01  0.51100000000E-03 0.  1.
         12    1    3    3    0    0  0.17879279352E+02  0.42846211126E+01 -0.18685345014E+02  0.26213903306E+02  0.00000000000E+00 0. -1.
</event>
<event>
 7    1  0.4520156E-012  0.5052885E+02  0.7816164E-02  0.1300439E+00
        -11   -1    0    0    0    0  0.00000000000E+00  0.00000000000E+00  0.45593999997E+02  0.45594000000E+02  0.51100000000E-03 0. -1.
         11   -1    0    0    0    0 -0.00000000000E+00 -0.00000000000E+00 -0.45593999997E+02  0.45594000000E+02  0.51100000000E-03 0.  1.
    9900012    2    1    2    0    0  0.38193869709E+01 -0.16988335135E+02 -0.36742009092E+02  0.50528849989E+02  0.29999970026E+02 0.  0.
         12    1    1    2    0    0 -0.38193869709E+01  0.16988335135E+02  0.36742009092E+02  0.40659150011E+02  0.00000000000E+00 0. -1.
         11    1    3    3    0    0 -0.31647668475E+01  0.56431323187E+01 -0.12173265336E+02  0.13785828984E+02  0.51100000000E-03 0. -1.
        -11    1    3    3    0    0 -0.34908502821E+01 -0.16811302751E+01 -0.40300848130E+01  0.55905114753E+01  0.51100000000E-03 0.  1.
        -12    1    3    3    0    0  0.10475004101E+02 -0.20950337179E+02 -0.20538658943E+02  0.31152509530E+02  0.00000000000E+00 0.  1.
</event>
<event>
 7    1  0.4520156E-012  0.5052886E+02  0.7816164E-02  0.1300439E+00
        -11   -1    0    0    0    0  0.00000000000E+00  0.00000000000E+00  0.45593999997E+02  0.45594000000E+02  0.51100000000E-03 0. -1.
         11   -1    0    0    0    0 -0.00000000000E+00 -0.00000000000E+00 -0.45593999997E+02  0.45594000000E+02  0.51100000000E-03 0.  1.
    9900012    2    1    2    0    0 -0.25463872190E+02 -0.27488852135E+02  0.15783540397E+02  0.50528856796E+02  0.29999990718E+02 0.  0.
        -12    1    1    2    0    0  0.25463872190E+02  0.27488852135E+02 -0.15783540397E+02  0.40659143204E+02  0.00000000000E+00 0.  1.
         11    1    3    3    0    0 -0.17903275783E+01  0.30029626439E+01  0.60995524250E+01  0.70304763370E+01  0.51100000000E-03 0. -1.
        -11    1    3    3    0    0 -0.72748539395E+01 -0.15013966685E+01  0.67932765897E+01  0.10066096507E+02  0.51100000000E-03 0.  1.
        -12    1    3    3    0    0 -0.16398690672E+02 -0.28990418111E+02  0.28907113821E+01  0.33432283953E+02  0.00000000000E+00 0.  1.
</event>
<event>
 7    1  0.4520156E-012  0.5052886E+02  0.7816164E-02  0.1300439E+00
        -11   -1    0    0    0    0  0.00000000000E+00  0.00000000000E+00  0.45593999997E+02  0.45594000000E+02  0.51100000000E-03 0.  1.
         11   -1    0    0    0    0 -0.00000000000E+00 -0.00000000000E+00 -0.45593999997E+02  0.45594000000E+02  0.51100000000E-03 0. -1.
    9900012    2    1    2    0    0  0.33666100116E+02  0.22491072521E+02  0.37297132894E+01  0.50528863249E+02  0.30000010332E+02 0.  0.
        -12    1    1    2    0    0 -0.33666100116E+02 -0.22491072521E+02 -0.37297132894E+01  0.40659136751E+02  0.00000000000E+00 0.  1.
         11    1    3    3    0    0  0.13058907899E+02  0.46453928264E+01  0.29118212450E+01  0.14163101823E+02  0.51100000000E-03 0. -1.
        -11    1    3    3    0    0  0.25069558574E+02  0.12038564144E+02  0.44944885210E+01  0.28171088389E+02  0.51100000000E-03 0.  1.
         12    1    3    3    0    0 -0.44623663572E+01  0.58071155503E+01 -0.36765964765E+01  0.81946730363E+01  0.00000000000E+00 0. -1.
</event>
<event>
 7    1  0.4520156E-012  0.5052886E+02  0.7816164E-02  0.1300439E+00
        -11   -1    0    0    0    0  0.00000000000E+00  0.00000000000E+00  0.45593999997E+02  0.45594000000E+02  0.51100000000E-03 0.  1.
         11   -1    0    0    0    0 -0.00000000000E+00 -0.00000000000E+00 -0.45593999997E+02  0.45594000000E+02  0.51100000000E-03 0. -1.
    9900012    2    1    2    0    0  0.31161245034E+02 -0.13483634227E+02 -0.22368147141E+02  0.50528860922E+02  0.30000003259E+02 0.  0.
         12    1    1    2    0    0 -0.31161245034E+02  0.13483634227E+02  0.22368147141E+02  0.40659139078E+02  0.00000000000E+00 0. -1.
         11    1    3    3    0    0  0.13405327411E+02  0.42898203082E+01  0.14689156567E+01  0.14151433664E+02  0.51100000000E-03 0. -1.
        -11    1    3    3    0    0  0.40446102106E+01 -0.74345170339E+00 -0.91697331261E+01  0.10049656614E+02  0.51100000000E-03 0.  1.
        -12    1    3    3    0    0  0.13711307412E+02 -0.17030002832E+02 -0.14667329672E+02  0.26327770644E+02  0.00000000000E+00 0.  1.
</event>
<event>
 7    1  0.4520156E-012  0.5052886E+02  0.7816164E-02  0.1300439E+00
        -11   -1    0    0    0    0  0.00000000000E+00  0.00000000000E+00  0.45593999997E+02  0.45594000000E+02  0.51100000000E-03 0. -1.
         11   -1    0    0    0    0 -0.00000000000E+00 -0.00000000000E+00 -0.45593999997E+02  0.45594000000E+02  0.51100000000E-03 0.  1.
    9900012    2    1    2    0    0 -0.10737231105E+02  0.27863832692E+02 -0.27595005389E+02  0.50528860480E+02  0.30000001915E+02 0.  0.
         12    1    1    2    0    0  0.10737231105E+02 -0.27863832692E+02  0.27595005389E+02  0.40659139520E+02  0.00000000000E+00 0. -1.
         11    1    3    3    0    0  0.43786758344E+01  0.12681104863E+02 -0.16480293361E+02  0.21250489221E+02  0.51100000000E-03 0. -1.
        -11    1    3    3    0    0 -0.40108989124E+01  0.48053799342E+01 -0.12537255471E+02  0.14012914094E+02  0.51100000000E-03 0.  1.
         12    1    3    3    0    0 -0.11105008027E+02  0.10377347894E+02  0.14225434435E+01  0.15265457165E+02  0.00000000000E+00 0. -1.
</event>
<event>
 7    1  0.5634109E-012  0.5052886E+02  0.7816164E-02  0.1300439E+00
        -11   -1    0    0    0    0  0.00000000000E+00  0.00000000000E+00  0.45593999997E+02  0.45594000000E+02  0.51100000000E-03 0.  1.
         11   -1    0    0    0    0 -0.00000000000E+00 -0.00000000000E+00 -0.45593999997E+02  0.45594000000E+02  0.51100000000E-03 0. -1.
    9900012    2    1    2    0    0 -0.30647661977E+02  0.26525347494E+02  0.32082106542E+01  0.50528857609E+02  0.29999993188E+02 0.  0.
         12    1    1    2    0    0  0.30647661977E+02 -0.26525347494E+02 -0.32082106542E+01  0.40659142391E+02  0.00000000000E+00 0. -1.
         11    1    3    3    0    0 -0.29503937049E+02  0.27740486443E+02  0.32581415470E+01  0.40627975290E+02  0.51100000000E-03 0. -1.
        -11    1    3    3    0    0 -0.45019858914E+01  0.88516986008E+00  0.24655406648E+01  0.52086748486E+01  0.51100000000E-03 0.  1.
         12    1    3    3    0    0  0.33582609636E+01 -0.21003088091E+01 -0.25154715576E+01  0.46922074709E+01  0.00000000000E+00 0. -1.
</event>
<event>
 7    1  0.4641733E-012  0.5052886E+02  0.7816164E-02  0.1300439E+00
        -11   -1    0    0    0    0  0.00000000000E+00  0.00000000000E+00  0.45593999997E+02  0.45594000000E+02  0.51100000000E-03 0. -1.
         11   -1    0    0    0    0 -0.00000000000E+00 -0.00000000000E+00 -0.45593999997E+02  0.45594000000E+02  0.51100000000E-03 0.  1.
    9900012    2    1    2    0    0 -0.12576975041E+02  0.22269079099E+02  0.31608126636E+02  0.50528857676E+02  0.29999993391E+02 0.  0.
        -12    1    1    2    0    0  0.12576975041E+02 -0.22269079099E+02 -0.31608126636E+02  0.40659142324E+02  0.00000000000E+00 0.  1.
         11    1    3    3    0    0 -0.74873091402E+01 -0.10579302800E+01  0.21203845487E+01  0.78533461361E+01  0.51100000000E-03 0. -1.
        -11    1    3    3    0    0 -0.50541214196E+01  0.17954847437E+02  0.76057441986E+01  0.20143684740E+02  0.51100000000E-03 0.  1.
         12    1    3    3    0    0 -0.35544481653E-01  0.53721619414E+01  0.21881997889E+02  0.22531826800E+02  0.00000000000E+00 0. -1.
</event>
<event>
 7    1  0.4520156E-012  0.5052886E+02  0.7816164E-02  0.1300439E+00
        -11   -1    0    0    0    0  0.00000000000E+00  0.00000000000E+00  0.45593999997E+02  0.45594000000E+02  0.51100000000E-03 0. -1.
         11   -1    0    0    0    0 -0.00000000000E+00 -0.00000000000E+00 -0.45593999997E+02  0.45594000000E+02  0.51100000000E-03 0.  1.
    9900012    2    1    2    0    0  0.45648538687E+01  0.25693191650E+01 -0.40320295624E+02  0.50528861654E+02  0.30000005484E+02 0.  0.
         12    1    1    2    0    0 -0.45648538687E+01 -0.25693191650E+01  0.40320295624E+02  0.40659138346E+02  0.00000000000E+00 0. -1.
         11    1    3    3    0    0 -0.29012476399E+01 -0.49674885983E+01 -0.25204480491E+02  0.25852640444E+02  0.51100000000E-03 0. -1.
        -11    1    3    3    0    0  0.49961051730E+01  0.10065985045E+01 -0.16747972091E+02  0.17506252508E+02  0.51100000000E-03 0.  1.
         12    1    3    3    0    0  0.24699963355E+01  0.65302092589E+01  0.16321569576E+01  0.71699687026E+01  0.00000000000E+00 0. -1.
</event>
<event>
 7    1  0.4520156E-012  0.5052886E+02  0.7816164E-02  0.1300439E+00
        -11   -1    0    0    0    0  0.00000000000E+00  0.00000000000E+00  0.45593999997E+02  0.45594000000E+02  0.51100000000E-03 0.  1.
         11   -1    0    0    0    0 -0.00000000000E+00 -0.00000000000E+00 -0.45593999997E+02  0.45594000000E+02  0.51100000000E-03 0. -1.
    9900012    2    1    2    0    0 -0.39676918056E+02 -0.80804561045E+01 -0.36896856756E+01  0.50528863540E+02  0.30000011215E+02 0.  0.
         12    1    1    2    0    0  0.39676918056E+02  0.80804561045E+01  0.36896856756E+01  0.40659136460E+02  0.00000000000E+00 0. -1.
         11    1    3    3    0    0  0.28962140221E-01 -0.42908094096E+01 -0.43162596052E+01  0.60862124048E+01  0.51100000000E-03 0. -1.
        -11    1    3    3    0    0 -0.28380551347E+02 -0.11241287736E+02 -0.21608157364E+01  0.30602146488E+02  0.51100000000E-03 0.  1.
         12    1    3    3    0    0 -0.11325328849E+02  0.74516410408E+01  0.27873896660E+01  0.13840504647E+02  0.00000000000E+00 0. -1.
</event>
<event>
 7    1  0.4520156E-012  0.5052887E+02  0.7816164E-02  0.1300439E+00
        -11   -1    0    0    0    0  0.00000000000E+00  0.00000000000E+00  0.45593999997E+02  0.45594000000E+02  0.51100000000E-03 0.  1.
         11   -1    0    0    0    0 -0.00000000000E+00 -0.00000000000E+00 -0.45593999997E+02  0.45594000000E+02  0.51100000000E-03 0. -1.
    9900012    2    1    2    0    0  0.15532433757E+02  0.36085510804E+02  0.10475890505E+02  0.50528869779E+02  0.30000030182E+02 0.  0.
        -12    1    1    2    0    0 -0.15532433757E+02 -0.36085510804E+02 -0.10475890505E+02  0.40659130221E+02  0.00000000000E+00 0.  1.
         11    1    3    3    0    0 -0.52533627447E+00  0.61597207084E+01 -0.13868765683E+01  0.63357370750E+01  0.51100000000E-03 0. -1.
        -11    1    3    3    0    0  0.19809540730E+01  0.25095575733E+02  0.14541135597E+02  0.29071579337E+02  0.51100000000E-03 0.  1.
         12    1    3    3    0    0  0.14076815958E+02  0.48302143626E+01 -0.26783685231E+01  0.15121553368E+02  0.00000000000E+00 0. -1.
</event>
<event>
 7    1  0.4520156E-012  0.5052887E+02  0.7816164E-02  0.1300439E+00
        -11   -1    0    0    0    0  0.00000000000E+00  0.00000000000E+00  0.45593999997E+02  0.45594000000E+02  0.51100000000E-03 0.  1.
         11   -1    0    0    0    0 -0.00000000000E+00 -0.00000000000E+00 -0.45593999997E+02  0.45594000000E+02  0.51100000000E-03 0. -1.
    9900012    2    1    2    0    0 -0.29537548510E+02 -0.75306348499E+01 -0.26907015588E+02  0.50528871614E+02  0.30000035758E+02 0.  0.
         12    1    1    2    0    0  0.29537548510E+02  0.75306348499E+01  0.26907015588E+02  0.40659128386E+02  0.00000000000E+00 0. -1.
         11    1    3    3    0    0 -0.13937217078E+02 -0.32892185733E+00 -0.11303257902E+02  0.17947641877E+02  0.51100000000E-03 0. -1.
        -11    1    3    3    0    0 -0.14350449808E+02  0.53748710989E+01 -0.11927719863E+02  0.19418937932E+02  0.51100000000E-03 0.  1.
        -12    1    3    3    0    0 -0.12498816235E+01 -0.12576584091E+02 -0.36760378232E+01  0.13162291805E+02  0.00000000000E+00 0.  1.
</event>
<event>
 7    1  0.4520156E-012  0.5052885E+02  0.7816164E-02  0.1300439E+00
        -11   -1    0    0    0    0  0.00000000000E+00  0.00000000000E+00  0.45593999997E+02  0.45594000000E+02  0.51100000000E-03 0. -1.
         11   -1    0    0    0    0 -0.00000000000E+00 -0.00000000000E+00 -0.45593999997E+02  0.45594000000E+02  0.51100000000E-03 0.  1.
    9900012    2    1    2    0    0 -0.40225382200E+02 -0.49755912501E+01  0.32137816908E+01  0.50528852515E+02  0.29999977704E+02 0.  0.
         12    1    1    2    0    0  0.40225382200E+02  0.49755912501E+01 -0.32137816908E+01  0.40659147485E+02  0.00000000000E+00 0. -1.
         11    1    3    3    0    0 -0.86948211317E+01  0.11276864819E+01 -0.84710661927E+01  0.12191413126E+02  0.51100000000E-03 0. -1.
        -11    1    3    3    0    0 -0.23068077638E+01  0.40252580489E+01 -0.12617361543E+01  0.48079146003E+01  0.51100000000E-03 0.  1.
        -12    1    3    3    0    0 -0.29223753305E+02 -0.10128535781E+02  0.12946584038E+02  0.33529524788E+02  0.00000000000E+00 0.  1.
</event>
<event>
 7    1  0.4520156E-012  0.5052886E+02  0.7816164E-02  0.1300439E+00
        -11   -1    0    0    0    0  0.00000000000E+00  0.00000000000E+00  0.45593999997E+02  0.45594000000E+02  0.51100000000E-03 0. -1.
         11   -1    0    0    0    0 -0.00000000000E+00 -0.00000000000E+00 -0.45593999997E+02  0.45594000000E+02  0.51100000000E-03 0.  1.
    9900012    2    1    2    0    0  0.30994900468E+02  0.12412204292E+01 -0.26285762862E+02  0.50528858194E+02  0.29999994966E+02 0.  0.
         12    1    1    2    0    0 -0.30994900468E+02 -0.12412204292E+01  0.26285762862E+02  0.40659141806E+02  0.00000000000E+00 0. -1.
         11    1    3    3    0    0  0.26334702947E+02 -0.45171138409E+01 -0.16977997675E+02  0.31657120875E+02  0.51100000000E-03 0. -1.
        -11    1    3    3    0    0  0.56903749204E+01 -0.23747999082E+01 -0.86833000896E+01  0.10649870518E+02  0.51100000000E-03 0.  1.
        -12    1    3    3    0    0 -0.10301773995E+01  0.81331341784E+01 -0.62446509705E+00  0.82218668011E+01  0.00000000000E+00 0.  1.
</event>
<event>
 7    1  0.4520156E-012  0.5052886E+02  0.7816164E-02  0.1300439E+00
        -11   -1    0    0    0    0  0.00000000000E+00  0.00000000000E+00  0.45593999997E+02  0.45594000000E+02  0.51100000000E-03 0. -1.
         11   -1    0    0    0    0 -0.00000000000E+00 -0.00000000000E+00 -0.45593999997E+02  0.45594000000E+02  0.51100000000E-03 0.  1.
    9900012    2    1    2    0    0 -0.10540271386E+02  0.15090907142E+02  0.36253730232E+02  0.50528858900E+02  0.29999997111E+02 0.  0.
        -12    1    1    2    0    0  0.10540271386E+02 -0.15090907142E+02 -0.36253730232E+02  0.40659141100E+02  0.00000000000E+00 0.  1.
         11    1    3    3    0    0 -0.50152916385E+01  0.10964744589E+02  0.23445304476E+02  0.26364011006E+02  0.51100000000E-03 0. -1.
        -11    1    3    3    0    0 -0.12191054268E+02  0.43197144932E+00  0.10777365141E+02  0.16277592056E+02  0.51100000000E-03 0.  1.
         12    1    3    3    0    0  0.66660745201E+01  0.36941911043E+01  0.20310606156E+01  0.78872558375E+01  0.00000000000E+00 0. -1.
</event>
<event>
 7    1  0.4520156E-012  0.5052886E+02  0.7816164E-02  0.1300439E+00
        -11   -1    0    0    0    0  0.00000000000E+00  0.00000000000E+00  0.45593999997E+02  0.45594000000E+02  0.51100000000E-03 0.  1.
         11   -1    0    0    0    0 -0.00000000000E+00 -0.00000000000E+00 -0.45593999997E+02  0.45594000000E+02  0.51100000000E-03 0. -1.
    9900012    2    1    2    0    0 -0.37368976339E+02 -0.15845794543E+02 -0.23739869493E+01  0.50528863126E+02  0.30000009957E+02 0.  0.
         12    1    1    2    0    0  0.37368976339E+02  0.15845794543E+02  0.23739869493E+01  0.40659136874E+02  0.00000000000E+00 0. -1.
         11    1    3    3    0    0 -0.10786284524E+02  0.28218830268E+01  0.33996900637E+00  0.11154485054E+02  0.51100000000E-03 0. -1.
        -11    1    3    3    0    0 -0.23816373309E+02 -0.38584642486E+01 -0.38439480976E+00  0.24129963605E+02  0.51100000000E-03 0.  1.
         12    1    3    3    0    0 -0.27663185059E+01 -0.14809213322E+02 -0.23295611459E+01  0.15244414466E+02  0.00000000000E+00 0. -1.
</event>
<event>
 7    1  0.4520156E-012  0.5052886E+02  0.7816164E-02  0.1300439E+00
        -11   -1    0    0    0    0  0.00000000000E+00  0.00000000000E+00  0.45593999997E+02  0.45594000000E+02  0.51100000000E-03 0. -1.
         11   -1    0    0    0    0 -0.00000000000E+00 -0.00000000000E+00 -0.45593999997E+02  0.45594000000E+02  0.51100000000E-03 0.  1.
    9900012    2    1    2    0    0  0.33516007134E+02 -0.83300951675E+01  0.21458147312E+02  0.50528864424E+02  0.30000013904E+02 0.  0.
        -12    1    1    2    0    0 -0.33516007134E+02  0.83300951675E+01 -0.21458147312E+02  0.40659135576E+02  0.00000000000E+00 0.  1.
         11    1    3    3    0    0  0.15468515101E+02 -0.90956139532E+01  0.40295324315E+01  0.18391364400E+02  0.51100000000E-03 0. -1.
        -11    1    3    3    0    0 -0.37617527443E+01 -0.30507761428E+01  0.26952731497E+01  0.55427895861E+01  0.51100000000E-03 0.  1.
         12    1    3    3    0    0  0.21809244777E+02  0.38162949286E+01  0.14733341731E+02  0.26594710438E+02  0.00000000000E+00 0. -1.
</event>
<event>
 7    1  0.4520156E-012  0.5052885E+02  0.7816164E-02  0.1300439E+00
        -11   -1    0    0    0    0  0.00000000000E+00  0.00000000000E+00  0.45593999997E+02  0.45594000000E+02  0.51100000000E-03 0. -1.
         11   -1    0    0    0    0 -0.00000000000E+00 -0.00000000000E+00 -0.45593999997E+02  0.45594000000E+02  0.51100000000E-03 0.  1.
    9900012    2    1    2    0    0  0.39646513135E+02 -0.44206361771E+01 -0.78599270364E+01  0.50528849972E+02  0.29999969976E+02 0.  0.
         12    1    1    2    0    0 -0.39646513135E+02  0.44206361771E+01  0.78599270364E+01  0.40659150028E+02  0.00000000000E+00 0. -1.
         11    1    3    3    0    0  0.26263106491E+02 -0.32725975573E+01 -0.92809592504E+01  0.28046334203E+02  0.51100000000E-03 0.  1.
        -11    1    3    3    0    0  0.14706220679E+02 -0.24121424498E+01 -0.50676551439E+01  0.15740790538E+02  0.51100000000E-03 0. -1.
         12    1    3    3    0    0 -0.13228140351E+01  0.12641038300E+01  0.64886873579E+01  0.67417252312E+01  0.00000000000E+00 0. -1.
</event>
<event>
 7    1  0.4520156E-012  0.5052887E+02  0.7816164E-02  0.1300439E+00
        -11   -1    0    0    0    0  0.00000000000E+00  0.00000000000E+00  0.45593999997E+02  0.45594000000E+02  0.51100000000E-03 0. -1.
         11   -1    0    0    0    0 -0.00000000000E+00 -0.00000000000E+00 -0.45593999997E+02  0.45594000000E+02  0.51100000000E-03 0.  1.
    9900012    2    1    2    0    0  0.15473442613E+02 -0.28385720527E+02 -0.24657420862E+02  0.50528868680E+02  0.30000026840E+02 0.  0.
         12    1    1    2    0    0 -0.15473442613E+02  0.28385720527E+02  0.24657420862E+02  0.40659131320E+02  0.00000000000E+00 0. -1.
         11    1    3    3    0    0  0.14918062639E+02 -0.10797147109E+02 -0.42430362520E+01  0.18897892356E+02  0.51100000000E-03 0. -1.
        -11    1    3    3    0    0  0.65039752705E+01 -0.15909913898E+02 -0.18280936542E+02  0.25092223809E+02  0.51100000000E-03 0.  1.
         12    1    3    3    0    0 -0.59485952969E+01 -0.16786595200E+01 -0.21334480675E+01  0.65387525146E+01  0.00000000000E+00 0. -1.
</event>
<event>
 7    1  0.4520156E-012  0.5052886E+02  0.7816164E-02  0.1300439E+00
        -11   -1    0    0    0    0  0.00000000000E+00  0.00000000000E+00  0.45593999997E+02  0.45594000000E+02  0.51100000000E-03 0. -1.
         11   -1    0    0    0    0 -0.00000000000E+00 -0.00000000000E+00 -0.45593999997E+02  0.45594000000E+02  0.51100000000E-03 0.  1.
    9900012    2    1    2    0    0  0.49769999595E+01 -0.61216404188E+00  0.40348732343E+02  0.50528862342E+02  0.30000007574E+02 0.  0.
        -12    1    1    2    0    0 -0.49769999595E+01  0.61216404188E+00 -0.40348732343E+02  0.40659137658E+02  0.00000000000E+00 0.  1.
         11    1    3    3    0    0 -0.68848546688E+01  0.48319939372E+01  0.49350694466E+01  0.97521433503E+01  0.51100000000E-03 0. -1.
        -11    1    3    3    0    0  0.78884494003E+01  0.62479025589E+00  0.46690364392E+01  0.91879213284E+01  0.51100000000E-03 0.  1.
         12    1    3    3    0    0  0.39734052280E+01 -0.60689482350E+01  0.30744626457E+02  0.31588797663E+02  0.00000000000E+00 0. -1.
</event>
<event>
 7    1  0.4520156E-012  0.5052886E+02  0.7816164E-02  0.1300439E+00
        -11   -1    0    0    0    0  0.00000000000E+00  0.00000000000E+00  0.45593999997E+02  0.45594000000E+02  0.51100000000E-03 0. -1.
         11   -1    0    0    0    0 -0.00000000000E+00 -0.00000000000E+00 -0.45593999997E+02  0.45594000000E+02  0.51100000000E-03 0.  1.
    9900012    2    1    2    0    0  0.14084588687E+02 -0.35165604409E+02  0.14770583925E+02  0.50528861772E+02  0.30000005842E+02 0.  0.
        -12    1    1    2    0    0 -0.14084588687E+02  0.35165604409E+02 -0.14770583925E+02  0.40659138228E+02  0.00000000000E+00 0.  1.
         11    1    3    3    0    0  0.95663074466E+01 -0.15999448914E+02  0.44466380305E+01  0.19164268672E+02  0.51100000000E-03 0. -1.
        -11    1    3    3    0    0  0.10538758866E+02 -0.15813160730E+02  0.13953610292E+02  0.23575935425E+02  0.51100000000E-03 0.  1.
        -12    1    3    3    0    0 -0.60204776261E+01 -0.33529947650E+01 -0.36296643968E+01  0.77886576748E+01  0.00000000000E+00 0.  1.
</event>
<event>
 7    1  0.4520156E-012  0.5052887E+02  0.7816164E-02  0.1300439E+00
        -11   -1    0    0    0    0  0.00000000000E+00  0.00000000000E+00  0.45593999997E+02  0.45594000000E+02  0.51100000000E-03 0. -1.
         11   -1    0    0    0    0 -0.00000000000E+00 -0.00000000000E+00 -0.45593999997E+02  0.45594000000E+02  0.51100000000E-03 0.  1.
    9900012    2    1    2    0    0  0.11497179581E+02  0.17346737531E+02 -0.34929508483E+02  0.50528868133E+02  0.30000025179E+02 0.  0.
         12    1    1    2    0    0 -0.11497179581E+02 -0.17346737531E+02  0.34929508483E+02  0.40659131867E+02  0.00000000000E+00 0. -1.
         11    1    3    3    0    0  0.10933189455E+02  0.16198438953E+02 -0.17949219845E+02  0.26534855370E+02  0.51100000000E-03 0. -1.
        -11    1    3    3    0    0  0.35549379138E+01  0.45674528116E+01  0.61624127180E+00  0.58205637462E+01  0.51100000000E-03 0.  1.
        -12    1    3    3    0    0 -0.29909477878E+01 -0.34191542335E+01 -0.17596529909E+02  0.18173449018E+02  0.00000000000E+00 0.  1.
</event>
<event>
 7    1  0.4520156E-012  0.5052885E+02  0.7816164E-02  0.1300439E+00
        -11   -1    0    0    0    0  0.00000000000E+00  0.00000000000E+00  0.45593999997E+02  0.45594000000E+02  0.51100000000E-03 0. -1.
         11   -1    0    0    0    0 -0.00000000000E+00 -0.00000000000E+00 -0.45593999997E+02  0.45594000000E+02  0.51100000000E-03 0.  1.
    9900012    2    1    2    0    0 -0.32627407795E+02  0.59234543664E+01  0.23527246662E+02  0.50528851134E+02  0.29999973506E+02 0.  0.
        -12    1    1    2    0    0  0.32627407795E+02 -0.59234543664E+01 -0.23527246662E+02  0.40659148866E+02  0.00000000000E+00 0.  1.
         11    1    3    3    0    0 -0.88213698801E+01 -0.20806873333E+01  0.45357208017E+01  0.10135017997E+02  0.51100000000E-03 0. -1.
        -11    1    3    3    0    0 -0.15784610703E+02 -0.75090046246E+01  0.54977407533E+01  0.18323870747E+02  0.51100000000E-03 0.  1.
         12    1    3    3    0    0 -0.80214272114E+01  0.15513146324E+02  0.13493785107E+02  0.22069962390E+02  0.00000000000E+00 0. -1.
</event>
<event>
 7    1  0.4520156E-012  0.5052886E+02  0.7816164E-02  0.1300439E+00
        -11   -1    0    0    0    0  0.00000000000E+00  0.00000000000E+00  0.45593999997E+02  0.45594000000E+02  0.51100000000E-03 0. -1.
         11   -1    0    0    0    0 -0.00000000000E+00 -0.00000000000E+00 -0.45593999997E+02  0.45594000000E+02  0.51100000000E-03 0.  1.
    9900012    2    1    2    0    0 -0.16636321051E+02 -0.37098964200E+02  0.25486632624E+00  0.50528864745E+02  0.30000014879E+02 0.  0.
         12    1    1    2    0    0  0.16636321051E+02  0.37098964200E+02 -0.25486632624E+00  0.40659135255E+02  0.00000000000E+00 0. -1.
         11    1    3    3    0    0 -0.19507767465E+01 -0.14368654233E+01  0.44471248835E+01  0.50642898960E+01  0.51100000000E-03 0. -1.
        -11    1    3    3    0    0  0.61395206236E+00  0.24243884996E+01 -0.36399430583E+01  0.44163086917E+01  0.51100000000E-03 0.  1.
        -12    1    3    3    0    0 -0.15299496367E+02 -0.38086487276E+02 -0.55231549898E+00  0.41048266157E+02  0.00000000000E+00 0.  1.
</event>
<event>
 7    1  0.4520156E-012  0.5052888E+02  0.7816164E-02  0.1300439E+00
        -11   -1    0    0    0    0  0.00000000000E+00  0.00000000000E+00  0.45593999997E+02  0.45594000000E+02  0.51100000000E-03 0. -1.
         11   -1    0    0    0    0 -0.00000000000E+00 -0.00000000000E+00 -0.45593999997E+02  0.45594000000E+02  0.51100000000E-03 0.  1.
    9900012    2    1    2    0    0  0.89736217068E+01 -0.36866797598E+02  0.14610871849E+02  0.50528877680E+02  0.30000054195E+02 0.  0.
        -12    1    1    2    0    0 -0.89736217068E+01  0.36866797598E+02 -0.14610871849E+02  0.40659122320E+02  0.00000000000E+00 0.  1.
         11    1    3    3    0    0  0.84628818681E+01 -0.26204545829E+01  0.35269904498E+01  0.95355552344E+01  0.51100000000E-03 0. -1.
        -11    1    3    3    0    0  0.56678337761E+01 -0.73768939589E+01  0.99332288574E+01  0.13609259348E+02  0.51100000000E-03 0.  1.
         12    1    3    3    0    0 -0.51570939374E+01 -0.26869449056E+02  0.11506525417E+01  0.27384063098E+02  0.00000000000E+00 0. -1.
</event>
<event>
 7    1  0.4520156E-012  0.5052886E+02  0.7816164E-02  0.1300439E+00
        -11   -1    0    0    0    0  0.00000000000E+00  0.00000000000E+00  0.45593999997E+02  0.45594000000E+02  0.51100000000E-03 0. -1.
         11   -1    0    0    0    0 -0.00000000000E+00 -0.00000000000E+00 -0.45593999997E+02  0.45594000000E+02  0.51100000000E-03 0.  1.
    9900012    2    1    2    0    0 -0.32052851087E+02  0.16845202695E+02 -0.18493767434E+02  0.50528861414E+02  0.30000004755E+02 0.  0.
         12    1    1    2    0    0  0.32052851087E+02 -0.16845202695E+02  0.18493767434E+02  0.40659138586E+02  0.00000000000E+00 0. -1.
         11    1    3    3    0    0  0.81276315972E-01  0.76112128380E+01  0.91168542004E+00  0.76660509568E+01  0.51100000000E-03 0. -1.
        -11    1    3    3    0    0 -0.76987645339E+01  0.79635553085E+01  0.83488215782E+00  0.11107934866E+02  0.51100000000E-03 0.  1.
        -12    1    3    3    0    0 -0.24435362869E+02  0.12704345482E+01 -0.20240335012E+02  0.31754875592E+02  0.00000000000E+00 0.  1.
</event>
<event>
 7    1  0.4520156E-012  0.5052886E+02  0.7816164E-02  0.1300439E+00
        -11   -1    0    0    0    0  0.00000000000E+00  0.00000000000E+00  0.45593999997E+02  0.45594000000E+02  0.51100000000E-03 0. -1.
         11   -1    0    0    0    0 -0.00000000000E+00 -0.00000000000E+00 -0.45593999997E+02  0.45594000000E+02  0.51100000000E-03 0.  1.
    9900012    2    1    2    0    0  0.23470249328E+02  0.30432296277E+02 -0.13273600506E+02  0.50528859200E+02  0.29999998023E+02 0.  0.
         12    1    1    2    0    0 -0.23470249328E+02 -0.30432296277E+02  0.13273600506E+02  0.40659140800E+02  0.00000000000E+00 0. -1.
         11    1    3    3    0    0 -0.45822178541E+01  0.25343109205E+01 -0.62551911651E-01  0.52367323120E+01  0.51100000000E-03 0. -1.
        -11    1    3    3    0    0  0.29381451422E+00  0.45978396881E+00  0.29850055681E+01  0.30344664720E+01  0.51100000000E-03 0.  1.
        -12    1    3    3    0    0  0.27758652668E+02  0.27438201388E+02 -0.16196054163E+02  0.42257660416E+02  0.00000000000E+00 0.  1.
</event>
<event>
 7    1  0.4520156E-012  0.5052885E+02  0.7816164E-02  0.1300439E+00
        -11   -1    0    0    0    0  0.00000000000E+00  0.00000000000E+00  0.45593999997E+02  0.45594000000E+02  0.51100000000E-03 0.  1.
         11   -1    0    0    0    0 -0.00000000000E+00 -0.00000000000E+00 -0.45593999997E+02  0.45594000000E+02  0.51100000000E-03 0. -1.
    9900012    2    1    2    0    0 -0.11152691250E+02  0.35539372278E+02  0.16301431440E+02  0.50528853784E+02  0.29999981562E+02 0.  0.
        -12    1    1    2    0    0  0.11152691250E+02 -0.35539372278E+02 -0.16301431440E+02  0.40659146216E+02  0.00000000000E+00 0.  1.
         11    1    3    3    0    0  0.16832765679E+01 -0.13383863783E+01  0.45585830991E+01  0.50403748109E+01  0.51100000000E-03 0. -1.
        -11    1    3    3    0    0  0.24180523904E+01  0.10920607236E+02  0.10521811275E+02  0.15356274044E+02  0.51100000000E-03 0.  1.
         12    1    3    3    0    0 -0.15254020209E+02  0.25957151420E+02  0.12210370664E+01  0.30132204929E+02  0.00000000000E+00 0. -1.
</event>
<event>
 7    1  0.4520156E-012  0.5052886E+02  0.7816164E-02  0.1300439E+00
        -11   -1    0    0    0    0  0.00000000000E+00  0.00000000000E+00  0.45593999997E+02  0.45594000000E+02  0.51100000000E-03 0. -1.
         11   -1    0    0    0    0 -0.00000000000E+00 -0.00000000000E+00 -0.45593999997E+02  0.45594000000E+02  0.51100000000E-03 0.  1.
    9900012    2    1    2    0    0  0.11138789244E+02 -0.78016649918E+01  0.38317450784E+02  0.50528860350E+02  0.30000001520E+02 0.  0.
        -12    1    1    2    0    0 -0.11138789244E+02  0.78016649918E+01 -0.38317450784E+02  0.40659139650E+02  0.00000000000E+00 0.  1.
         11    1    3    3    0    0  0.59933067686E+01 -0.22123032146E+01  0.52431770187E+01  0.82646788835E+01  0.51100000000E-03 0. -1.
        -11    1    3    3    0    0  0.38731232838E+01 -0.11902449407E+02  0.50294459287E+01  0.13489429657E+02  0.51100000000E-03 0.  1.
         12    1    3    3    0    0  0.12723591920E+01  0.63130876294E+01  0.28044827837E+02  0.28774751810E+02  0.00000000000E+00 0. -1.
</event>
<event>
 7    1  0.4520156E-012  0.5052886E+02  0.7816164E-02  0.1300439E+00
        -11   -1    0    0    0    0  0.00000000000E+00  0.00000000000E+00  0.45593999997E+02  0.45594000000E+02  0.51100000000E-03 0. -1.
         11   -1    0    0    0    0 -0.00000000000E+00 -0.00000000000E+00 -0.45593999997E+02  0.45594000000E+02  0.51100000000E-03 0.  1.
    9900012    2    1    2    0    0  0.10775174518E+02  0.30612779596E+02 -0.24493238222E+02  0.50528863523E+02  0.30000011164E+02 0.  0.
         12    1    1    2    0    0 -0.10775174518E+02 -0.30612779596E+02  0.24493238222E+02  0.40659136477E+02  0.00000000000E+00 0. -1.
         11    1    3    3    0    0  0.96856551339E+00 -0.10416402933E+01 -0.94180211848E+01  0.95248231980E+01  0.51100000000E-03 0. -1.
        -11    1    3    3    0    0  0.15127816822E+02  0.20082698371E+02 -0.12202313376E+02  0.27947487680E+02  0.51100000000E-03 0.  1.
         12    1    3    3    0    0 -0.53212078167E+01  0.11571721518E+02 -0.28729036613E+01  0.13056552645E+02  0.00000000000E+00 0. -1.
</event>
<event>
 7    1  0.4520156E-012  0.5052887E+02  0.7816164E-02  0.1300439E+00
        -11   -1    0    0    0    0  0.00000000000E+00  0.00000000000E+00  0.45593999997E+02  0.45594000000E+02  0.51100000000E-03 0. -1.
         11   -1    0    0    0    0 -0.00000000000E+00 -0.00000000000E+00 -0.45593999997E+02  0.45594000000E+02  0.51100000000E-03 0.  1.
    9900012    2    1    2    0    0  0.69699762523E+00 -0.24929746273E+02 -0.32112097978E+02  0.50528869519E+02  0.30000029391E+02 0.  0.
         12    1    1    2    0    0 -0.69699762523E+00  0.24929746273E+02  0.32112097978E+02  0.40659130481E+02  0.00000000000E+00 0. -1.
         11    1    3    3    0    0  0.10038790117E+01  0.24611125111E+01 -0.20268010626E+01  0.33425694714E+01  0.51100000000E-03 0. -1.
        -11    1    3    3    0    0  0.57896110280E+01 -0.51348158199E+01 -0.21010124590E+02  0.22389981351E+02  0.51100000000E-03 0.  1.
         12    1    3    3    0    0 -0.60964924145E+01 -0.22256042964E+02 -0.90751723255E+01  0.24796318697E+02  0.00000000000E+00 0. -1.
</event>
<event>
 7    1  0.4520156E-012  0.5052886E+02  0.7816164E-02  0.1300439E+00
        -11   -1    0    0    0    0  0.00000000000E+00  0.00000000000E+00  0.45593999997E+02  0.45594000000E+02  0.51100000000E-03 0. -1.
         11   -1    0    0    0    0 -0.00000000000E+00 -0.00000000000E+00 -0.45593999997E+02  0.45594000000E+02  0.51100000000E-03 0.  1.
    9900012    2    1    2    0    0  0.29598112453E+02 -0.16183121129E+02  0.22698548097E+02  0.50528858888E+02  0.29999997075E+02 0.  0.
        -12    1    1    2    0    0 -0.29598112453E+02  0.16183121129E+02 -0.22698548097E+02  0.40659141112E+02  0.00000000000E+00 0.  1.
         11    1    3    3    0    0  0.18961639224E+02  0.19420574715E+01  0.54310190242E+01  0.19819468135E+02  0.51100000000E-03 0.  1.
        -11    1    3    3    0    0  0.38184278313E+01 -0.61787209890E+01  0.15138051036E+02  0.16790401233E+02  0.51100000000E-03 0. -1.
        -12    1    3    3    0    0  0.68180453981E+01 -0.11946457612E+02  0.21294780376E+01  0.13918989519E+02  0.00000000000E+00 0.  1.
</event>
<event>
 7    1  0.4520156E-012  0.5052885E+02  0.7816164E-02  0.1300439E+00
        -11   -1    0    0    0    0  0.00000000000E+00  0.00000000000E+00  0.45593999997E+02  0.45594000000E+02  0.51100000000E-03 0.  1.
         11   -1    0    0    0    0 -0.00000000000E+00 -0.00000000000E+00 -0.45593999997E+02  0.45594000000E+02  0.51100000000E-03 0. -1.
    9900012    2    1    2    0    0 -0.15404231772E+02  0.35797784236E+02  0.11592890473E+02  0.50528845776E+02  0.29999957221E+02 0.  0.
        -12    1    1    2    0    0  0.15404231772E+02 -0.35797784236E+02 -0.11592890473E+02  0.40659154224E+02  0.00000000000E+00 0.  1.
         11    1    3    3    0    0  0.50309945505E+01  0.26021939937E+01  0.66094129016E+00  0.57025576190E+01  0.51100000000E-03 0.  1.
        -11    1    3    3    0    0 -0.23816800099E+02  0.31987647250E+02  0.99239526673E+01  0.41096646827E+02  0.51100000000E-03 0. -1.
         12    1    3    3    0    0  0.33815737769E+01  0.12079429920E+01  0.10079965151E+01  0.37296413306E+01  0.00000000000E+00 0. -1.
</event>
<event>
 7    1  0.4520156E-012  0.5052886E+02  0.7816164E-02  0.1300439E+00
        -11   -1    0    0    0    0  0.00000000000E+00  0.00000000000E+00  0.45593999997E+02  0.45594000000E+02  0.51100000000E-03 0. -1.
         11   -1    0    0    0    0 -0.00000000000E+00 -0.00000000000E+00 -0.45593999997E+02  0.45594000000E+02  0.51100000000E-03 0.  1.
    9900012    2    1    2    0    0  0.20587166627E+02 -0.74979740668E+00 -0.35053845267E+02  0.50528859651E+02  0.29999999395E+02 0.  0.
         12    1    1    2    0    0 -0.20587166627E+02  0.74979740668E+00  0.35053845267E+02  0.40659140349E+02  0.00000000000E+00 0. -1.
         11    1    3    3    0    0  0.12082605999E+01 -0.36478123773E+00 -0.11199769036E+00  0.12670843589E+01  0.51100000000E-03 0. -1.
        -11    1    3    3    0    0  0.25509254808E+02 -0.29963111717E+01 -0.18893779567E+02  0.31885339392E+02  0.51100000000E-03 0.  1.
         12    1    3    3    0    0 -0.61303487809E+01  0.26112950028E+01 -0.16048068010E+02  0.17376435901E+02  0.00000000000E+00 0. -1.
</event>
<event>
 7    1  0.4520156E-012  0.5052886E+02  0.7816164E-02  0.1300439E+00
        -11   -1    0    0    0    0  0.00000000000E+00  0.00000000000E+00  0.45593999997E+02  0.45594000000E+02  0.51100000000E-03 0. -1.
         11   -1    0    0    0    0 -0.00000000000E+00 -0.00000000000E+00 -0.45593999997E+02  0.45594000000E+02  0.51100000000E-03 0.  1.
    9900012    2    1    2    0    0 -0.17905388127E+02  0.32295605013E+02  0.17016359249E+02  0.50528861922E+02  0.30000006299E+02 0.  0.
        -12    1    1    2    0    0  0.17905388127E+02 -0.32295605013E+02 -0.17016359249E+02  0.40659138078E+02  0.00000000000E+00 0.  1.
         11    1    3    3    0    0  0.40869955774E+00 -0.21622934639E+01  0.55280928940E+01  0.59499882066E+01  0.51100000000E-03 0.  1.
        -11    1    3    3    0    0 -0.17359013039E+01  0.48487082113E+01  0.92298401150E+01  0.10569450008E+02  0.51100000000E-03 0. -1.
        -12    1    3    3    0    0 -0.16578186381E+02  0.29609190266E+02  0.22584262399E+01  0.34009423708E+02  0.00000000000E+00 0.  1.
</event>
<event>
 7    1  0.4520156E-012  0.5052885E+02  0.7816164E-02  0.1300439E+00
        -11   -1    0    0    0    0  0.00000000000E+00  0.00000000000E+00  0.45593999997E+02  0.45594000000E+02  0.51100000000E-03 0. -1.
         11   -1    0    0    0    0 -0.00000000000E+00 -0.00000000000E+00 -0.45593999997E+02  0.45594000000E+02  0.51100000000E-03 0.  1.
    9900012    2    1    2    0    0 -0.67027572086E+01  0.39867222392E+02  0.43409472019E+01  0.50528853452E+02  0.29999980551E+02 0.  0.
        -12    1    1    2    0    0  0.67027572086E+01 -0.39867222392E+02 -0.43409472019E+01  0.40659146548E+02  0.00000000000E+00 0.  1.
         11    1    3    3    0    0 -0.10730326623E+02  0.91880446598E+01 -0.90549257153E+00  0.14155563965E+02  0.51100000000E-03 0. -1.
        -11    1    3    3    0    0  0.81705438776E+01  0.11893106068E+02 -0.40789388791E+01  0.14994715798E+02  0.51100000000E-03 0.  1.
         12    1    3    3    0    0 -0.41429744628E+01  0.18786071664E+02  0.93253786526E+01  0.21378573689E+02  0.00000000000E+00 0. -1.
</event>
<event>
 7    1  0.4520156E-012  0.5052886E+02  0.7816164E-02  0.1300439E+00
        -11   -1    0    0    0    0  0.00000000000E+00  0.00000000000E+00  0.45593999997E+02  0.45594000000E+02  0.51100000000E-03 0. -1.
         11   -1    0    0    0    0 -0.00000000000E+00 -0.00000000000E+00 -0.45593999997E+02  0.45594000000E+02  0.51100000000E-03 0.  1.
    9900012    2    1    2    0    0  0.37323629565E+02 -0.15539453439E+02  0.43171678564E+01  0.50528857419E+02  0.29999992610E+02 0.  0.
        -12    1    1    2    0    0 -0.37323629565E+02  0.15539453439E+02 -0.43171678564E+01  0.40659142581E+02  0.00000000000E+00 0.  1.
         11    1    3    3    0    0  0.30547870081E+01  0.21790332881E+01 -0.44458103308E+00  0.37785661687E+01  0.51100000000E-03 0. -1.
        -11    1    3    3    0    0 -0.24125384658E+01  0.31738007730E+01  0.19630273948E+01  0.44437405425E+01  0.51100000000E-03 0.  1.
        -12    1    3    3    0    0  0.36681381023E+02 -0.20892287501E+02  0.27987214947E+01  0.42306550708E+02  0.00000000000E+00 0.  1.
</event>
<event>
 7    1  0.4520156E-012  0.5052884E+02  0.7816164E-02  0.1300439E+00
        -11   -1    0    0    0    0  0.00000000000E+00  0.00000000000E+00  0.45593999997E+02  0.45594000000E+02  0.51100000000E-03 0. -1.
         11   -1    0    0    0    0 -0.00000000000E+00 -0.00000000000E+00 -0.45593999997E+02  0.45594000000E+02  0.51100000000E-03 0.  1.
    9900012    2    1    2    0    0  0.15954535603E+02  0.30498334246E+02  0.21644208720E+02  0.50528839050E+02  0.29999936775E+02 0.  0.
        -12    1    1    2    0    0 -0.15954535603E+02 -0.30498334246E+02 -0.21644208720E+02  0.40659160950E+02  0.00000000000E+00 0.  1.
         11    1    3    3    0    0 -0.44936111657E+01  0.26666655234E+01  0.56265099714E+01  0.76786236424E+01  0.51100000000E-03 0. -1.
        -11    1    3    3    0    0  0.12423084657E+02  0.18772861156E+01  0.55767699752E+01  0.13746184895E+02  0.51100000000E-03 0.  1.
         12    1    3    3    0    0  0.80250621113E+01  0.25954382607E+02  0.10440928774E+02  0.29104030512E+02  0.00000000000E+00 0. -1.
</event>
<event>
 7    1  0.4520156E-012  0.5052887E+02  0.7816164E-02  0.1300439E+00
        -11   -1    0    0    0    0  0.00000000000E+00  0.00000000000E+00  0.45593999997E+02  0.45594000000E+02  0.51100000000E-03 0. -1.
         11   -1    0    0    0    0 -0.00000000000E+00 -0.00000000000E+00 -0.45593999997E+02  0.45594000000E+02  0.51100000000E-03 0.  1.
    9900012    2    1    2    0    0 -0.82131504703E+01  0.26237342077E+02  0.29955150752E+02  0.50528867981E+02  0.30000024716E+02 0.  0.
        -12    1    1    2    0    0  0.82131504703E+01 -0.26237342077E+02 -0.29955150752E+02  0.40659132019E+02  0.00000000000E+00 0.  1.
         11    1    3    3    0    0  0.45677044881E+00  0.39700068020E+00  0.66267213052E+01  0.66542981824E+01  0.51100000000E-03 0. -1.
        -11    1    3    3    0    0  0.76233174748E+01  0.13548512340E+02  0.46980207775E+01  0.16240337294E+02  0.51100000000E-03 0.  1.
        -12    1    3    3    0    0 -0.16293238394E+02  0.12291829057E+02  0.18630408669E+02  0.27634232505E+02  0.00000000000E+00 0.  1.
</event>
<event>
 7    1  0.4520156E-012  0.5052886E+02  0.7816164E-02  0.1300439E+00
        -11   -1    0    0    0    0  0.00000000000E+00  0.00000000000E+00  0.45593999997E+02  0.45594000000E+02  0.51100000000E-03 0. -1.
         11   -1    0    0    0    0 -0.00000000000E+00 -0.00000000000E+00 -0.45593999997E+02  0.45594000000E+02  0.51100000000E-03 0.  1.
    9900012    2    1    2    0    0  0.10529384513E+02 -0.33118379349E+01 -0.39132200388E+02  0.50528864299E+02  0.30000013522E+02 0.  0.
         12    1    1    2    0    0 -0.10529384513E+02  0.33118379349E+01  0.39132200388E+02  0.40659135701E+02  0.00000000000E+00 0. -1.
         11    1    3    3    0    0 -0.38578691473E+01  0.32674629721E+01 -0.13213352887E+02  0.14147514390E+02  0.51100000000E-03 0.  1.
        -11    1    3    3    0    0  0.21598777031E+01 -0.30554160805E+01 -0.23030700035E+02  0.23332676303E+02  0.51100000000E-03 0. -1.
         12    1    3    3    0    0  0.12227375958E+02 -0.35238848265E+01 -0.28881474664E+01  0.13048673606E+02  0.00000000000E+00 0. -1.
</event>
<event>
 7    1  0.4520156E-012  0.5052886E+02  0.7816164E-02  0.1300439E+00
        -11   -1    0    0    0    0  0.00000000000E+00  0.00000000000E+00  0.45593999997E+02  0.45594000000E+02  0.51100000000E-03 0. -1.
         11   -1    0    0    0    0 -0.00000000000E+00 -0.00000000000E+00 -0.45593999997E+02  0.45594000000E+02  0.51100000000E-03 0.  1.
    9900012    2    1    2    0    0 -0.13906326430E+02  0.13514632222E+02  0.35737015291E+02  0.50528862518E+02  0.30000008109E+02 0.  0.
        -12    1    1    2    0    0  0.13906326430E+02 -0.13514632222E+02 -0.35737015291E+02  0.40659137482E+02  0.00000000000E+00 0.  1.
         11    1    3    3    0    0 -0.35403416618E+01  0.82044798629E+01  0.26159489448E+02  0.27643559781E+02  0.51100000000E-03 0. -1.
        -11    1    3    3    0    0 -0.31202650273E+01  0.10542829456E+02  0.20161066532E+01  0.11178192746E+02  0.51100000000E-03 0.  1.
        -12    1    3    3    0    0 -0.72457197412E+01 -0.52326770971E+01  0.75614191902E+01  0.11707109991E+02  0.00000000000E+00 0.  1.
</event>
<event>
 7    1  0.4520156E-012  0.5052891E+02  0.7816164E-02  0.1300439E+00
        -11   -1    0    0    0    0  0.00000000000E+00  0.00000000000E+00  0.45593999997E+02  0.45594000000E+02  0.51100000000E-03 0. -1.
         11   -1    0    0    0    0 -0.00000000000E+00 -0.00000000000E+00 -0.45593999997E+02  0.45594000000E+02  0.51100000000E-03 0.  1.
    9900012    2    1    2    0    0  0.14429287599E+02 -0.32811628062E+02 -0.19192550968E+02  0.50528913816E+02  0.30000164034E+02 0.  0.
         12    1    1    2    0    0 -0.14429287599E+02  0.32811628062E+02  0.19192550968E+02  0.40659086184E+02  0.00000000000E+00 0. -1.
         11    1    3    3    0    0  0.58714089396E+01  0.22707267679E+01 -0.64545411657E+01  0.90161380264E+01  0.51100000000E-03 0. -1.
        -11    1    3    3    0    0  0.89581628715E+00 -0.25043745543E+01 -0.70902210117E+01  0.75726886232E+01  0.51100000000E-03 0.  1.
        -12    1    3    3    0    0  0.76620623720E+01 -0.32577980276E+02 -0.56477887903E+01  0.33940087166E+02  0.00000000000E+00 0.  1.
</event>
<event>
 7    1  0.4520156E-012  0.5052876E+02  0.7816164E-02  0.1300439E+00
        -11   -1    0    0    0    0  0.00000000000E+00  0.00000000000E+00  0.45593999997E+02  0.45594000000E+02  0.51100000000E-03 0. -1.
         11   -1    0    0    0    0 -0.00000000000E+00 -0.00000000000E+00 -0.45593999997E+02  0.45594000000E+02  0.51100000000E-03 0.  1.
    9900012    2    1    2    0    0 -0.13799534341E+02  0.32829253042E+02  0.19621088126E+02  0.50528756247E+02  0.29999685086E+02 0.  0.
        -12    1    1    2    0    0  0.13799534341E+02 -0.32829253042E+02 -0.19621088126E+02  0.40659243753E+02  0.00000000000E+00 0.  1.
         11    1    3    3    0    0 -0.10344230720E+02  0.23335982897E+02  0.82985865671E+01  0.26840971409E+02  0.51100000000E-03 0. -1.
        -11    1    3    3    0    0 -0.49054807930E+01  0.14217174714E+02  0.11187622890E+02  0.18744457977E+02  0.51100000000E-03 0.  1.
        -12    1    3    3    0    0  0.14501771719E+01 -0.47239045678E+01  0.13487866900E+00  0.49433268606E+01  0.00000000000E+00 0.  1.
</event>
<event>
 7    1  0.4520156E-012  0.5052886E+02  0.7816164E-02  0.1300439E+00
        -11   -1    0    0    0    0  0.00000000000E+00  0.00000000000E+00  0.45593999997E+02  0.45594000000E+02  0.51100000000E-03 0. -1.
         11   -1    0    0    0    0 -0.00000000000E+00 -0.00000000000E+00 -0.45593999997E+02  0.45594000000E+02  0.51100000000E-03 0.  1.
    9900012    2    1    2    0    0 -0.10675362278E+01  0.27952798494E+01  0.40548887969E+02  0.50528861562E+02  0.30000005203E+02 0.  0.
        -12    1    1    2    0    0  0.10675362278E+01 -0.27952798494E+01 -0.40548887969E+02  0.40659138438E+02  0.00000000000E+00 0.  1.
         11    1    3    3    0    0  0.39562182677E+01  0.12881683170E+01  0.41930512628E+01  0.59070059884E+01  0.51100000000E-03 0. -1.
        -11    1    3    3    0    0  0.99021806643E+01 -0.28323073169E+01  0.15528255749E+02  0.18633353791E+02  0.51100000000E-03 0.  1.
         12    1    3    3    0    0 -0.14925935160E+02  0.43394188493E+01  0.20827580957E+02  0.25988501782E+02  0.00000000000E+00 0. -1.
</event>
<event>
 7    1  0.4520156E-012  0.5052885E+02  0.7816164E-02  0.1300439E+00
        -11   -1    0    0    0    0  0.00000000000E+00  0.00000000000E+00  0.45593999997E+02  0.45594000000E+02  0.51100000000E-03 0. -1.
         11   -1    0    0    0    0 -0.00000000000E+00 -0.00000000000E+00 -0.45593999997E+02  0.45594000000E+02  0.51100000000E-03 0.  1.
    9900012    2    1    2    0    0 -0.32905316776E+02  0.19600208873E+02  0.13646914827E+02  0.50528851653E+02  0.29999975085E+02 0.  0.
        -12    1    1    2    0    0  0.32905316776E+02 -0.19600208873E+02 -0.13646914827E+02  0.40659148347E+02  0.00000000000E+00 0.  1.
         11    1    3    3    0    0 -0.10024688203E+02 -0.57585839246E+00  0.45861643388E+01  0.11038971422E+02  0.51100000000E-03 0. -1.
        -11    1    3    3    0    0 -0.35973840078E+01 -0.49611373333E+01  0.42200463188E+01  0.74406213809E+01  0.51100000000E-03 0.  1.
        -12    1    3    3    0    0 -0.19283244565E+02  0.25137204599E+02  0.48407041694E+01  0.32049258851E+02  0.00000000000E+00 0.  1.
</event>
<event>
 7    1  0.4520156E-012  0.5052885E+02  0.7816164E-02  0.1300439E+00
        -11   -1    0    0    0    0  0.00000000000E+00  0.00000000000E+00  0.45593999997E+02  0.45594000000E+02  0.51100000000E-03 0.  1.
         11   -1    0    0    0    0 -0.00000000000E+00 -0.00000000000E+00 -0.45593999997E+02  0.45594000000E+02  0.51100000000E-03 0. -1.
    9900012    2    1    2    0    0  0.10991912171E+01 -0.40603040756E+02  0.18307389076E+01  0.50528846727E+02  0.29999960110E+02 0.  0.
         12    1    1    2    0    0 -0.10991912171E+01  0.40603040756E+02 -0.18307389076E+01  0.40659153273E+02  0.00000000000E+00 0. -1.
         11    1    3    3    0    0 -0.29725126217E+01 -0.22105731573E+02 -0.48409793922E+01  0.22823984784E+02  0.51100000000E-03 0. -1.
        -11    1    3    3    0    0 -0.12369816715E+01 -0.15118989954E+02 -0.36627357222E+01  0.15605435403E+02  0.51100000000E-03 0.  1.
         12    1    3    3    0    0  0.53086855103E+01 -0.33783192284E+01  0.10334454022E+02  0.12099426540E+02  0.00000000000E+00 0. -1.
</event>
<event>
 7    1  0.4520156E-012  0.5052886E+02  0.7816164E-02  0.1300439E+00
        -11   -1    0    0    0    0  0.00000000000E+00  0.00000000000E+00  0.45593999997E+02  0.45594000000E+02  0.51100000000E-03 0. -1.
         11   -1    0    0    0    0 -0.00000000000E+00 -0.00000000000E+00 -0.45593999997E+02  0.45594000000E+02  0.51100000000E-03 0.  1.
    9900012    2    1    2    0    0 -0.34373979483E+02 -0.27250212416E+01  0.21544587164E+02  0.50528862745E+02  0.30000008799E+02 0.  0.
        -12    1    1    2    0    0  0.34373979483E+02  0.27250212416E+01 -0.21544587164E+02  0.40659137255E+02  0.00000000000E+00 0.  1.
         11    1    3    3    0    0 -0.27356425228E+02 -0.69061706631E+01  0.35461834506E+01  0.28436677228E+02  0.51100000000E-03 0. -1.
        -11    1    3    3    0    0 -0.53541094189E+01 -0.12125825785E+01  0.34414434424E+01  0.64792266057E+01  0.51100000000E-03 0.  1.
        -12    1    3    3    0    0 -0.16634448364E+01  0.53937320000E+01  0.14556960271E+02  0.15612958911E+02  0.00000000000E+00 0.  1.
</event>
<event>
 7    1  0.4520156E-012  0.5052887E+02  0.7816164E-02  0.1300439E+00
        -11   -1    0    0    0    0  0.00000000000E+00  0.00000000000E+00  0.45593999997E+02  0.45594000000E+02  0.51100000000E-03 0. -1.
         11   -1    0    0    0    0 -0.00000000000E+00 -0.00000000000E+00 -0.45593999997E+02  0.45594000000E+02  0.51100000000E-03 0.  1.
    9900012    2    1    2    0    0 -0.12104741886E+02 -0.17852504475E+02  0.34466333233E+02  0.50528870414E+02  0.30000032110E+02 0.  0.
        -12    1    1    2    0    0  0.12104741886E+02  0.17852504475E+02 -0.34466333233E+02  0.40659129586E+02  0.00000000000E+00 0.  1.
         11    1    3    3    0    0  0.22935669712E+01  0.31379403151E+01  0.11477475334E+02  0.12117737378E+02  0.51100000000E-03 0. -1.
        -11    1    3    3    0    0 -0.26958052156E+01  0.30075309287E+01  0.24285336573E+01  0.47127894111E+01  0.51100000000E-03 0.  1.
        -12    1    3    3    0    0 -0.11702503642E+02 -0.23997975719E+02  0.20560324242E+02  0.33698343624E+02  0.00000000000E+00 0.  1.
</event>
<event>
 7    1  0.4520156E-012  0.5052886E+02  0.7816164E-02  0.1300439E+00
        -11   -1    0    0    0    0  0.00000000000E+00  0.00000000000E+00  0.45593999997E+02  0.45594000000E+02  0.51100000000E-03 0.  1.
         11   -1    0    0    0    0 -0.00000000000E+00 -0.00000000000E+00 -0.45593999997E+02  0.45594000000E+02  0.51100000000E-03 0. -1.
    9900012    2    1    2    0    0  0.86703129706E+01 -0.35812071080E+02  0.17189729056E+02  0.50528861457E+02  0.30000004885E+02 0.  0.
        -12    1    1    2    0    0 -0.86703129706E+01  0.35812071080E+02 -0.17189729056E+02  0.40659138543E+02  0.00000000000E+00 0.  1.
         11    1    3    3    0    0  0.60018689754E+01 -0.18084585521E+02 -0.61056628624E+01  0.20008842643E+02  0.51100000000E-03 0. -1.
        -11    1    3    3    0    0  0.18973378803E+01 -0.68291291592E+01  0.34888337636E+01  0.78999276830E+01  0.51100000000E-03 0.  1.
         12    1    3    3    0    0  0.77110611487E+00 -0.10898356400E+02  0.19806558155E+02  0.22620091132E+02  0.00000000000E+00 0. -1.
</event>
<event>
 7    1  0.4520156E-012  0.5052886E+02  0.7816164E-02  0.1300439E+00
        -11   -1    0    0    0    0  0.00000000000E+00  0.00000000000E+00  0.45593999997E+02  0.45594000000E+02  0.51100000000E-03 0. -1.
         11   -1    0    0    0    0 -0.00000000000E+00 -0.00000000000E+00 -0.45593999997E+02  0.45594000000E+02  0.51100000000E-03 0.  1.
    9900012    2    1    2    0    0 -0.35877511101E+02  0.68477224141E+01 -0.17862761280E+02  0.50528863934E+02  0.30000012415E+02 0.  0.
         12    1    1    2    0    0  0.35877511101E+02 -0.68477224141E+01  0.17862761280E+02  0.40659136066E+02  0.00000000000E+00 0. -1.
         11    1    3    3    0    0 -0.76330941037E+01  0.12981213036E+02 -0.60669770999E+01  0.16235277296E+02  0.51100000000E-03 0. -1.
        -11    1    3    3    0    0 -0.22817328691E+02  0.13001570907E+01 -0.98479486310E+01  0.24885798953E+02  0.51100000000E-03 0.  1.
         12    1    3    3    0    0 -0.54270883064E+01 -0.74336477128E+01 -0.19478355493E+01  0.94077876853E+01  0.00000000000E+00 0. -1.
</event>
<event>
 7    1  0.4520156E-012  0.5052886E+02  0.7816164E-02  0.1300439E+00
        -11   -1    0    0    0    0  0.00000000000E+00  0.00000000000E+00  0.45593999997E+02  0.45594000000E+02  0.51100000000E-03 0. -1.
         11   -1    0    0    0    0 -0.00000000000E+00 -0.00000000000E+00 -0.45593999997E+02  0.45594000000E+02  0.51100000000E-03 0.  1.
    9900012    2    1    2    0    0 -0.36944642575E+02  0.13229546500E+02  0.10641344562E+02  0.50528859211E+02  0.29999998059E+02 0.  0.
        -12    1    1    2    0    0  0.36944642575E+02 -0.13229546500E+02 -0.10641344562E+02  0.40659140789E+02  0.00000000000E+00 0.  1.
         11    1    3    3    0    0 -0.52769084495E+01 -0.58879659869E+01 -0.70851459111E+00  0.79382554402E+01  0.51100000000E-03 0. -1.
        -11    1    3    3    0    0  0.13682628253E+01  0.48902241857E+01  0.15769118619E+01  0.53172443077E+01  0.51100000000E-03 0.  1.
        -12    1    3    3    0    0 -0.33035996951E+02  0.14227288301E+02  0.97729472915E+01  0.37273359463E+02  0.00000000000E+00 0.  1.
</event>
<event>
 7    1  0.4578943E-012  0.5052886E+02  0.7816164E-02  0.1300439E+00
        -11   -1    0    0    0    0  0.00000000000E+00  0.00000000000E+00  0.45593999997E+02  0.45594000000E+02  0.51100000000E-03 0. -1.
         11   -1    0    0    0    0 -0.00000000000E+00 -0.00000000000E+00 -0.45593999997E+02  0.45594000000E+02  0.51100000000E-03 0.  1.
    9900012    2    1    2    0    0 -0.17457455742E+02  0.18261416990E+01  0.36675170280E+02  0.50528859950E+02  0.30000000305E+02 0.  0.
        -12    1    1    2    0    0  0.17457455742E+02 -0.18261416990E+01 -0.36675170280E+02  0.40659140050E+02  0.00000000000E+00 0.  1.
         11    1    3    3    0    0 -0.84614400895E+01 -0.16621171681E+01  0.14615809394E+02  0.16969987813E+02  0.51100000000E-03 0. -1.
        -11    1    3    3    0    0 -0.11173439629E+02  0.10987360598E+02  0.82872824043E+01  0.17727010350E+02  0.51100000000E-03 0.  1.
         12    1    3    3    0    0  0.21774239768E+01 -0.74991017305E+01  0.13772078482E+02  0.15831861787E+02  0.00000000000E+00 0. -1.
</event>
<event>
 7    1  0.4520156E-012  0.5052885E+02  0.7816164E-02  0.1300439E+00
        -11   -1    0    0    0    0  0.00000000000E+00  0.00000000000E+00  0.45593999997E+02  0.45594000000E+02  0.51100000000E-03 0. -1.
         11   -1    0    0    0    0 -0.00000000000E+00 -0.00000000000E+00 -0.45593999997E+02  0.45594000000E+02  0.51100000000E-03 0.  1.
    9900012    2    1    2    0    0 -0.63698886662E+01  0.13793937502E+02  0.37713636792E+02  0.50528848589E+02  0.29999965771E+02 0.  0.
        -12    1    1    2    0    0  0.63698886662E+01 -0.13793937502E+02 -0.37713636792E+02  0.40659151411E+02  0.00000000000E+00 0.  1.
         11    1    3    3    0    0 -0.66086565461E+01  0.63732927222E+01  0.12904824701E+02  0.15837540917E+02  0.51100000000E-03 0. -1.
        -11    1    3    3    0    0 -0.94274146477E+01  0.18105576995E+01  0.27874674060E+01  0.99962113284E+01  0.51100000000E-03 0.  1.
        -12    1    3    3    0    0  0.96661825275E+01  0.56100870800E+01  0.22021344685E+02  0.24695096344E+02  0.00000000000E+00 0.  1.
</event>
<event>
 7    1  0.4520156E-012  0.5052886E+02  0.7816164E-02  0.1300439E+00
        -11   -1    0    0    0    0  0.00000000000E+00  0.00000000000E+00  0.45593999997E+02  0.45594000000E+02  0.51100000000E-03 0. -1.
         11   -1    0    0    0    0 -0.00000000000E+00 -0.00000000000E+00 -0.45593999997E+02  0.45594000000E+02  0.51100000000E-03 0.  1.
    9900012    2    1    2    0    0  0.56941527856E+01 -0.24337342704E+02 -0.32069236722E+02  0.50528861178E+02  0.30000004037E+02 0.  0.
         12    1    1    2    0    0 -0.56941527856E+01  0.24337342704E+02  0.32069236722E+02  0.40659138822E+02  0.00000000000E+00 0. -1.
         11    1    3    3    0    0  0.10186391892E+02 -0.85807688583E+01 -0.14847162185E+02  0.19945686230E+02  0.51100000000E-03 0. -1.
        -11    1    3    3    0    0  0.69406573230E+01 -0.68807284347E+01 -0.11312044906E+02  0.14949231020E+02  0.51100000000E-03 0.  1.
        -12    1    3    3    0    0 -0.11432896429E+02 -0.88758454108E+01 -0.59100296302E+01  0.15633943928E+02  0.00000000000E+00 0.  1.
</event>
<event>
 7    1  0.4520156E-012  0.5052886E+02  0.7816164E-02  0.1300439E+00
        -11   -1    0    0    0    0  0.00000000000E+00  0.00000000000E+00  0.45593999997E+02  0.45594000000E+02  0.51100000000E-03 0. -1.
         11   -1    0    0    0    0 -0.00000000000E+00 -0.00000000000E+00 -0.45593999997E+02  0.45594000000E+02  0.51100000000E-03 0.  1.
    9900012    2    1    2    0    0  0.36280737354E+02  0.13056174946E+02  0.12900000607E+02  0.50528860525E+02  0.30000002053E+02 0.  0.
        -12    1    1    2    0    0 -0.36280737354E+02 -0.13056174946E+02 -0.12900000607E+02  0.40659139475E+02  0.00000000000E+00 0.  1.
         11    1    3    3    0    0  0.31569569767E+02  0.39739820704E+01  0.15970311768E+02  0.35601701181E+02  0.51100000000E-03 0. -1.
        -11    1    3    3    0    0  0.34298576882E+01  0.11711122397E+01  0.31345245144E+01  0.47917295241E+01  0.51100000000E-03 0.  1.
        -12    1    3    3    0    0  0.12813098986E+01  0.79110806361E+01 -0.62048356749E+01  0.10135429820E+02  0.00000000000E+00 0.  1.
</event>
<event>
 7    1  0.4520156E-012  0.5052886E+02  0.7816164E-02  0.1300439E+00
        -11   -1    0    0    0    0  0.00000000000E+00  0.00000000000E+00  0.45593999997E+02  0.45594000000E+02  0.51100000000E-03 0. -1.
         11   -1    0    0    0    0 -0.00000000000E+00 -0.00000000000E+00 -0.45593999997E+02  0.45594000000E+02  0.51100000000E-03 0.  1.
    9900012    2    1    2    0    0  0.15061762262E+02 -0.27413540810E+02  0.25977047979E+02  0.50528856823E+02  0.29999990799E+02 0.  0.
        -12    1    1    2    0    0 -0.15061762262E+02  0.27413540810E+02 -0.25977047979E+02  0.40659143177E+02  0.00000000000E+00 0.  1.
         11    1    3    3    0    0  0.25049423983E+01 -0.17082595488E+02  0.25363456744E+02  0.30682156758E+02  0.51100000000E-03 0. -1.
        -11    1    3    3    0    0  0.43782249445E+01 -0.10170495956E+02  0.27151869918E+01  0.11400880769E+02  0.51100000000E-03 0.  1.
        -12    1    3    3    0    0  0.81785949190E+01 -0.16044936577E+00 -0.21015957571E+01  0.84458192956E+01  0.00000000000E+00 0.  1.
</event>
<event>
 7    1  0.4520156E-012  0.5052886E+02  0.7816164E-02  0.1300439E+00
        -11   -1    0    0    0    0  0.00000000000E+00  0.00000000000E+00  0.45593999997E+02  0.45594000000E+02  0.51100000000E-03 0. -1.
         11   -1    0    0    0    0 -0.00000000000E+00 -0.00000000000E+00 -0.45593999997E+02  0.45594000000E+02  0.51100000000E-03 0.  1.
    9900012    2    1    2    0    0  0.16431859909E+02 -0.64666723989E+01 -0.36624332926E+02  0.50528860384E+02  0.30000001625E+02 0.  0.
         12    1    1    2    0    0 -0.16431859909E+02  0.64666723989E+01  0.36624332926E+02  0.40659139616E+02  0.00000000000E+00 0. -1.
         11    1    3    3    0    0  0.42815174176E+01  0.21831509614E+01 -0.86399391960E-01  0.48067665467E+01  0.51100000000E-03 0. -1.
        -11    1    3    3    0    0 -0.34935731929E+01  0.30940052257E+01 -0.46900704543E+00  0.46901908128E+01  0.51100000000E-03 0.  1.
        -12    1    3    3    0    0  0.15643915684E+02 -0.11743828586E+02 -0.36068926489E+02  0.41031903025E+02  0.00000000000E+00 0.  1.
</event>
<event>
 7    1  0.4520156E-012  0.5052886E+02  0.7816164E-02  0.1300439E+00
        -11   -1    0    0    0    0  0.00000000000E+00  0.00000000000E+00  0.45593999997E+02  0.45594000000E+02  0.51100000000E-03 0. -1.
         11   -1    0    0    0    0 -0.00000000000E+00 -0.00000000000E+00 -0.45593999997E+02  0.45594000000E+02  0.51100000000E-03 0.  1.
    9900012    2    1    2    0    0 -0.19187815279E+01 -0.10029550395E+01 -0.40601453579E+02  0.50528859895E+02  0.30000000137E+02 0.  0.
         12    1    1    2    0    0  0.19187815279E+01  0.10029550395E+01  0.40601453579E+02  0.40659140105E+02  0.00000000000E+00 0. -1.
         11    1    3    3    0    0  0.43276477884E+01  0.82620050623E+00 -0.61689905717E+01  0.75807379318E+01  0.51100000000E-03 0. -1.
        -11    1    3    3    0    0  0.47460427892E+01  0.89845473895E+01 -0.11951922253E+02  0.15687429992E+02  0.51100000000E-03 0.  1.
         12    1    3    3    0    0 -0.10992472105E+02 -0.10813702935E+02 -0.22480540754E+02  0.27260691971E+02  0.00000000000E+00 0. -1.
</event>
<event>
 7    1  0.4520156E-012  0.5052886E+02  0.7816164E-02  0.1300439E+00
        -11   -1    0    0    0    0  0.00000000000E+00  0.00000000000E+00  0.45593999997E+02  0.45594000000E+02  0.51100000000E-03 0. -1.
         11   -1    0    0    0    0 -0.00000000000E+00 -0.00000000000E+00 -0.45593999997E+02  0.45594000000E+02  0.51100000000E-03 0.  1.
    9900012    2    1    2    0    0 -0.26440309902E+01 -0.94111039306E+01  0.39466515595E+02  0.50528860433E+02  0.30000001773E+02 0.  0.
        -12    1    1    2    0    0  0.26440309902E+01  0.94111039306E+01 -0.39466515595E+02  0.40659139567E+02  0.00000000000E+00 0.  1.
         11    1    3    3    0    0 -0.37393565215E+01 -0.22631865569E+01  0.13821400649E+02  0.14496065561E+02  0.51100000000E-03 0. -1.
        -11    1    3    3    0    0  0.46867202911E+01 -0.45025422929E+01  0.29456968218E+02  0.30165397578E+02  0.51100000000E-03 0.  1.
        -12    1    3    3    0    0 -0.35913947598E+01 -0.26453750809E+01 -0.38118532717E+01  0.58673972939E+01  0.00000000000E+00 0.  1.
</event>
<event>
 7    1  0.4520156E-012  0.5052887E+02  0.7816164E-02  0.1300439E+00
        -11   -1    0    0    0    0  0.00000000000E+00  0.00000000000E+00  0.45593999997E+02  0.45594000000E+02  0.51100000000E-03 0. -1.
         11   -1    0    0    0    0 -0.00000000000E+00 -0.00000000000E+00 -0.45593999997E+02  0.45594000000E+02  0.51100000000E-03 0.  1.
    9900012    2    1    2    0    0 -0.23670032905E+02  0.13369080308E+02  0.30235116425E+02  0.50528867800E+02  0.30000024165E+02 0.  0.
        -12    1    1    2    0    0  0.23670032905E+02 -0.13369080308E+02 -0.30235116425E+02  0.40659132200E+02  0.00000000000E+00 0.  1.
         11    1    3    3    0    0  0.31342784146E+01  0.13842743024E+01  0.11978421571E+02  0.12458832214E+02  0.51100000000E-03 0. -1.
        -11    1    3    3    0    0 -0.86905286296E+01  0.11379595813E+02  0.12629856357E+02  0.19092767232E+02  0.51100000000E-03 0.  1.
        -12    1    3    3    0    0 -0.18113782690E+02  0.60521019337E+00  0.56268384966E+01  0.18977268354E+02  0.00000000000E+00 0.  1.
</event>
<event>
 7    1  0.4520156E-012  0.5052882E+02  0.7816164E-02  0.1300439E+00
        -11   -1    0    0    0    0  0.00000000000E+00  0.00000000000E+00  0.45593999997E+02  0.45594000000E+02  0.51100000000E-03 0. -1.
         11   -1    0    0    0    0 -0.00000000000E+00 -0.00000000000E+00 -0.45593999997E+02  0.45594000000E+02  0.51100000000E-03 0.  1.
    9900012    2    1    2    0    0 -0.32342024015E+02 -0.22644294468E+02  0.97158731379E+01  0.50528821698E+02  0.29999884033E+02 0.  0.
         12    1    1    2    0    0  0.32342024015E+02  0.22644294468E+02 -0.97158731379E+01  0.40659178302E+02  0.00000000000E+00 0. -1.
         11    1    3    3    0    0 -0.34976957730E+00  0.50776420133E+01  0.15506772293E+01  0.53206566609E+01  0.51100000000E-03 0. -1.
        -11    1    3    3    0    0 -0.50773685944E+01 -0.22521176600E+01 -0.32483683997E+01  0.64345631802E+01  0.51100000000E-03 0.  1.
         12    1    3    3    0    0 -0.26914885844E+02 -0.25469818821E+02  0.11413564308E+02  0.38773601857E+02  0.00000000000E+00 0. -1.
</event>
<event>
 7    1  0.4520156E-012  0.5052885E+02  0.7816164E-02  0.1300439E+00
        -11   -1    0    0    0    0  0.00000000000E+00  0.00000000000E+00  0.45593999997E+02  0.45594000000E+02  0.51100000000E-03 0. -1.
         11   -1    0    0    0    0 -0.00000000000E+00 -0.00000000000E+00 -0.45593999997E+02  0.45594000000E+02  0.51100000000E-03 0.  1.
    9900012    2    1    2    0    0  0.28662689254E+02 -0.11276820345E+02  0.26541474504E+02  0.50528852183E+02  0.29999976696E+02 0.  0.
        -12    1    1    2    0    0 -0.28662689254E+02  0.11276820345E+02 -0.26541474504E+02  0.40659147817E+02  0.00000000000E+00 0.  1.
         11    1    3    3    0    0  0.18621968234E+02 -0.86015687663E+01  0.15762181919E+02  0.25869114118E+02  0.51100000000E-03 0. -1.
        -11    1    3    3    0    0  0.16017933595E+02 -0.23460099105E+01  0.80747892563E+01  0.18090886682E+02  0.51100000000E-03 0.  1.
         12    1    3    3    0    0 -0.59772125746E+01 -0.32924166798E+00  0.27045033281E+01  0.65688513828E+01  0.00000000000E+00 0. -1.
</event>
<event>
 7    1  0.4520156E-012  0.5052886E+02  0.7816164E-02  0.1300439E+00
        -11   -1    0    0    0    0  0.00000000000E+00  0.00000000000E+00  0.45593999997E+02  0.45594000000E+02  0.51100000000E-03 0. -1.
         11   -1    0    0    0    0 -0.00000000000E+00 -0.00000000000E+00 -0.45593999997E+02  0.45594000000E+02  0.51100000000E-03 0.  1.
    9900012    2    1    2    0    0  0.41721206403E+01  0.23755546876E+01  0.40374694957E+02  0.50528857811E+02  0.29999993802E+02 0.  0.
        -12    1    1    2    0    0 -0.41721206403E+01 -0.23755546876E+01 -0.40374694957E+02  0.40659142189E+02  0.00000000000E+00 0.  1.
         11    1    3    3    0    0  0.43806953183E+01  0.10890753608E+02  0.20806767640E+02  0.23889759009E+02  0.51100000000E-03 0. -1.
        -11    1    3    3    0    0 -0.19631882270E+01  0.28459918377E+01  0.12887260234E+02  0.13342985204E+02  0.51100000000E-03 0.  1.
        -12    1    3    3    0    0  0.17546135490E+01 -0.11361190758E+02  0.66806670831E+01  0.13296113598E+02  0.00000000000E+00 0.  1.
</event>
<event>
 7    1  0.4520156E-012  0.5052886E+02  0.7816164E-02  0.1300439E+00
        -11   -1    0    0    0    0  0.00000000000E+00  0.00000000000E+00  0.45593999997E+02  0.45594000000E+02  0.51100000000E-03 0. -1.
         11   -1    0    0    0    0 -0.00000000000E+00 -0.00000000000E+00 -0.45593999997E+02  0.45594000000E+02  0.51100000000E-03 0.  1.
    9900012    2    1    2    0    0  0.15894418883E+02  0.87200357386E+01  0.36393601791E+02  0.50528858024E+02  0.29999994449E+02 0.  0.
        -12    1    1    2    0    0 -0.15894418883E+02 -0.87200357386E+01 -0.36393601791E+02  0.40659141976E+02  0.00000000000E+00 0.  1.
         11    1    3    3    0    0 -0.17458496013E+01  0.59255568158E+00  0.50649741933E+01  0.53900906213E+01  0.51100000000E-03 0. -1.
        -11    1    3    3    0    0 -0.59888610221E+00  0.13130932795E+02  0.16559715182E+02  0.21142474495E+02  0.51100000000E-03 0.  1.
        -12    1    3    3    0    0  0.18239154586E+02 -0.50034527375E+01  0.14768912416E+02  0.23996292907E+02  0.00000000000E+00 0.  1.
</event>
<event>
 7    1  0.4520156E-012  0.5052888E+02  0.7816164E-02  0.1300439E+00
        -11   -1    0    0    0    0  0.00000000000E+00  0.00000000000E+00  0.45593999997E+02  0.45594000000E+02  0.51100000000E-03 0.  1.
         11   -1    0    0    0    0 -0.00000000000E+00 -0.00000000000E+00 -0.45593999997E+02  0.45594000000E+02  0.51100000000E-03 0. -1.
    9900012    2    1    2    0    0  0.26453251489E+02 -0.24679238888E+02  0.18555991205E+02  0.50528878563E+02  0.30000056880E+02 0.  0.
        -12    1    1    2    0    0 -0.26453251489E+02  0.24679238888E+02 -0.18555991205E+02  0.40659121437E+02  0.00000000000E+00 0.  1.
         11    1    3    3    0    0  0.20268657522E+01 -0.29396326401E+01 -0.13273678436E+01  0.38094002795E+01  0.51100000000E-03 0. -1.
        -11    1    3    3    0    0 -0.42694606632E+01 -0.85372974103E+00 -0.22406699823E+01  0.48967081857E+01  0.51100000000E-03 0.  1.
         12    1    3    3    0    0  0.28695846400E+02 -0.20885876507E+02  0.22124029031E+02  0.41822770098E+02  0.00000000000E+00 0. -1.
</event>
<event>
 7    1  0.4520156E-012  0.5052883E+02  0.7816164E-02  0.1300439E+00
        -11   -1    0    0    0    0  0.00000000000E+00  0.00000000000E+00  0.45593999997E+02  0.45594000000E+02  0.51100000000E-03 0. -1.
         11   -1    0    0    0    0 -0.00000000000E+00 -0.00000000000E+00 -0.45593999997E+02  0.45594000000E+02  0.51100000000E-03 0.  1.
    9900012    2    1    2    0    0 -0.41372310926E+01 -0.60219928900E+01  0.39997333544E+02  0.50528834119E+02  0.29999921789E+02 0.  0.
        -12    1    1    2    0    0  0.41372310926E+01  0.60219928900E+01 -0.39997333544E+02  0.40659165881E+02  0.00000000000E+00 0.  1.
         11    1    3    3    0    0  0.30345610882E+01  0.53999326011E+00  0.13492379273E+00  0.30851836914E+01  0.51100000000E-03 0. -1.
        -11    1    3    3    0    0 -0.56448714044E+01  0.66131147670E+01  0.47453382970E+01  0.99053569299E+01  0.51100000000E-03 0.  1.
        -12    1    3    3    0    0 -0.15269207764E+01 -0.13175100917E+02  0.35117071454E+02  0.37538293498E+02  0.00000000000E+00 0.  1.
</event>
<event>
 7    1  0.4520156E-012  0.5052887E+02  0.7816164E-02  0.1300439E+00
        -11   -1    0    0    0    0  0.00000000000E+00  0.00000000000E+00  0.45593999997E+02  0.45594000000E+02  0.51100000000E-03 0.  1.
         11   -1    0    0    0    0 -0.00000000000E+00 -0.00000000000E+00 -0.45593999997E+02  0.45594000000E+02  0.51100000000E-03 0. -1.
    9900012    2    1    2    0    0 -0.13052777792E+02 -0.16851152107E+02  0.34624098794E+02  0.50528873685E+02  0.30000042052E+02 0.  0.
        -12    1    1    2    0    0  0.13052777792E+02  0.16851152107E+02 -0.34624098794E+02  0.40659126315E+02  0.00000000000E+00 0.  1.
         11    1    3    3    0    0 -0.10304704426E+02 -0.18876233438E+02  0.11814235935E+02  0.24537222604E+02  0.51100000000E-03 0. -1.
        -11    1    3    3    0    0  0.19889545325E+01 -0.35691868682E+01  0.36554333142E+01  0.54824472645E+01  0.51100000000E-03 0.  1.
         12    1    3    3    0    0 -0.47370278990E+01  0.55942681990E+01  0.19154429545E+02  0.20509203817E+02  0.00000000000E+00 0. -1.
</event>
<event>
 7    1  0.4520156E-012  0.5052887E+02  0.7816164E-02  0.1300439E+00
        -11   -1    0    0    0    0  0.00000000000E+00  0.00000000000E+00  0.45593999997E+02  0.45594000000E+02  0.51100000000E-03 0. -1.
         11   -1    0    0    0    0 -0.00000000000E+00 -0.00000000000E+00 -0.45593999997E+02  0.45594000000E+02  0.51100000000E-03 0.  1.
    9900012    2    1    2    0    0 -0.39563702834E+02 -0.93414108622E+01 -0.78504492809E+00  0.50528870221E+02  0.30000031524E+02 0.  0.
         12    1    1    2    0    0  0.39563702834E+02  0.93414108622E+01  0.78504492809E+00  0.40659129779E+02  0.00000000000E+00 0. -1.
         11    1    3    3    0    0 -0.22740392136E+02  0.11065271247E+01  0.51098757307E+00  0.22773031097E+02  0.51100000000E-03 0. -1.
        -11    1    3    3    0    0 -0.23502979373E+01  0.48632922727E+01  0.31075845702E+01  0.62315803972E+01  0.51100000000E-03 0.  1.
         12    1    3    3    0    0 -0.14473012761E+02 -0.15311230260E+02 -0.44036170714E+01  0.21524258727E+02  0.00000000000E+00 0. -1.
</event>
<event>
 7    1  0.4520156E-012  0.5052886E+02  0.7816164E-02  0.1300439E+00
        -11   -1    0    0    0    0  0.00000000000E+00  0.00000000000E+00  0.45593999997E+02  0.45594000000E+02  0.51100000000E-03 0.  1.
         11   -1    0    0    0    0 -0.00000000000E+00 -0.00000000000E+00 -0.45593999997E+02  0.45594000000E+02  0.51100000000E-03 0. -1.
    9900012    2    1    2    0    0 -0.30920227514E+02 -0.25962635272E+02  0.48006718395E+01  0.50528863881E+02  0.30000012253E+02 0.  0.
        -12    1    1    2    0    0  0.30920227514E+02  0.25962635272E+02 -0.48006718395E+01  0.40659136119E+02  0.00000000000E+00 0.  1.
         11    1    3    3    0    0 -0.81182107042E+01 -0.19082011610E+02  0.60292373828E+01  0.21595837928E+02  0.51100000000E-03 0. -1.
        -11    1    3    3    0    0  0.11801661843E+01 -0.41618455215E+01 -0.20416754423E+01  0.47835331336E+01  0.51100000000E-03 0.  1.
         12    1    3    3    0    0 -0.23982182994E+02 -0.27187781412E+01  0.81310989898E+00  0.24149492820E+02  0.00000000000E+00 0. -1.
</event>
<event>
 7    1  0.4520156E-012  0.5052886E+02  0.7816164E-02  0.1300439E+00
        -11   -1    0    0    0    0  0.00000000000E+00  0.00000000000E+00  0.45593999997E+02  0.45594000000E+02  0.51100000000E-03 0. -1.
         11   -1    0    0    0    0 -0.00000000000E+00 -0.00000000000E+00 -0.45593999997E+02  0.45594000000E+02  0.51100000000E-03 0.  1.
    9900012    2    1    2    0    0  0.70878187055E+01 -0.33052162184E+02 -0.22593868176E+02  0.50528862304E+02  0.30000007459E+02 0.  0.
         12    1    1    2    0    0 -0.70878187055E+01  0.33052162184E+02  0.22593868176E+02  0.40659137696E+02  0.00000000000E+00 0. -1.
         11    1    3    3    0    0  0.98803529625E+01 -0.14380745700E+02 -0.65842105911E+01  0.18648835109E+02  0.51100000000E-03 0. -1.
        -11    1    3    3    0    0  0.45783913241E+01 -0.83969050440E+01  0.21007265222E+01  0.97919729175E+01  0.51100000000E-03 0.  1.
        -12    1    3    3    0    0 -0.73709255811E+01 -0.10274511440E+02 -0.18110384107E+02  0.22088054277E+02  0.00000000000E+00 0.  1.
</event>
<event>
 7    1  0.4520156E-012  0.5052887E+02  0.7816164E-02  0.1300439E+00
        -11   -1    0    0    0    0  0.00000000000E+00  0.00000000000E+00  0.45593999997E+02  0.45594000000E+02  0.51100000000E-03 0. -1.
         11   -1    0    0    0    0 -0.00000000000E+00 -0.00000000000E+00 -0.45593999997E+02  0.45594000000E+02  0.51100000000E-03 0.  1.
    9900012    2    1    2    0    0 -0.35347037386E+02  0.99696356232E+01  0.17445871207E+02  0.50528866849E+02  0.30000021274E+02 0.  0.
        -12    1    1    2    0    0  0.35347037386E+02 -0.99696356232E+01 -0.17445871207E+02  0.40659133151E+02  0.00000000000E+00 0.  1.
         11    1    3    3    0    0 -0.19473176744E+02  0.11878756440E+02  0.71662264577E+01  0.23909501646E+02  0.51100000000E-03 0. -1.
        -11    1    3    3    0    0 -0.11683857133E+02 -0.18716621251E+01 -0.34006172665E+01  0.12311776259E+02  0.51100000000E-03 0.  1.
         12    1    3    3    0    0 -0.41900035096E+01 -0.37458691969E-01  0.13680262015E+02  0.14307588943E+02  0.00000000000E+00 0. -1.
</event>
<event>
 7    1  0.4520156E-012  0.5052886E+02  0.7816164E-02  0.1300439E+00
        -11   -1    0    0    0    0  0.00000000000E+00  0.00000000000E+00  0.45593999997E+02  0.45594000000E+02  0.51100000000E-03 0. -1.
         11   -1    0    0    0    0 -0.00000000000E+00 -0.00000000000E+00 -0.45593999997E+02  0.45594000000E+02  0.51100000000E-03 0.  1.
    9900012    2    1    2    0    0 -0.19213376230E+02 -0.13658810682E+02  0.33127764540E+02  0.50528859345E+02  0.29999998465E+02 0.  0.
        -12    1    1    2    0    0  0.19213376230E+02  0.13658810682E+02 -0.33127764540E+02  0.40659140655E+02  0.00000000000E+00 0.  1.
         11    1    3    3    0    0 -0.63592869892E+01 -0.10702866177E+02  0.18467373142E+02  0.22271859968E+02  0.51100000000E-03 0. -1.
        -11    1    3    3    0    0 -0.52938979147E+01 -0.10623439124E+02  0.12569502269E+02  0.17288007448E+02  0.51100000000E-03 0.  1.
        -12    1    3    3    0    0 -0.75601913261E+01  0.76674946179E+01  0.20908891286E+01  0.10968991930E+02  0.00000000000E+00 0.  1.
</event>
<event>
 7    1  0.4520156E-012  0.5052882E+02  0.7816164E-02  0.1300439E+00
        -11   -1    0    0    0    0  0.00000000000E+00  0.00000000000E+00  0.45593999997E+02  0.45594000000E+02  0.51100000000E-03 0. -1.
         11   -1    0    0    0    0 -0.00000000000E+00 -0.00000000000E+00 -0.45593999997E+02  0.45594000000E+02  0.51100000000E-03 0.  1.
    9900012    2    1    2    0    0  0.28286428252E+01 -0.11675727508E+02  0.38843854871E+02  0.50528820295E+02  0.29999879769E+02 0.  0.
        -12    1    1    2    0    0 -0.28286428252E+01  0.11675727508E+02 -0.38843854871E+02  0.40659179705E+02  0.00000000000E+00 0.  1.
         11    1    3    3    0    0 -0.25008748407E+01 -0.14830240763E+01 -0.30534449906E+01  0.42163090437E+01  0.51100000000E-03 0. -1.
        -11    1    3    3    0    0  0.12745923596E+01 -0.54122447191E+01  0.19743606627E+01  0.59004303970E+01  0.51100000000E-03 0.  1.
         12    1    3    3    0    0  0.40549253063E+01 -0.47804587121E+01  0.39922939199E+02  0.40412080854E+02  0.00000000000E+00 0. -1.
</event>
<event>
 7    1  0.4520156E-012  0.5052891E+02  0.7816164E-02  0.1300439E+00
        -11   -1    0    0    0    0  0.00000000000E+00  0.00000000000E+00  0.45593999997E+02  0.45594000000E+02  0.51100000000E-03 0. -1.
         11   -1    0    0    0    0 -0.00000000000E+00 -0.00000000000E+00 -0.45593999997E+02  0.45594000000E+02  0.51100000000E-03 0.  1.
    9900012    2    1    2    0    0 -0.26801911279E+02  0.16002127492E+02 -0.26052849604E+02  0.50528911164E+02  0.30000155972E+02 0.  0.
         12    1    1    2    0    0  0.26801911279E+02 -0.16002127492E+02  0.26052849604E+02  0.40659088836E+02  0.00000000000E+00 0. -1.
         11    1    3    3    0    0  0.26759575763E+01  0.34606764686E+01 -0.71864404630E+01  0.84132013740E+01  0.51100000000E-03 0. -1.
        -11    1    3    3    0    0 -0.95199266459E+01  0.14769313116E+02 -0.87677722911E+01  0.19637602819E+02  0.51100000000E-03 0.  1.
        -12    1    3    3    0    0 -0.19957942210E+02 -0.22278620924E+01 -0.10098636850E+02  0.22478106970E+02  0.00000000000E+00 0.  1.
</event>
<event>
 7    1  0.4520156E-012  0.5052888E+02  0.7816164E-02  0.1300439E+00
        -11   -1    0    0    0    0  0.00000000000E+00  0.00000000000E+00  0.45593999997E+02  0.45594000000E+02  0.51100000000E-03 0.  1.
         11   -1    0    0    0    0 -0.00000000000E+00 -0.00000000000E+00 -0.45593999997E+02  0.45594000000E+02  0.51100000000E-03 0. -1.
    9900012    2    1    2    0    0  0.70313871233E+01  0.39995222296E+02  0.20261841934E+01  0.50528884985E+02  0.30000076401E+02 0.  0.
         12    1    1    2    0    0 -0.70313871233E+01 -0.39995222296E+02 -0.20261841934E+01  0.40659115015E+02  0.00000000000E+00 0. -1.
         11    1    3    3    0    0  0.47604860969E+01  0.36954144701E+01 -0.43446923991E+01  0.74293114276E+01  0.51100000000E-03 0. -1.
        -11    1    3    3    0    0  0.11530122778E+02  0.12265300521E+02  0.16557364717E+01  0.16915164547E+02  0.51100000000E-03 0.  1.
         12    1    3    3    0    0 -0.92592217514E+01  0.24034507305E+02  0.47151401208E+01  0.26184409010E+02  0.00000000000E+00 0. -1.
</event>
<event>
 7    1  0.4520156E-012  0.5052886E+02  0.7816164E-02  0.1300439E+00
        -11   -1    0    0    0    0  0.00000000000E+00  0.00000000000E+00  0.45593999997E+02  0.45594000000E+02  0.51100000000E-03 0. -1.
         11   -1    0    0    0    0 -0.00000000000E+00 -0.00000000000E+00 -0.45593999997E+02  0.45594000000E+02  0.51100000000E-03 0.  1.
    9900012    2    1    2    0    0 -0.23119823737E+02  0.53221939331E+01  0.33019897227E+02  0.50528860673E+02  0.30000002503E+02 0.  0.
        -12    1    1    2    0    0  0.23119823737E+02 -0.53221939331E+01 -0.33019897227E+02  0.40659139327E+02  0.00000000000E+00 0.  1.
         11    1    3    3    0    0 -0.13239231352E+02  0.16386348898E+01  0.18687730189E+02  0.22960697528E+02  0.51100000000E-03 0. -1.
        -11    1    3    3    0    0 -0.84268572359E+01 -0.78220665914E+01  0.44399354447E+01  0.12325164325E+02  0.51100000000E-03 0.  1.
        -12    1    3    3    0    0 -0.14537351490E+01  0.11505625635E+02  0.98922315934E+01  0.15242998820E+02  0.00000000000E+00 0.  1.
</event>
<event>
 7    1  0.4520156E-012  0.5052884E+02  0.7816164E-02  0.1300439E+00
        -11   -1    0    0    0    0  0.00000000000E+00  0.00000000000E+00  0.45593999997E+02  0.45594000000E+02  0.51100000000E-03 0. -1.
         11   -1    0    0    0    0 -0.00000000000E+00 -0.00000000000E+00 -0.45593999997E+02  0.45594000000E+02  0.51100000000E-03 0.  1.
    9900012    2    1    2    0    0 -0.14361100245E+01  0.32663835961E+02 -0.24169794401E+02  0.50528836788E+02  0.29999929901E+02 0.  0.
         12    1    1    2    0    0  0.14361100245E+01 -0.32663835961E+02  0.24169794401E+02  0.40659163212E+02  0.00000000000E+00 0. -1.
         11    1    3    3    0    0 -0.78846304338E+01  0.22556172397E+02 -0.40036522764E+01  0.24227619406E+02  0.51100000000E-03 0. -1.
        -11    1    3    3    0    0  0.55356204530E+01 -0.14923101745E-01 -0.28588390851E+01  0.62302710755E+01  0.51100000000E-03 0.  1.
        -12    1    3    3    0    0  0.91289995630E+00  0.10122586667E+02 -0.17307303039E+02  0.20070946307E+02  0.00000000000E+00 0.  1.
</event>
<event>
 7    1  0.4520156E-012  0.5052886E+02  0.7816164E-02  0.1300439E+00
        -11   -1    0    0    0    0  0.00000000000E+00  0.00000000000E+00  0.45593999997E+02  0.45594000000E+02  0.51100000000E-03 0. -1.
         11   -1    0    0    0    0 -0.00000000000E+00 -0.00000000000E+00 -0.45593999997E+02  0.45594000000E+02  0.51100000000E-03 0.  1.
    9900012    2    1    2    0    0  0.11994159603E+02  0.16787849782E+02 -0.35035321142E+02  0.50528862129E+02  0.30000006926E+02 0.  0.
         12    1    1    2    0    0 -0.11994159603E+02 -0.16787849782E+02  0.35035321142E+02  0.40659137871E+02  0.00000000000E+00 0. -1.
         11    1    3    3    0    0  0.14954568129E+02  0.18404369639E+02 -0.16689427222E+02  0.28998222549E+02  0.51100000000E-03 0. -1.
        -11    1    3    3    0    0  0.12108259161E+01  0.18990192829E+01 -0.14919897232E+02  0.15088926645E+02  0.51100000000E-03 0.  1.
        -12    1    3    3    0    0 -0.41712344421E+01 -0.35155391401E+01 -0.34259966880E+01  0.64417129339E+01  0.00000000000E+00 0.  1.
</event>
<event>
 7    1  0.4520156E-012  0.5052886E+02  0.7816164E-02  0.1300439E+00
        -11   -1    0    0    0    0  0.00000000000E+00  0.00000000000E+00  0.45593999997E+02  0.45594000000E+02  0.51100000000E-03 0. -1.
         11   -1    0    0    0    0 -0.00000000000E+00 -0.00000000000E+00 -0.45593999997E+02  0.45594000000E+02  0.51100000000E-03 0.  1.
    9900012    2    1    2    0    0  0.25704099219E+02 -0.23722602612E+02 -0.20729286445E+02  0.50528857020E+02  0.29999991398E+02 0.  0.
         12    1    1    2    0    0 -0.25704099219E+02  0.23722602612E+02  0.20729286445E+02  0.40659142980E+02  0.00000000000E+00 0. -1.
         11    1    3    3    0    0  0.25343680139E+01 -0.22719244938E+01  0.10213525316E+01  0.35535648848E+01  0.51100000000E-03 0. -1.
        -11    1    3    3    0    0  0.10962983918E+01  0.56968204594E+01 -0.67662236132E+01  0.89127670090E+01  0.51100000000E-03 0.  1.
        -12    1    3    3    0    0  0.22073432814E+02 -0.27147498578E+02 -0.14984415363E+02  0.38062525126E+02  0.00000000000E+00 0.  1.
</event>
<event>
 7    1  0.4520156E-012  0.5052885E+02  0.7816164E-02  0.1300439E+00
        -11   -1    0    0    0    0  0.00000000000E+00  0.00000000000E+00  0.45593999997E+02  0.45594000000E+02  0.51100000000E-03 0. -1.
         11   -1    0    0    0    0 -0.00000000000E+00 -0.00000000000E+00 -0.45593999997E+02  0.45594000000E+02  0.51100000000E-03 0.  1.
    9900012    2    1    2    0    0  0.20809456813E+02 -0.30081535169E+02 -0.17754827497E+02  0.50528854037E+02  0.29999982331E+02 0.  0.
         12    1    1    2    0    0 -0.20809456813E+02  0.30081535169E+02  0.17754827497E+02  0.40659145963E+02  0.00000000000E+00 0. -1.
         11    1    3    3    0    0  0.17503199866E+02 -0.24213632602E+02 -0.15058091960E+02  0.33457557338E+02  0.51100000000E-03 0. -1.
        -11    1    3    3    0    0  0.87448128723E+01 -0.71190080066E+01 -0.18405175451E+01  0.11425389808E+02  0.51100000000E-03 0.  1.
         12    1    3    3    0    0 -0.54385559253E+01  0.12511054388E+01 -0.85621799204E+00  0.56459068909E+01  0.00000000000E+00 0. -1.
</event>
<event>
 7    1  0.4520156E-012  0.5052886E+02  0.7816164E-02  0.1300439E+00
        -11   -1    0    0    0    0  0.00000000000E+00  0.00000000000E+00  0.45593999997E+02  0.45594000000E+02  0.51100000000E-03 0.  1.
         11   -1    0    0    0    0 -0.00000000000E+00 -0.00000000000E+00 -0.45593999997E+02  0.45594000000E+02  0.51100000000E-03 0. -1.
    9900012    2    1    2    0    0 -0.74758294275E+01 -0.38267423857E+02 -0.11527435921E+02  0.50528861627E+02  0.30000005402E+02 0.  0.
        -12    1    1    2    0    0  0.74758294275E+01  0.38267423857E+02  0.11527435921E+02  0.40659138373E+02  0.00000000000E+00 0.  1.
         11    1    3    3    0    0 -0.71382149436E+01  0.70719948976E+00 -0.20845011559E+01  0.74698988634E+01  0.51100000000E-03 0. -1.
        -11    1    3    3    0    0 -0.38803121162E+01 -0.55674991257E+01 -0.63980962544E+01  0.93268164223E+01  0.51100000000E-03 0.  1.
         12    1    3    3    0    0  0.35426976322E+01 -0.33407124221E+02 -0.30448385104E+01  0.33732146342E+02  0.00000000000E+00 0. -1.
</event>
<event>
 7    1  0.4520156E-012  0.5052886E+02  0.7816164E-02  0.1300439E+00
        -11   -1    0    0    0    0  0.00000000000E+00  0.00000000000E+00  0.45593999997E+02  0.45594000000E+02  0.51100000000E-03 0. -1.
         11   -1    0    0    0    0 -0.00000000000E+00 -0.00000000000E+00 -0.45593999997E+02  0.45594000000E+02  0.51100000000E-03 0.  1.
    9900012    2    1    2    0    0 -0.18238837524E+02 -0.24377264596E+02  0.26949202354E+02  0.50528859196E+02  0.29999998011E+02 0.  0.
        -12    1    1    2    0    0  0.18238837524E+02  0.24377264596E+02 -0.26949202354E+02  0.40659140804E+02  0.00000000000E+00 0.  1.
         11    1    3    3    0    0 -0.11778219265E+02 -0.27248249793E+01  0.17360897449E+02  0.21155422017E+02  0.51100000000E-03 0. -1.
        -11    1    3    3    0    0 -0.19527517299E+01  0.24218965321E+01  0.21297141187E+01  0.37702128082E+01  0.51100000000E-03 0.  1.
        -12    1    3    3    0    0 -0.45078665286E+01 -0.24074336149E+02  0.74585907871E+01  0.25603224371E+02  0.00000000000E+00 0.  1.
</event>
<event>
 7    1  0.4520156E-012  0.5052886E+02  0.7816164E-02  0.1300439E+00
        -11   -1    0    0    0    0  0.00000000000E+00  0.00000000000E+00  0.45593999997E+02  0.45594000000E+02  0.51100000000E-03 0. -1.
         11   -1    0    0    0    0 -0.00000000000E+00 -0.00000000000E+00 -0.45593999997E+02  0.45594000000E+02  0.51100000000E-03 0.  1.
    9900012    2    1    2    0    0 -0.70496507342E+01  0.13727160877E+02  0.37616927329E+02  0.50528859048E+02  0.29999997564E+02 0.  0.
        -12    1    1    2    0    0  0.70496507342E+01 -0.13727160877E+02 -0.37616927329E+02  0.40659140952E+02  0.00000000000E+00 0.  1.
         11    1    3    3    0    0 -0.77057947555E+01  0.84928432061E+01  0.31052246410E+02  0.33102109690E+02  0.51100000000E-03 0. -1.
        -11    1    3    3    0    0 -0.54778867471E+01  0.57613444957E+01  0.78112117688E+01  0.11145194622E+02  0.51100000000E-03 0.  1.
        -12    1    3    3    0    0  0.61340307685E+01 -0.52702682476E+00 -0.12465308498E+01  0.62815547360E+01  0.00000000000E+00 0.  1.
</event>
<event>
 7    1  0.4520156E-012  0.5052886E+02  0.7816164E-02  0.1300439E+00
        -11   -1    0    0    0    0  0.00000000000E+00  0.00000000000E+00  0.45593999997E+02  0.45594000000E+02  0.51100000000E-03 0. -1.
         11   -1    0    0    0    0 -0.00000000000E+00 -0.00000000000E+00 -0.45593999997E+02  0.45594000000E+02  0.51100000000E-03 0.  1.
    9900012    2    1    2    0    0  0.12747220765E+02 -0.15554153116E+02 -0.35337551019E+02  0.50528857997E+02  0.29999994368E+02 0.  0.
         12    1    1    2    0    0 -0.12747220765E+02  0.15554153116E+02  0.35337551019E+02  0.40659142003E+02  0.00000000000E+00 0. -1.
         11    1    3    3    0    0  0.27499898856E+01 -0.60309554493E+01 -0.19938814562E+02  0.21011691850E+02  0.51100000000E-03 0. -1.
        -11    1    3    3    0    0 -0.48927247753E+01 -0.75033234629E+01 -0.10297967700E+02  0.13648690696E+02  0.51100000000E-03 0.  1.
         12    1    3    3    0    0  0.14889955655E+02 -0.20198742037E+01 -0.51007687570E+01  0.15868475450E+02  0.00000000000E+00 0. -1.
</event>
<event>
 7    1  0.4520156E-012  0.5052886E+02  0.7816164E-02  0.1300439E+00
        -11   -1    0    0    0    0  0.00000000000E+00  0.00000000000E+00  0.45593999997E+02  0.45594000000E+02  0.51100000000E-03 0. -1.
         11   -1    0    0    0    0 -0.00000000000E+00 -0.00000000000E+00 -0.45593999997E+02  0.45594000000E+02  0.51100000000E-03 0.  1.
    9900012    2    1    2    0    0  0.15690214717E+02 -0.36685130495E+02 -0.78220333723E+01  0.50528857813E+02  0.29999993809E+02 0.  0.
        -12    1    1    2    0    0 -0.15690214717E+02  0.36685130495E+02  0.78220333723E+01  0.40659142187E+02  0.00000000000E+00 0.  1.
         11    1    3    3    0    0 -0.38127566283E+01 -0.78217873844E+01 -0.43321339972E+01  0.97203321046E+01  0.51100000000E-03 0. -1.
        -11    1    3    3    0    0 -0.35905497156E+01 -0.46859369377E+01  0.31948094007E+01  0.67124406599E+01  0.51100000000E-03 0.  1.
         12    1    3    3    0    0  0.23093521060E+02 -0.24177406173E+02 -0.66847087758E+01  0.34096085049E+02  0.00000000000E+00 0. -1.
</event>
<event>
 7    1  0.4520156E-012  0.5052887E+02  0.7816164E-02  0.1300439E+00
        -11   -1    0    0    0    0  0.00000000000E+00  0.00000000000E+00  0.45593999997E+02  0.45594000000E+02  0.51100000000E-03 0. -1.
         11   -1    0    0    0    0 -0.00000000000E+00 -0.00000000000E+00 -0.45593999997E+02  0.45594000000E+02  0.51100000000E-03 0.  1.
    9900012    2    1    2    0    0  0.16552990000E+01  0.19662268433E+01 -0.40577808067E+02  0.50528873468E+02  0.30000041394E+02 0.  0.
         12    1    1    2    0    0 -0.16552990000E+01 -0.19662268433E+01  0.40577808067E+02  0.40659126532E+02  0.00000000000E+00 0. -1.
         11    1    3    3    0    0  0.57726504349E+01  0.41253026973E+01 -0.11486615010E+02  0.13501256980E+02  0.51100000000E-03 0. -1.
        -11    1    3    3    0    0  0.64687110431E+01  0.10872651160E+01 -0.23927147472E+02  0.24809972882E+02  0.51100000000E-03 0.  1.
         12    1    3    3    0    0 -0.10586062478E+02 -0.32463409699E+01 -0.51640455849E+01  0.12217643606E+02  0.00000000000E+00 0. -1.
</event>
<event>
 7    1  0.4520156E-012  0.5052886E+02  0.7816164E-02  0.1300439E+00
        -11   -1    0    0    0    0  0.00000000000E+00  0.00000000000E+00  0.45593999997E+02  0.45594000000E+02  0.51100000000E-03 0.  1.
         11   -1    0    0    0    0 -0.00000000000E+00 -0.00000000000E+00 -0.45593999997E+02  0.45594000000E+02  0.51100000000E-03 0. -1.
    9900012    2    1    2    0    0 -0.12613274774E+02  0.38646395621E+02 -0.72589354860E+00  0.50528861833E+02  0.30000006027E+02 0.  0.
        -12    1    1    2    0    0  0.12613274774E+02 -0.38646395621E+02  0.72589354860E+00  0.40659138167E+02  0.00000000000E+00 0.  1.
         11    1    3    3    0    0  0.24877600515E+01  0.19417872883E+02  0.13880195736E+01  0.19625731476E+02  0.51100000000E-03 0. -1.
        -11    1    3    3    0    0 -0.12489889154E+02  0.21396602814E+02 -0.62513832495E+01  0.25551746239E+02  0.51100000000E-03 0.  1.
        -12    1    3    3    0    0 -0.26111456711E+01 -0.21680800752E+01  0.41374701272E+01  0.53513841183E+01  0.00000000000E+00 0.  1.
</event>
<event>
 7    1  0.4520156E-012  0.5052886E+02  0.7816164E-02  0.1300439E+00
        -11   -1    0    0    0    0  0.00000000000E+00  0.00000000000E+00  0.45593999997E+02  0.45594000000E+02  0.51100000000E-03 0. -1.
         11   -1    0    0    0    0 -0.00000000000E+00 -0.00000000000E+00 -0.45593999997E+02  0.45594000000E+02  0.51100000000E-03 0.  1.
    9900012    2    1    2    0    0 -0.23951882348E+02  0.71979439583E+01  0.32057182605E+02  0.50528855619E+02  0.29999987140E+02 0.  0.
        -12    1    1    2    0    0  0.23951882348E+02 -0.71979439583E+01 -0.32057182605E+02  0.40659144381E+02  0.00000000000E+00 0.  1.
         11    1    3    3    0    0 -0.16083575350E+02  0.51152243895E+01  0.31600988346E+01  0.17170705911E+02  0.51100000000E-03 0. -1.
        -11    1    3    3    0    0 -0.88697372975E+01 -0.44561666018E+01  0.15309629834E+02  0.18245942739E+02  0.51100000000E-03 0.  1.
         12    1    3    3    0    0  0.10014302997E+01  0.65388861706E+01  0.13587453936E+02  0.15112206969E+02  0.00000000000E+00 0. -1.
</event>
<event>
 7    1  0.4520156E-012  0.5052888E+02  0.7816164E-02  0.1300439E+00
        -11   -1    0    0    0    0  0.00000000000E+00  0.00000000000E+00  0.45593999997E+02  0.45594000000E+02  0.51100000000E-03 0. -1.
         11   -1    0    0    0    0 -0.00000000000E+00 -0.00000000000E+00 -0.45593999997E+02  0.45594000000E+02  0.51100000000E-03 0.  1.
    9900012    2    1    2    0    0  0.37573316823E+01 -0.11442086299E+02  0.38834586124E+02  0.50528880977E+02  0.30000064219E+02 0.  0.
        -12    1    1    2    0    0 -0.37573316823E+01  0.11442086299E+02 -0.38834586124E+02  0.40659119023E+02  0.00000000000E+00 0.  1.
         11    1    3    3    0    0  0.56828336296E+01 -0.96683899856E+01  0.24220976748E+02  0.26691348371E+02  0.51100000000E-03 0. -1.
        -11    1    3    3    0    0  0.60206516801E+01 -0.70461970429E+01  0.78565054512E+01  0.12149971917E+02  0.51100000000E-03 0.  1.
         12    1    3    3    0    0 -0.79461536274E+01  0.52725007295E+01  0.67571039256E+01  0.11687560690E+02  0.00000000000E+00 0. -1.
</event>
<event>
 7    1  0.4520156E-012  0.5052886E+02  0.7816164E-02  0.1300439E+00
        -11   -1    0    0    0    0  0.00000000000E+00  0.00000000000E+00  0.45593999997E+02  0.45594000000E+02  0.51100000000E-03 0. -1.
         11   -1    0    0    0    0 -0.00000000000E+00 -0.00000000000E+00 -0.45593999997E+02  0.45594000000E+02  0.51100000000E-03 0.  1.
    9900012    2    1    2    0    0  0.67140763003E+00  0.12492198646E+01  0.40634396802E+02  0.50528861520E+02  0.30000005076E+02 0.  0.
        -12    1    1    2    0    0 -0.67140763003E+00 -0.12492198646E+01 -0.40634396802E+02  0.40659138480E+02  0.00000000000E+00 0.  1.
         11    1    3    3    0    0  0.76652391228E+01 -0.70230297170E+00  0.51964174322E+01  0.92871887385E+01  0.51100000000E-03 0. -1.
        -11    1    3    3    0    0  0.38249901668E+01 -0.61954015110E+01  0.15674919759E+02  0.17283421518E+02  0.51100000000E-03 0.  1.
         12    1    3    3    0    0 -0.10818821660E+02  0.81469243473E+01  0.19763059611E+02  0.23958251263E+02  0.00000000000E+00 0. -1.
</event>
<event>
 7    1  0.4520156E-012  0.5052887E+02  0.7816164E-02  0.1300439E+00
        -11   -1    0    0    0    0  0.00000000000E+00  0.00000000000E+00  0.45593999997E+02  0.45594000000E+02  0.51100000000E-03 0. -1.
         11   -1    0    0    0    0 -0.00000000000E+00 -0.00000000000E+00 -0.45593999997E+02  0.45594000000E+02  0.51100000000E-03 0.  1.
    9900012    2    1    2    0    0  0.15078402754E+02 -0.12825200760E+02 -0.35515078037E+02  0.50528870986E+02  0.30000033850E+02 0.  0.
         12    1    1    2    0    0 -0.15078402754E+02  0.12825200760E+02  0.35515078037E+02  0.40659129014E+02  0.00000000000E+00 0. -1.
         11    1    3    3    0    0 -0.37998629458E+01 -0.12653684739E+01 -0.45219766329E+01  0.60405619532E+01  0.51100000000E-03 0. -1.
        -11    1    3    3    0    0  0.26702564843E+01  0.36299659903E+01 -0.18420747958E+02  0.18963936257E+02  0.51100000000E-03 0.  1.
        -12    1    3    3    0    0  0.16208009215E+02 -0.15189798277E+02 -0.12572353447E+02  0.25524372776E+02  0.00000000000E+00 0.  1.
</event>
<event>
 7    1  0.4520156E-012  0.5052887E+02  0.7816164E-02  0.1300439E+00
        -11   -1    0    0    0    0  0.00000000000E+00  0.00000000000E+00  0.45593999997E+02  0.45594000000E+02  0.51100000000E-03 0. -1.
         11   -1    0    0    0    0 -0.00000000000E+00 -0.00000000000E+00 -0.45593999997E+02  0.45594000000E+02  0.51100000000E-03 0.  1.
    9900012    2    1    2    0    0 -0.20861425595E+02  0.11672712544E+02 -0.32889416601E+02  0.50528867934E+02  0.30000024571E+02 0.  0.
         12    1    1    2    0    0  0.20861425595E+02 -0.11672712544E+02  0.32889416601E+02  0.40659132066E+02  0.00000000000E+00 0. -1.
         11    1    3    3    0    0 -0.10061863185E+02  0.33565417035E+01 -0.13901152102E+02  0.17485693952E+02  0.51100000000E-03 0. -1.
        -11    1    3    3    0    0  0.42064791634E+01 -0.20506762221E+01 -0.13047373074E+02  0.13861229538E+02  0.51100000000E-03 0.  1.
        -12    1    3    3    0    0 -0.15006041574E+02  0.10366847062E+02 -0.59408914264E+01  0.19181944444E+02  0.00000000000E+00 0.  1.
</event>
<event>
 7    1  0.4520156E-012  0.5052887E+02  0.7816164E-02  0.1300439E+00
        -11   -1    0    0    0    0  0.00000000000E+00  0.00000000000E+00  0.45593999997E+02  0.45594000000E+02  0.51100000000E-03 0. -1.
         11   -1    0    0    0    0 -0.00000000000E+00 -0.00000000000E+00 -0.45593999997E+02  0.45594000000E+02  0.51100000000E-03 0.  1.
    9900012    2    1    2    0    0  0.15916501398E+02  0.50367460686E+01 -0.37073721769E+02  0.50528872199E+02  0.30000037536E+02 0.  0.
         12    1    1    2    0    0 -0.15916501398E+02 -0.50367460686E+01  0.37073721769E+02  0.40659127801E+02  0.00000000000E+00 0. -1.
         11    1    3    3    0    0 -0.17864287133E+01 -0.47784894460E+01 -0.47953826250E+01  0.70014986764E+01  0.51100000000E-03 0.  1.
        -11    1    3    3    0    0  0.94533395640E+01  0.10486607955E+02 -0.49309380325E+01  0.14954889684E+02  0.51100000000E-03 0. -1.
         12    1    3    3    0    0  0.82495905471E+01 -0.67137244051E+00 -0.27347401112E+02  0.28572483839E+02  0.00000000000E+00 0. -1.
</event>
<event>
 7    1  0.4520156E-012  0.5052891E+02  0.7816164E-02  0.1300439E+00
        -11   -1    0    0    0    0  0.00000000000E+00  0.00000000000E+00  0.45593999997E+02  0.45594000000E+02  0.51100000000E-03 0. -1.
         11   -1    0    0    0    0 -0.00000000000E+00 -0.00000000000E+00 -0.45593999997E+02  0.45594000000E+02  0.51100000000E-03 0.  1.
    9900012    2    1    2    0    0  0.44495072103E+01 -0.22952267807E+02  0.33264950370E+02  0.50528909565E+02  0.30000151113E+02 0.  0.
        -12    1    1    2    0    0 -0.44495072103E+01  0.22952267807E+02 -0.33264950370E+02  0.40659090435E+02  0.00000000000E+00 0.  1.
         11    1    3    3    0    0 -0.35691267110E-02 -0.24139704305E+02  0.31319044132E+02  0.39542481742E+02  0.51100000000E-03 0. -1.
        -11    1    3    3    0    0 -0.27012547152E+01 -0.78976285896E+00  0.21804929465E+01  0.35602039493E+01  0.51100000000E-03 0.  1.
        -12    1    3    3    0    0  0.71543310521E+01  0.19771993573E+01 -0.23458670891E+00  0.74262238739E+01  0.00000000000E+00 0.  1.
</event>
<event>
 7    1  0.4520156E-012  0.5052885E+02  0.7816164E-02  0.1300439E+00
        -11   -1    0    0    0    0  0.00000000000E+00  0.00000000000E+00  0.45593999997E+02  0.45594000000E+02  0.51100000000E-03 0. -1.
         11   -1    0    0    0    0 -0.00000000000E+00 -0.00000000000E+00 -0.45593999997E+02  0.45594000000E+02  0.51100000000E-03 0.  1.
    9900012    2    1    2    0    0 -0.37096107965E+02 -0.14547819820E+02  0.80874318040E+01  0.50528845547E+02  0.29999956524E+02 0.  0.
         12    1    1    2    0    0  0.37096107965E+02  0.14547819820E+02 -0.80874318040E+01  0.40659154453E+02  0.00000000000E+00 0. -1.
         11    1    3    3    0    0 -0.17547774042E+01  0.37587096858E+01  0.48022213799E+01  0.63457444546E+01  0.51100000000E-03 0. -1.
        -11    1    3    3    0    0 -0.26090671435E+02 -0.33512030240E+01  0.38705180785E+01  0.26588241914E+02  0.51100000000E-03 0.  1.
        -12    1    3    3    0    0 -0.92506591257E+01 -0.14955326482E+02 -0.58530765444E+00  0.17594859178E+02  0.00000000000E+00 0.  1.
</event>
<event>
 7    1  0.8781119E-012  0.5052886E+02  0.7816164E-02  0.1300439E+00
        -11   -1    0    0    0    0  0.00000000000E+00  0.00000000000E+00  0.45593999997E+02  0.45594000000E+02  0.51100000000E-03 0. -1.
         11   -1    0    0    0    0 -0.00000000000E+00 -0.00000000000E+00 -0.45593999997E+02  0.45594000000E+02  0.51100000000E-03 0.  1.
    9900012    2    1    2    0    0  0.15748443421E+02 -0.45940804715E+01  0.37202773086E+02  0.50528863624E+02  0.30000011470E+02 0.  0.
        -12    1    1    2    0    0 -0.15748443421E+02  0.45940804715E+01 -0.37202773086E+02  0.40659136376E+02  0.00000000000E+00 0.  1.
         11    1    3    3    0    0  0.32692055639E-02  0.56253175980E+01  0.63057253373E+01  0.84502296452E+01  0.51100000000E-03 0. -1.
        -11    1    3    3    0    0  0.26160401806E+01  0.11614453181E+01 -0.29013641402E+01  0.40756024816E+01  0.51100000000E-03 0.  1.
         12    1    3    3    0    0  0.13129134035E+02 -0.11380843388E+02  0.33798411889E+02  0.38003031497E+02  0.00000000000E+00 0. -1.
</event>
<event>
 7    1  0.4520156E-012  0.5052886E+02  0.7816164E-02  0.1300439E+00
        -11   -1    0    0    0    0  0.00000000000E+00  0.00000000000E+00  0.45593999997E+02  0.45594000000E+02  0.51100000000E-03 0. -1.
         11   -1    0    0    0    0 -0.00000000000E+00 -0.00000000000E+00 -0.45593999997E+02  0.45594000000E+02  0.51100000000E-03 0.  1.
    9900012    2    1    2    0    0 -0.12315688218E+01 -0.13358902446E+02  0.38382143591E+02  0.50528856097E+02  0.29999988592E+02 0.  0.
        -12    1    1    2    0    0  0.12315688218E+01  0.13358902446E+02 -0.38382143591E+02  0.40659143903E+02  0.00000000000E+00 0.  1.
         11    1    3    3    0    0 -0.32638030608E-01 -0.49651074496E+01  0.43135363897E+01  0.65772299392E+01  0.51100000000E-03 0. -1.
        -11    1    3    3    0    0  0.86165913554E+01 -0.11955426485E+02  0.10268199199E+02  0.17961452727E+02  0.51100000000E-03 0.  1.
         12    1    3    3    0    0 -0.98155221466E+01  0.35616314888E+01  0.23800408002E+02  0.25990173430E+02  0.00000000000E+00 0. -1.
</event>
<event>
 7    1  0.4520156E-012  0.5052884E+02  0.7816164E-02  0.1300439E+00
        -11   -1    0    0    0    0  0.00000000000E+00  0.00000000000E+00  0.45593999997E+02  0.45594000000E+02  0.51100000000E-03 0. -1.
         11   -1    0    0    0    0 -0.00000000000E+00 -0.00000000000E+00 -0.45593999997E+02  0.45594000000E+02  0.51100000000E-03 0.  1.
    9900012    2    1    2    0    0 -0.14276231583E+02 -0.35491530833E+02 -0.13773447521E+02  0.50528838601E+02  0.29999935410E+02 0.  0.
         12    1    1    2    0    0  0.14276231583E+02  0.35491530833E+02  0.13773447521E+02  0.40659161399E+02  0.00000000000E+00 0. -1.
         11    1    3    3    0    0 -0.90580196403E+01 -0.15721990119E+01  0.34912323223E+01  0.98340344176E+01  0.51100000000E-03 0. -1.
        -11    1    3    3    0    0 -0.98428862862E+00 -0.18536894984E+02 -0.20969953080E+01  0.18681078377E+02  0.51100000000E-03 0.  1.
        -12    1    3    3    0    0 -0.42339233145E+01 -0.15382436837E+02 -0.15167684536E+02  0.22013725805E+02  0.00000000000E+00 0.  1.
</event>
<event>
 7    1  0.4520156E-012  0.5052888E+02  0.7816164E-02  0.1300439E+00
        -11   -1    0    0    0    0  0.00000000000E+00  0.00000000000E+00  0.45593999997E+02  0.45594000000E+02  0.51100000000E-03 0. -1.
         11   -1    0    0    0    0 -0.00000000000E+00 -0.00000000000E+00 -0.45593999997E+02  0.45594000000E+02  0.51100000000E-03 0.  1.
    9900012    2    1    2    0    0  0.31515263764E+02  0.10077260027E+02 -0.23630509120E+02  0.50528880715E+02  0.30000063421E+02 0.  0.
         12    1    1    2    0    0 -0.31515263764E+02 -0.10077260027E+02  0.23630509120E+02  0.40659119285E+02  0.00000000000E+00 0. -1.
         11    1    3    3    0    0  0.11952679472E+02  0.44913662648E+01  0.44481468749E+01  0.13521276876E+02  0.51100000000E-03 0. -1.
        -11    1    3    3    0    0  0.46454358772E+01 -0.40930026233E+01 -0.56204296771E+01  0.83619360785E+01  0.51100000000E-03 0.  1.
         12    1    3    3    0    0  0.14917148415E+02  0.96788963858E+01 -0.22458226318E+02  0.28645667760E+02  0.00000000000E+00 0. -1.
</event>
<event>
 7    1  0.4520156E-012  0.5052886E+02  0.7816164E-02  0.1300439E+00
        -11   -1    0    0    0    0  0.00000000000E+00  0.00000000000E+00  0.45593999997E+02  0.45594000000E+02  0.51100000000E-03 0.  1.
         11   -1    0    0    0    0 -0.00000000000E+00 -0.00000000000E+00 -0.45593999997E+02  0.45594000000E+02  0.51100000000E-03 0. -1.
    9900012    2    1    2    0    0  0.25636804470E+02  0.26082586078E+02  0.17765662130E+02  0.50528858458E+02  0.29999995769E+02 0.  0.
        -12    1    1    2    0    0 -0.25636804470E+02 -0.26082586078E+02 -0.17765662130E+02  0.40659141542E+02  0.00000000000E+00 0.  1.
         11    1    3    3    0    0  0.16650367083E+02  0.72955080809E+01  0.99252195597E+01  0.20711570335E+02  0.51100000000E-03 0. -1.
        -11    1    3    3    0    0  0.95504562205E+01  0.21472930085E+02  0.10727763782E+02  0.25833754208E+02  0.51100000000E-03 0.  1.
        -12    1    3    3    0    0 -0.56401883327E+00 -0.26858520876E+01 -0.28873212109E+01  0.39835339155E+01  0.00000000000E+00 0.  1.
</event>
<event>
 7    1  0.4520156E-012  0.5052886E+02  0.7816164E-02  0.1300439E+00
        -11   -1    0    0    0    0  0.00000000000E+00  0.00000000000E+00  0.45593999997E+02  0.45594000000E+02  0.51100000000E-03 0.  1.
         11   -1    0    0    0    0 -0.00000000000E+00 -0.00000000000E+00 -0.45593999997E+02  0.45594000000E+02  0.51100000000E-03 0. -1.
    9900012    2    1    2    0    0 -0.20004423698E+02  0.32739822036E+02  0.13457080721E+02  0.50528856675E+02  0.29999990349E+02 0.  0.
        -12    1    1    2    0    0  0.20004423698E+02 -0.32739822036E+02 -0.13457080721E+02  0.40659143325E+02  0.00000000000E+00 0.  1.
         11    1    3    3    0    0 -0.16539774633E+02  0.12357467691E+02 -0.22606052825E+01  0.20769725303E+02  0.51100000000E-03 0. -1.
        -11    1    3    3    0    0 -0.40770865589E+01 -0.42846331434E+00  0.87953573215E+00  0.41928270875E+01  0.51100000000E-03 0.  1.
        -12    1    3    3    0    0  0.61243749354E+00  0.20810817659E+02  0.14838150271E+02  0.25566304285E+02  0.00000000000E+00 0.  1.
</event>
<event>
 7    1  0.4520156E-012  0.5052884E+02  0.7816164E-02  0.1300439E+00
        -11   -1    0    0    0    0  0.00000000000E+00  0.00000000000E+00  0.45593999997E+02  0.45594000000E+02  0.51100000000E-03 0.  1.
         11   -1    0    0    0    0 -0.00000000000E+00 -0.00000000000E+00 -0.45593999997E+02  0.45594000000E+02  0.51100000000E-03 0. -1.
    9900012    2    1    2    0    0 -0.23619969557E+02 -0.24376586891E+02 -0.22384063509E+02  0.50528840521E+02  0.29999941248E+02 0.  0.
         12    1    1    2    0    0  0.23619969557E+02  0.24376586891E+02  0.22384063509E+02  0.40659159479E+02  0.00000000000E+00 0. -1.
         11    1    3    3    0    0 -0.26541097024E+01  0.86778139747E+00 -0.93189125340E+01  0.97282821682E+01  0.51100000000E-03 0. -1.
        -11    1    3    3    0    0 -0.45869105581E+01  0.27764654355E+01 -0.50574223547E+01  0.73706193714E+01  0.51100000000E-03 0.  1.
        -12    1    3    3    0    0 -0.16378949297E+02 -0.28020833724E+02 -0.80077286201E+01  0.33429938982E+02  0.00000000000E+00 0.  1.
</event>
<event>
 7    1  0.4520156E-012  0.5052886E+02  0.7816164E-02  0.1300439E+00
        -11   -1    0    0    0    0  0.00000000000E+00  0.00000000000E+00  0.45593999997E+02  0.45594000000E+02  0.51100000000E-03 0. -1.
         11   -1    0    0    0    0 -0.00000000000E+00 -0.00000000000E+00 -0.45593999997E+02  0.45594000000E+02  0.51100000000E-03 0.  1.
    9900012    2    1    2    0    0  0.25726163806E+02 -0.16107348477E+02  0.27053340286E+02  0.50528863269E+02  0.30000010392E+02 0.  0.
        -12    1    1    2    0    0 -0.25726163806E+02  0.16107348477E+02 -0.27053340286E+02  0.40659136731E+02  0.00000000000E+00 0.  1.
         11    1    3    3    0    0  0.64171210431E+01 -0.62215517148E+01  0.44545990445E+01  0.99865209723E+01  0.51100000000E-03 0. -1.
        -11    1    3    3    0    0  0.97622200045E+01 -0.95916773467E+01  0.26812077180E+02  0.30102968238E+02  0.51100000000E-03 0.  1.
        -12    1    3    3    0    0  0.95468227582E+01 -0.29411941540E+00 -0.42133359389E+01  0.10439374059E+02  0.00000000000E+00 0.  1.
</event>
<event>
 7    1  0.4520156E-012  0.5052886E+02  0.7816164E-02  0.1300439E+00
        -11   -1    0    0    0    0  0.00000000000E+00  0.00000000000E+00  0.45593999997E+02  0.45594000000E+02  0.51100000000E-03 0. -1.
         11   -1    0    0    0    0 -0.00000000000E+00 -0.00000000000E+00 -0.45593999997E+02  0.45594000000E+02  0.51100000000E-03 0.  1.
    9900012    2    1    2    0    0  0.28436263279E+02 -0.15540102778E+02  0.24557073550E+02  0.50528859269E+02  0.29999998234E+02 0.  0.
        -12    1    1    2    0    0 -0.28436263279E+02  0.15540102778E+02 -0.24557073550E+02  0.40659140731E+02  0.00000000000E+00 0.  1.
         11    1    3    3    0    0  0.12241675587E+02 -0.19306877817E+02  0.11757587662E+02  0.25707100578E+02  0.51100000000E-03 0. -1.
        -11    1    3    3    0    0  0.44514870135E+01 -0.46113491516E+01  0.17304402752E+01  0.66388780254E+01  0.51100000000E-03 0.  1.
        -12    1    3    3    0    0  0.11743100679E+02  0.83781241909E+01  0.11069045613E+02  0.18182880666E+02  0.00000000000E+00 0.  1.
</event>
<event>
 7    1  0.4797533E-012  0.5052886E+02  0.7816164E-02  0.1300439E+00
        -11   -1    0    0    0    0  0.00000000000E+00  0.00000000000E+00  0.45593999997E+02  0.45594000000E+02  0.51100000000E-03 0. -1.
         11   -1    0    0    0    0 -0.00000000000E+00 -0.00000000000E+00 -0.45593999997E+02  0.45594000000E+02  0.51100000000E-03 0.  1.
    9900012    2    1    2    0    0 -0.11709235900E+02 -0.24149852942E+02  0.30542493199E+02  0.50528862118E+02  0.30000006894E+02 0.  0.
        -12    1    1    2    0    0  0.11709235900E+02  0.24149852942E+02 -0.30542493199E+02  0.40659137882E+02  0.00000000000E+00 0.  1.
         11    1    3    3    0    0 -0.86717318421E+01 -0.16422707870E+02  0.85425246210E+01  0.20442088790E+02  0.51100000000E-03 0. -1.
        -11    1    3    3    0    0 -0.53053090404E+01  0.87898538838E+00  0.20332975658E+02  0.21032090212E+02  0.51100000000E-03 0.  1.
         12    1    3    3    0    0  0.22678049822E+01 -0.86061304606E+01  0.16669929203E+01  0.90546831164E+01  0.00000000000E+00 0. -1.
</event>
<event>
 7    1  0.4520156E-012  0.5052886E+02  0.7816164E-02  0.1300439E+00
        -11   -1    0    0    0    0  0.00000000000E+00  0.00000000000E+00  0.45593999997E+02  0.45594000000E+02  0.51100000000E-03 0.  1.
         11   -1    0    0    0    0 -0.00000000000E+00 -0.00000000000E+00 -0.45593999997E+02  0.45594000000E+02  0.51100000000E-03 0. -1.
    9900012    2    1    2    0    0  0.21986276757E+02  0.28275553821E+02 -0.19242205193E+02  0.50528858713E+02  0.29999996544E+02 0.  0.
         12    1    1    2    0    0 -0.21986276757E+02 -0.28275553821E+02  0.19242205193E+02  0.40659141287E+02  0.00000000000E+00 0. -1.
         11    1    3    3    0    0 -0.35501576921E+01  0.77584123585E+01 -0.15592710946E+01  0.86734023642E+01  0.51100000000E-03 0. -1.
        -11    1    3    3    0    0  0.13050952926E+02  0.11990562178E+02 -0.19817473668E+02  0.26586335145E+02  0.51100000000E-03 0.  1.
        -12    1    3    3    0    0  0.12485481523E+02  0.85265792840E+01  0.21345395690E+01  0.15269121203E+02  0.00000000000E+00 0.  1.
</event>
<event>
 7    1  0.4520156E-012  0.5052886E+02  0.7816164E-02  0.1300439E+00
        -11   -1    0    0    0    0  0.00000000000E+00  0.00000000000E+00  0.45593999997E+02  0.45594000000E+02  0.51100000000E-03 0. -1.
         11   -1    0    0    0    0 -0.00000000000E+00 -0.00000000000E+00 -0.45593999997E+02  0.45594000000E+02  0.51100000000E-03 0.  1.
    9900012    2    1    2    0    0  0.46983570683E+01 -0.32774464141E+02  0.23599268605E+02  0.50528861573E+02  0.30000005238E+02 0.  0.
        -12    1    1    2    0    0 -0.46983570683E+01  0.32774464141E+02 -0.23599268605E+02  0.40659138427E+02  0.00000000000E+00 0.  1.
         11    1    3    3    0    0  0.16512016981E+01 -0.64599409059E+01  0.10630967043E+02  0.12548894935E+02  0.51100000000E-03 0. -1.
        -11    1    3    3    0    0 -0.54358603268E+01 -0.13111637524E+02  0.16631535848E+02  0.21864848524E+02  0.51100000000E-03 0.  1.
        -12    1    3    3    0    0  0.84830156970E+01 -0.13202885711E+02 -0.36632342855E+01  0.16115118115E+02  0.00000000000E+00 0.  1.
</event>
<event>
 7    1  0.4520156E-012  0.5052885E+02  0.7816164E-02  0.1300439E+00
        -11   -1    0    0    0    0  0.00000000000E+00  0.00000000000E+00  0.45593999997E+02  0.45594000000E+02  0.51100000000E-03 0.  1.
         11   -1    0    0    0    0 -0.00000000000E+00 -0.00000000000E+00 -0.45593999997E+02  0.45594000000E+02  0.51100000000E-03 0. -1.
    9900012    2    1    2    0    0 -0.31162584344E+02  0.41644332897E+01  0.25782110586E+02  0.50528851043E+02  0.29999973229E+02 0.  0.
        -12    1    1    2    0    0  0.31162584344E+02 -0.41644332897E+01 -0.25782110586E+02  0.40659148957E+02  0.00000000000E+00 0.  1.
         11    1    3    3    0    0 -0.40117044987E+01  0.51139567907E+01  0.85168271754E+01  0.10713667553E+02  0.51100000000E-03 0. -1.
        -11    1    3    3    0    0 -0.20913905637E+02  0.80311505161E+01  0.18168201463E+02  0.28843965960E+02  0.51100000000E-03 0.  1.
        -12    1    3    3    0    0 -0.62369742085E+01 -0.89806740171E+01 -0.90291805233E+00  0.10971217530E+02  0.00000000000E+00 0.  1.
</event>
<event>
 7    1  0.4520156E-012  0.5052888E+02  0.7816164E-02  0.1300439E+00
        -11   -1    0    0    0    0  0.00000000000E+00  0.00000000000E+00  0.45593999997E+02  0.45594000000E+02  0.51100000000E-03 0.  1.
         11   -1    0    0    0    0 -0.00000000000E+00 -0.00000000000E+00 -0.45593999997E+02  0.45594000000E+02  0.51100000000E-03 0. -1.
    9900012    2    1    2    0    0 -0.87487035717E+01  0.38497700627E+02 -0.97237655693E+01  0.50528875752E+02  0.30000048336E+02 0.  0.
        -12    1    1    2    0    0  0.87487035717E+01 -0.38497700627E+02  0.97237655693E+01  0.40659124248E+02  0.00000000000E+00 0.  1.
         11    1    3    3    0    0 -0.11447518276E+02  0.18153324622E+02  0.94463173557E+00  0.21482113465E+02  0.51100000000E-03 0. -1.
        -11    1    3    3    0    0 -0.73179063801E+01  0.62995624426E+01 -0.25847313203E+01  0.99958529909E+01  0.51100000000E-03 0.  1.
         12    1    3    3    0    0  0.10016721085E+02  0.14044813562E+02 -0.80836659846E+01  0.19050909297E+02  0.00000000000E+00 0. -1.
</event>
<event>
 7    1  0.4520156E-012  0.5052886E+02  0.7816164E-02  0.1300439E+00
        -11   -1    0    0    0    0  0.00000000000E+00  0.00000000000E+00  0.45593999997E+02  0.45594000000E+02  0.51100000000E-03 0.  1.
         11   -1    0    0    0    0 -0.00000000000E+00 -0.00000000000E+00 -0.45593999997E+02  0.45594000000E+02  0.51100000000E-03 0. -1.
    9900012    2    1    2    0    0  0.67986686715E+01  0.17502854146E+02  0.36063751367E+02  0.50528856358E+02  0.29999989387E+02 0.  0.
        -12    1    1    2    0    0 -0.67986686715E+01 -0.17502854146E+02 -0.36063751367E+02  0.40659143642E+02  0.00000000000E+00 0.  1.
         11    1    3    3    0    0  0.45321072571E+01 -0.26718611188E+01  0.44834145345E+01  0.69122965921E+01  0.51100000000E-03 0. -1.
        -11    1    3    3    0    0  0.10133912473E+02  0.40431766579E+01  0.62554780607E+01  0.12576743041E+02  0.51100000000E-03 0.  1.
        -12    1    3    3    0    0 -0.78673510583E+01  0.16131538607E+02  0.25324858772E+02  0.31039816725E+02  0.00000000000E+00 0.  1.
</event>
<event>
 7    1  0.4520156E-012  0.5052886E+02  0.7816164E-02  0.1300439E+00
        -11   -1    0    0    0    0  0.00000000000E+00  0.00000000000E+00  0.45593999997E+02  0.45594000000E+02  0.51100000000E-03 0. -1.
         11   -1    0    0    0    0 -0.00000000000E+00 -0.00000000000E+00 -0.45593999997E+02  0.45594000000E+02  0.51100000000E-03 0.  1.
    9900012    2    1    2    0    0 -0.29155729242E+02 -0.20142785790E+02 -0.19934324630E+02  0.50528860001E+02  0.30000000459E+02 0.  0.
         12    1    1    2    0    0  0.29155729242E+02  0.20142785790E+02  0.19934324630E+02  0.40659139999E+02  0.00000000000E+00 0. -1.
         11    1    3    3    0    0 -0.47012708835E+01 -0.59094942751E+01  0.19749036554E+01  0.78054029503E+01  0.51100000000E-03 0. -1.
        -11    1    3    3    0    0 -0.15183702551E+02 -0.70273704586E+01  0.12292583359E+01  0.16776168664E+02  0.51100000000E-03 0.  1.
         12    1    3    3    0    0 -0.92707558072E+01 -0.72059210563E+01 -0.23138486621E+02  0.25947288387E+02  0.00000000000E+00 0. -1.
</event>
<event>
 7    1  0.4520156E-012  0.5052886E+02  0.7816164E-02  0.1300439E+00
        -11   -1    0    0    0    0  0.00000000000E+00  0.00000000000E+00  0.45593999997E+02  0.45594000000E+02  0.51100000000E-03 0. -1.
         11   -1    0    0    0    0 -0.00000000000E+00 -0.00000000000E+00 -0.45593999997E+02  0.45594000000E+02  0.51100000000E-03 0.  1.
    9900012    2    1    2    0    0  0.14206984704E+02 -0.14103267821E+02  0.35389613380E+02  0.50528864338E+02  0.30000013642E+02 0.  0.
        -12    1    1    2    0    0 -0.14206984704E+02  0.14103267821E+02 -0.35389613380E+02  0.40659135662E+02  0.00000000000E+00 0.  1.
         11    1    3    3    0    0  0.37391536918E+01  0.22771250470E+01  0.87249664259E+01  0.97617420682E+01  0.51100000000E-03 0. -1.
        -11    1    3    3    0    0 -0.71456093672E+01 -0.14663807660E+01  0.35855870899E+01  0.81281265259E+01  0.51100000000E-03 0.  1.
         12    1    3    3    0    0  0.17613440380E+02 -0.14914012101E+02  0.23079059864E+02  0.32638995744E+02  0.00000000000E+00 0. -1.
</event>
<event>
 7    1  0.4520156E-012  0.5052887E+02  0.7816164E-02  0.1300439E+00
        -11   -1    0    0    0    0  0.00000000000E+00  0.00000000000E+00  0.45593999997E+02  0.45594000000E+02  0.51100000000E-03 0. -1.
         11   -1    0    0    0    0 -0.00000000000E+00 -0.00000000000E+00 -0.45593999997E+02  0.45594000000E+02  0.51100000000E-03 0.  1.
    9900012    2    1    2    0    0 -0.65182321663E+01  0.79491757215E+01 -0.39338129620E+02  0.50528865882E+02  0.30000018335E+02 0.  0.
         12    1    1    2    0    0  0.65182321663E+01 -0.79491757215E+01  0.39338129620E+02  0.40659134118E+02  0.00000000000E+00 0. -1.
         11    1    3    3    0    0  0.11093614276E+01 -0.15639288451E+00  0.24104276678E+01  0.26580638280E+01  0.51100000000E-03 0. -1.
        -11    1    3    3    0    0  0.12975916547E+01 -0.18007467277E+01 -0.30051655411E+02  0.30133510019E+02  0.51100000000E-03 0.  1.
         12    1    3    3    0    0 -0.89251852485E+01  0.99063153338E+01 -0.11696901877E+02  0.17737292035E+02  0.00000000000E+00 0. -1.
</event>
<event>
 7    1  0.4520156E-012  0.5052886E+02  0.7816164E-02  0.1300439E+00
        -11   -1    0    0    0    0  0.00000000000E+00  0.00000000000E+00  0.45593999997E+02  0.45594000000E+02  0.51100000000E-03 0. -1.
         11   -1    0    0    0    0 -0.00000000000E+00 -0.00000000000E+00 -0.45593999997E+02  0.45594000000E+02  0.51100000000E-03 0.  1.
    9900012    2    1    2    0    0  0.24658615174E+02 -0.15496249752E+02 -0.28372255872E+02  0.50528856355E+02  0.29999989376E+02 0.  0.
         12    1    1    2    0    0 -0.24658615174E+02  0.15496249752E+02  0.28372255872E+02  0.40659143645E+02  0.00000000000E+00 0. -1.
         11    1    3    3    0    0 -0.54885336499E+01 -0.25785668216E+01 -0.64639885370E+01  0.88631911041E+01  0.51100000000E-03 0. -1.
        -11    1    3    3    0    0  0.29236152786E+01  0.27004941157E+01 -0.16402944865E+01  0.43047370454E+01  0.51100000000E-03 0.  1.
        -12    1    3    3    0    0  0.27223533546E+02 -0.15618177046E+02 -0.20267972848E+02  0.37360928205E+02  0.00000000000E+00 0.  1.
</event>
<event>
 7    1  0.4520156E-012  0.5052885E+02  0.7816164E-02  0.1300439E+00
        -11   -1    0    0    0    0  0.00000000000E+00  0.00000000000E+00  0.45593999997E+02  0.45594000000E+02  0.51100000000E-03 0. -1.
         11   -1    0    0    0    0 -0.00000000000E+00 -0.00000000000E+00 -0.45593999997E+02  0.45594000000E+02  0.51100000000E-03 0.  1.
    9900012    2    1    2    0    0 -0.18576016564E+02  0.17432961220E+02  0.31688950279E+02  0.50528854681E+02  0.29999984290E+02 0.  0.
        -12    1    1    2    0    0  0.18576016564E+02 -0.17432961220E+02 -0.31688950279E+02  0.40659145319E+02  0.00000000000E+00 0.  1.
         11    1    3    3    0    0 -0.59171925500E+01  0.10247222194E+02  0.50579392988E+01  0.12868623881E+02  0.51100000000E-03 0. -1.
        -11    1    3    3    0    0 -0.21174526733E+01  0.12878048732E+01 -0.40157434937E+01  0.47189239540E+01  0.51100000000E-03 0.  1.
         12    1    3    3    0    0 -0.10541371341E+02  0.58979341523E+01  0.30646754474E+02  0.32941306847E+02  0.00000000000E+00 0. -1.
</event>
<event>
 7    1  0.4520156E-012  0.5052884E+02  0.7816164E-02  0.1300439E+00
        -11   -1    0    0    0    0  0.00000000000E+00  0.00000000000E+00  0.45593999997E+02  0.45594000000E+02  0.51100000000E-03 0.  1.
         11   -1    0    0    0    0 -0.00000000000E+00 -0.00000000000E+00 -0.45593999997E+02  0.45594000000E+02  0.51100000000E-03 0. -1.
    9900012    2    1    2    0    0  0.16297998470E+02  0.36542378189E+02  0.72247354957E+01  0.50528844072E+02  0.29999952040E+02 0.  0.
         12    1    1    2    0    0 -0.16297998470E+02 -0.36542378189E+02 -0.72247354957E+01  0.40659155928E+02  0.00000000000E+00 0. -1.
         11    1    3    3    0    0  0.25806983324E+01  0.66157673349E+00 -0.35661399688E+00  0.26879102405E+01  0.51100000000E-03 0. -1.
        -11    1    3    3    0    0  0.28294369084E+01  0.18293128281E+02  0.16981603143E+02  0.25120093572E+02  0.51100000000E-03 0.  1.
        -12    1    3    3    0    0  0.10887863229E+02  0.17587673174E+02 -0.94002536501E+01  0.22720840259E+02  0.00000000000E+00 0.  1.
</event>
<event>
 7    1  0.4520156E-012  0.5052886E+02  0.7816164E-02  0.1300439E+00
        -11   -1    0    0    0    0  0.00000000000E+00  0.00000000000E+00  0.45593999997E+02  0.45594000000E+02  0.51100000000E-03 0. -1.
         11   -1    0    0    0    0 -0.00000000000E+00 -0.00000000000E+00 -0.45593999997E+02  0.45594000000E+02  0.51100000000E-03 0.  1.
    9900012    2    1    2    0    0 -0.71856936376E+01 -0.21844368033E+02 -0.33531403915E+02  0.50528860113E+02  0.30000000800E+02 0.  0.
         12    1    1    2    0    0  0.71856936376E+01  0.21844368033E+02  0.33531403915E+02  0.40659139887E+02  0.00000000000E+00 0. -1.
         11    1    3    3    0    0 -0.73436361193E+01 -0.25605936715E+01 -0.27831802020E+01  0.82602496149E+01  0.51100000000E-03 0. -1.
        -11    1    3    3    0    0 -0.98591855081E+01 -0.12459085465E+02 -0.11863478529E+02  0.19828627602E+02  0.51100000000E-03 0.  1.
         12    1    3    3    0    0  0.10017127990E+02 -0.68246888964E+01 -0.18884745185E+02  0.22439982896E+02  0.00000000000E+00 0. -1.
</event>
<event>
 7    1  0.4520156E-012  0.5052887E+02  0.7816164E-02  0.1300439E+00
        -11   -1    0    0    0    0  0.00000000000E+00  0.00000000000E+00  0.45593999997E+02  0.45594000000E+02  0.51100000000E-03 0. -1.
         11   -1    0    0    0    0 -0.00000000000E+00 -0.00000000000E+00 -0.45593999997E+02  0.45594000000E+02  0.51100000000E-03 0.  1.
    9900012    2    1    2    0    0  0.14080790357E+01  0.70632454757E+01 -0.40016157940E+02  0.50528867944E+02  0.30000024603E+02 0.  0.
         12    1    1    2    0    0 -0.14080790357E+01 -0.70632454757E+01  0.40016157940E+02  0.40659132056E+02  0.00000000000E+00 0. -1.
         11    1    3    3    0    0 -0.46437067820E+00 -0.55706666358E+00 -0.35162265786E+01  0.35902385725E+01  0.51100000000E-03 0. -1.
        -11    1    3    3    0    0  0.14857999249E+02  0.69075690076E+01 -0.18211598971E+02  0.24497693537E+02  0.51100000000E-03 0.  1.
         12    1    3    3    0    0 -0.12985549535E+02  0.71274313167E+00 -0.18288332390E+02  0.22440935834E+02  0.00000000000E+00 0. -1.
</event>
<event>
 7    1  0.4520156E-012  0.5052886E+02  0.7816164E-02  0.1300439E+00
        -11   -1    0    0    0    0  0.00000000000E+00  0.00000000000E+00  0.45593999997E+02  0.45594000000E+02  0.51100000000E-03 0. -1.
         11   -1    0    0    0    0 -0.00000000000E+00 -0.00000000000E+00 -0.45593999997E+02  0.45594000000E+02  0.51100000000E-03 0.  1.
    9900012    2    1    2    0    0  0.27566235027E+02 -0.21504622615E+02  0.20756185165E+02  0.50528864127E+02  0.30000012999E+02 0.  0.
        -12    1    1    2    0    0 -0.27566235027E+02  0.21504622615E+02 -0.20756185165E+02  0.40659135873E+02  0.00000000000E+00 0.  1.
         11    1    3    3    0    0  0.32036402033E+01 -0.15685372832E+02  0.45124328724E+00  0.16015550325E+02  0.51100000000E-03 0. -1.
        -11    1    3    3    0    0  0.51941202717E+01 -0.65486128932E+01  0.36936345621E+01  0.91381700992E+01  0.51100000000E-03 0.  1.
        -12    1    3    3    0    0  0.19168474552E+02  0.72936311033E+00  0.16611307316E+02  0.25375143703E+02  0.00000000000E+00 0.  1.
</event>
<event>
 7    1  0.6127170E-012  0.5052880E+02  0.7816164E-02  0.1300439E+00
        -11   -1    0    0    0    0  0.00000000000E+00  0.00000000000E+00  0.45593999997E+02  0.45594000000E+02  0.51100000000E-03 0. -1.
         11   -1    0    0    0    0 -0.00000000000E+00 -0.00000000000E+00 -0.45593999997E+02  0.45594000000E+02  0.51100000000E-03 0.  1.
    9900012    2    1    2    0    0 -0.42807906481E+00  0.15434016889E+02  0.37613538518E+02  0.50528801670E+02  0.29999823156E+02 0.  0.
        -12    1    1    2    0    0  0.42807906481E+00 -0.15434016889E+02 -0.37613538518E+02  0.40659198330E+02  0.00000000000E+00 0.  1.
         11    1    3    3    0    0 -0.64420071761E+01 -0.44254977360E+00  0.90594839036E+01  0.11125176656E+02  0.51100000000E-03 0. -1.
        -11    1    3    3    0    0 -0.14391717014E+01 -0.36638950896E+01 -0.89830108693E-01  0.39374372532E+01  0.51100000000E-03 0.  1.
         12    1    3    3    0    0  0.74530998127E+01  0.19540461752E+02  0.28643884723E+02  0.35466187761E+02  0.00000000000E+00 0. -1.
</event>
<event>
 7    1  0.4520156E-012  0.5052887E+02  0.7816164E-02  0.1300439E+00
        -11   -1    0    0    0    0  0.00000000000E+00  0.00000000000E+00  0.45593999997E+02  0.45594000000E+02  0.51100000000E-03 0. -1.
         11   -1    0    0    0    0 -0.00000000000E+00 -0.00000000000E+00 -0.45593999997E+02  0.45594000000E+02  0.51100000000E-03 0.  1.
    9900012    2    1    2    0    0  0.26444311730E+02  0.10591335011E+02 -0.29011843072E+02  0.50528867710E+02  0.30000023891E+02 0.  0.
         12    1    1    2    0    0 -0.26444311730E+02 -0.10591335011E+02  0.29011843072E+02  0.40659132290E+02  0.00000000000E+00 0. -1.
         11    1    3    3    0    0  0.18086004570E+02  0.58711240734E+01 -0.20675467458E+02  0.28090009150E+02  0.51100000000E-03 0. -1.
        -11    1    3    3    0    0  0.12314384452E+02  0.80771235228E+01 -0.89200162707E+01  0.17217743155E+02  0.51100000000E-03 0.  1.
         12    1    3    3    0    0 -0.39560772924E+01 -0.33569125851E+01  0.58364065680E+00  0.52211154042E+01  0.00000000000E+00 0. -1.
</event>
<event>
 7    1  0.4520156E-012  0.5052885E+02  0.7816164E-02  0.1300439E+00
        -11   -1    0    0    0    0  0.00000000000E+00  0.00000000000E+00  0.45593999997E+02  0.45594000000E+02  0.51100000000E-03 0. -1.
         11   -1    0    0    0    0 -0.00000000000E+00 -0.00000000000E+00 -0.45593999997E+02  0.45594000000E+02  0.51100000000E-03 0.  1.
    9900012    2    1    2    0    0  0.39131887776E+02  0.53659745111E+01 -0.96471630434E+01  0.50528854926E+02  0.29999985033E+02 0.  0.
         12    1    1    2    0    0 -0.39131887776E+02 -0.53659745111E+01  0.96471630434E+01  0.40659145074E+02  0.00000000000E+00 0. -1.
         11    1    3    3    0    0  0.57294265849E+01  0.52181292765E+01 -0.40986645901E+01  0.87666557946E+01  0.51100000000E-03 0. -1.
        -11    1    3    3    0    0  0.26038046269E+02  0.10689744567E+02 -0.64316780529E+01  0.28872425864E+02  0.51100000000E-03 0.  1.
         12    1    3    3    0    0  0.73644149220E+01 -0.10541899333E+02  0.88317959961E+00  0.12889773268E+02  0.00000000000E+00 0. -1.
</event>
<event>
 7    1  0.4520156E-012  0.5052886E+02  0.7816164E-02  0.1300439E+00
        -11   -1    0    0    0    0  0.00000000000E+00  0.00000000000E+00  0.45593999997E+02  0.45594000000E+02  0.51100000000E-03 0. -1.
         11   -1    0    0    0    0 -0.00000000000E+00 -0.00000000000E+00 -0.45593999997E+02  0.45594000000E+02  0.51100000000E-03 0.  1.
    9900012    2    1    2    0    0 -0.22525198198E+00 -0.27084870291E+02  0.30323666265E+02  0.50528859909E+02  0.30000000180E+02 0.  0.
        -12    1    1    2    0    0  0.22525198198E+00  0.27084870291E+02 -0.30323666265E+02  0.40659140091E+02  0.00000000000E+00 0.  1.
         11    1    3    3    0    0  0.48854260601E+01 -0.68574928015E+01  0.72421969724E+01  0.11105944920E+02  0.51100000000E-03 0.  1.
        -11    1    3    3    0    0  0.36411857625E+01 -0.12566674992E+02  0.24431053433E+02  0.27713821935E+02  0.51100000000E-03 0. -1.
         12    1    3    3    0    0 -0.87518638046E+01 -0.76607024972E+01 -0.13495841403E+01  0.11709093054E+02  0.00000000000E+00 0. -1.
</event>
<event>
 7    1  0.4520156E-012  0.5052886E+02  0.7816164E-02  0.1300439E+00
        -11   -1    0    0    0    0  0.00000000000E+00  0.00000000000E+00  0.45593999997E+02  0.45594000000E+02  0.51100000000E-03 0. -1.
         11   -1    0    0    0    0 -0.00000000000E+00 -0.00000000000E+00 -0.45593999997E+02  0.45594000000E+02  0.51100000000E-03 0.  1.
    9900012    2    1    2    0    0 -0.30532543490E+02  0.11333724732E+02  0.24340833811E+02  0.50528859344E+02  0.29999998463E+02 0.  0.
        -12    1    1    2    0    0  0.30532543490E+02 -0.11333724732E+02 -0.24340833811E+02  0.40659140656E+02  0.00000000000E+00 0.  1.
         11    1    3    3    0    0 -0.18031539999E+02  0.93179537308E+01  0.10369048886E+02  0.22792057203E+02  0.51100000000E-03 0. -1.
        -11    1    3    3    0    0 -0.16104361589E+02  0.13234532954E+01  0.33542461959E+01  0.16503119663E+02  0.51100000000E-03 0.  1.
        -12    1    3    3    0    0  0.36033580979E+01  0.69231770602E+00  0.10617538729E+02  0.11233682479E+02  0.00000000000E+00 0.  1.
</event>
<event>
 7    1  0.4520156E-012  0.5052882E+02  0.7816164E-02  0.1300439E+00
        -11   -1    0    0    0    0  0.00000000000E+00  0.00000000000E+00  0.45593999997E+02  0.45594000000E+02  0.51100000000E-03 0. -1.
         11   -1    0    0    0    0 -0.00000000000E+00 -0.00000000000E+00 -0.45593999997E+02  0.45594000000E+02  0.51100000000E-03 0.  1.
    9900012    2    1    2    0    0  0.16478346621E+02 -0.84791471582E+01  0.36190285093E+02  0.50528824172E+02  0.29999891553E+02 0.  0.
        -12    1    1    2    0    0 -0.16478346621E+02  0.84791471582E+01 -0.36190285093E+02  0.40659175828E+02  0.00000000000E+00 0.  1.
         11    1    3    3    0    0  0.11501300901E+02 -0.16543778889E+01  0.27180413352E+02  0.29559968857E+02  0.51100000000E-03 0. -1.
        -11    1    3    3    0    0  0.87410924122E+01 -0.23679264342E+01  0.11489991068E+02  0.14629889513E+02  0.51100000000E-03 0.  1.
        -12    1    3    3    0    0 -0.37640466919E+01 -0.44568428352E+01 -0.24801193268E+01  0.63389658014E+01  0.00000000000E+00 0.  1.
</event>
<event>
 7    1  0.4520156E-012  0.5052886E+02  0.7816164E-02  0.1300439E+00
        -11   -1    0    0    0    0  0.00000000000E+00  0.00000000000E+00  0.45593999997E+02  0.45594000000E+02  0.51100000000E-03 0. -1.
         11   -1    0    0    0    0 -0.00000000000E+00 -0.00000000000E+00 -0.45593999997E+02  0.45594000000E+02  0.51100000000E-03 0.  1.
    9900012    2    1    2    0    0  0.21126262303E+02  0.16091795218E+02 -0.30787998367E+02  0.50528859876E+02  0.30000000078E+02 0.  0.
         12    1    1    2    0    0 -0.21126262303E+02 -0.16091795218E+02  0.30787998367E+02  0.40659140124E+02  0.00000000000E+00 0. -1.
         11    1    3    3    0    0 -0.36332337369E+00  0.72588443975E+01 -0.12785141996E+02  0.14706552348E+02  0.51100000000E-03 0. -1.
        -11    1    3    3    0    0  0.18252114713E+02  0.14318304745E+02 -0.18144490300E+02  0.29451249052E+02  0.51100000000E-03 0.  1.
         12    1    3    3    0    0  0.32374709639E+01 -0.54853539243E+01  0.14163392876E+00  0.63710584746E+01  0.00000000000E+00 0. -1.
</event>
<event>
 7    1  0.4520156E-012  0.5052887E+02  0.7816164E-02  0.1300439E+00
        -11   -1    0    0    0    0  0.00000000000E+00  0.00000000000E+00  0.45593999997E+02  0.45594000000E+02  0.51100000000E-03 0.  1.
         11   -1    0    0    0    0 -0.00000000000E+00 -0.00000000000E+00 -0.45593999997E+02  0.45594000000E+02  0.51100000000E-03 0. -1.
    9900012    2    1    2    0    0 -0.35118464203E+02  0.20486615374E+02 -0.39650780876E+00  0.50528866267E+02  0.30000019506E+02 0.  0.
        -12    1    1    2    0    0  0.35118464203E+02 -0.20486615374E+02  0.39650780876E+00  0.40659133733E+02  0.00000000000E+00 0.  1.
         11    1    3    3    0    0 -0.81951991374E+01  0.55476674651E+01 -0.47081884411E+01  0.10959240022E+02  0.51100000000E-03 0. -1.
        -11    1    3    3    0    0 -0.21593923864E+02  0.82478416100E+01 -0.81018737670E+01  0.24494178857E+02  0.51100000000E-03 0.  1.
         12    1    3    3    0    0 -0.53293412016E+01  0.66911062987E+01  0.12413554399E+02  0.15075447389E+02  0.00000000000E+00 0. -1.
</event>
<event>
 7    1  0.4520156E-012  0.5052885E+02  0.7816164E-02  0.1300439E+00
        -11   -1    0    0    0    0  0.00000000000E+00  0.00000000000E+00  0.45593999997E+02  0.45594000000E+02  0.51100000000E-03 0.  1.
         11   -1    0    0    0    0 -0.00000000000E+00 -0.00000000000E+00 -0.45593999997E+02  0.45594000000E+02  0.51100000000E-03 0. -1.
    9900012    2    1    2    0    0 -0.29395561729E+02  0.26801733894E+02 -0.84103722539E+01  0.50528851576E+02  0.29999974852E+02 0.  0.
        -12    1    1    2    0    0  0.29395561729E+02 -0.26801733894E+02  0.84103722539E+01  0.40659148424E+02  0.00000000000E+00 0.  1.
         11    1    3    3    0    0  0.79939435938E+00  0.51611044789E+01 -0.70703799597E+01  0.87901253586E+01  0.51100000000E-03 0. -1.
        -11    1    3    3    0    0 -0.23199928423E+01 -0.20701606363E+01  0.36611068880E+01  0.48032942607E+01  0.51100000000E-03 0.  1.
         12    1    3    3    0    0 -0.27874963246E+02  0.23710790052E+02 -0.50010991822E+01  0.36935431957E+02  0.00000000000E+00 0. -1.
</event>
<event>
 7    1  0.4520156E-012  0.5052886E+02  0.7816164E-02  0.1300439E+00
        -11   -1    0    0    0    0  0.00000000000E+00  0.00000000000E+00  0.45593999997E+02  0.45594000000E+02  0.51100000000E-03 0. -1.
         11   -1    0    0    0    0 -0.00000000000E+00 -0.00000000000E+00 -0.45593999997E+02  0.45594000000E+02  0.51100000000E-03 0.  1.
    9900012    2    1    2    0    0 -0.34222313722E+01  0.21195209007E+02 -0.34528500140E+02  0.50528857433E+02  0.29999992652E+02 0.  0.
         12    1    1    2    0    0  0.34222313722E+01 -0.21195209007E+02  0.34528500140E+02  0.40659142567E+02  0.00000000000E+00 0. -1.
         11    1    3    3    0    0 -0.63473629357E+01 -0.15278972776E+01 -0.63892216981E+01  0.91348585373E+01  0.51100000000E-03 0. -1.
        -11    1    3    3    0    0  0.26468020511E+01  0.20285726617E+02 -0.31300213064E+02  0.37392774751E+02  0.51100000000E-03 0.  1.
         12    1    3    3    0    0  0.27832951235E+00  0.24373796680E+01  0.31609346225E+01  0.40012241441E+01  0.00000000000E+00 0. -1.
</event>
<event>
 7    1  0.4520156E-012  0.5052885E+02  0.7816164E-02  0.1300439E+00
        -11   -1    0    0    0    0  0.00000000000E+00  0.00000000000E+00  0.45593999997E+02  0.45594000000E+02  0.51100000000E-03 0.  1.
         11   -1    0    0    0    0 -0.00000000000E+00 -0.00000000000E+00 -0.45593999997E+02  0.45594000000E+02  0.51100000000E-03 0. -1.
    9900012    2    1    2    0    0  0.10648616655E+02 -0.38911306652E+02  0.50679019095E+01  0.50528850331E+02  0.29999971066E+02 0.  0.
        -12    1    1    2    0    0 -0.10648616655E+02  0.38911306652E+02 -0.50679019095E+01  0.40659149669E+02  0.00000000000E+00 0.  1.
         11    1    3    3    0    0 -0.17179030794E+01 -0.84672408703E+01  0.99869762848E+01  0.13205493346E+02  0.51100000000E-03 0. -1.
        -11    1    3    3    0    0 -0.30162601859E+01 -0.29608869255E+01  0.25742836016E+01  0.49489002029E+01  0.51100000000E-03 0.  1.
         12    1    3    3    0    0  0.15382779921E+02 -0.27483178856E+02 -0.74933579770E+01  0.32374456782E+02  0.00000000000E+00 0. -1.
</event>
<event>
 7    1  0.4520156E-012  0.5052886E+02  0.7816164E-02  0.1300439E+00
        -11   -1    0    0    0    0  0.00000000000E+00  0.00000000000E+00  0.45593999997E+02  0.45594000000E+02  0.51100000000E-03 0. -1.
         11   -1    0    0    0    0 -0.00000000000E+00 -0.00000000000E+00 -0.45593999997E+02  0.45594000000E+02  0.51100000000E-03 0.  1.
    9900012    2    1    2    0    0  0.23916024481E+02  0.10802963752E+02  0.31056171655E+02  0.50528855263E+02  0.29999986059E+02 0.  0.
        -12    1    1    2    0    0 -0.23916024481E+02 -0.10802963752E+02 -0.31056171655E+02  0.40659144737E+02  0.00000000000E+00 0.  1.
         11    1    3    3    0    0  0.11658142647E+02  0.84155250872E+00  0.25254688426E+02  0.27828398955E+02  0.51100000000E-03 0. -1.
        -11    1    3    3    0    0  0.69397406460E+01  0.39527897222E+01  0.10660129537E+02  0.13320019100E+02  0.51100000000E-03 0.  1.
        -12    1    3    3    0    0  0.53181411881E+01  0.60086215207E+01 -0.48586463080E+01  0.93804372085E+01  0.00000000000E+00 0.  1.
</event>
<event>
 7    1  0.4520156E-012  0.5052885E+02  0.7816164E-02  0.1300439E+00
        -11   -1    0    0    0    0  0.00000000000E+00  0.00000000000E+00  0.45593999997E+02  0.45594000000E+02  0.51100000000E-03 0. -1.
         11   -1    0    0    0    0 -0.00000000000E+00 -0.00000000000E+00 -0.45593999997E+02  0.45594000000E+02  0.51100000000E-03 0.  1.
    9900012    2    1    2    0    0  0.87191679734E+01  0.31334042068E+02  0.24399185830E+02  0.50528851563E+02  0.29999974811E+02 0.  0.
        -12    1    1    2    0    0 -0.87191679734E+01 -0.31334042068E+02 -0.24399185830E+02  0.40659148437E+02  0.00000000000E+00 0.  1.
         11    1    3    3    0    0  0.96200467696E+01  0.85687694574E+01  0.19449761437E+02  0.23329430557E+02  0.51100000000E-03 0. -1.
        -11    1    3    3    0    0  0.47526888461E+01  0.29878814780E+01  0.34188239089E+01  0.65729631199E+01  0.51100000000E-03 0.  1.
         12    1    3    3    0    0 -0.56535676423E+01  0.19777391133E+02  0.15306004837E+01  0.20626457886E+02  0.00000000000E+00 0. -1.
</event>
<event>
 7    1  0.4520156E-012  0.5052881E+02  0.7816164E-02  0.1300439E+00
        -11   -1    0    0    0    0  0.00000000000E+00  0.00000000000E+00  0.45593999997E+02  0.45594000000E+02  0.51100000000E-03 0. -1.
         11   -1    0    0    0    0 -0.00000000000E+00 -0.00000000000E+00 -0.45593999997E+02  0.45594000000E+02  0.51100000000E-03 0.  1.
    9900012    2    1    2    0    0 -0.37003653286E+02 -0.86204533608E+01  0.14477124645E+02  0.50528810256E+02  0.29999849255E+02 0.  0.
        -12    1    1    2    0    0  0.37003653286E+02  0.86204533608E+01 -0.14477124645E+02  0.40659189744E+02  0.00000000000E+00 0.  1.
         11    1    3    3    0    0 -0.45437590397E+01 -0.24857266344E+01  0.43394456518E+01  0.67568759007E+01  0.51100000000E-03 0. -1.
        -11    1    3    3    0    0 -0.92070123907E+01 -0.14533227909E+02  0.42504040583E+00  0.17209429108E+02  0.51100000000E-03 0.  1.
         12    1    3    3    0    0 -0.23252881855E+02  0.83985011829E+01  0.97126385869E+01  0.26562505247E+02  0.00000000000E+00 0. -1.
</event>
<event>
 7    1  0.4520156E-012  0.5052885E+02  0.7816164E-02  0.1300439E+00
        -11   -1    0    0    0    0  0.00000000000E+00  0.00000000000E+00  0.45593999997E+02  0.45594000000E+02  0.51100000000E-03 0. -1.
         11   -1    0    0    0    0 -0.00000000000E+00 -0.00000000000E+00 -0.45593999997E+02  0.45594000000E+02  0.51100000000E-03 0.  1.
    9900012    2    1    2    0    0 -0.27591701777E+02  0.16584704704E+02 -0.24835700261E+02  0.50528850420E+02  0.29999971337E+02 0.  0.
         12    1    1    2    0    0  0.27591701777E+02 -0.16584704704E+02  0.24835700261E+02  0.40659149580E+02  0.00000000000E+00 0. -1.
         11    1    3    3    0    0 -0.33777674238E+00  0.62437560516E+01  0.19402333251E+01  0.65469907879E+01  0.51100000000E-03 0. -1.
        -11    1    3    3    0    0  0.20369331622E+01  0.37499626863E+01 -0.64182427033E+01  0.77074740684E+01  0.51100000000E-03 0.  1.
         12    1    3    3    0    0 -0.29290858197E+02  0.65909859665E+01 -0.20357690883E+02  0.36274385564E+02  0.00000000000E+00 0. -1.
</event>
<event>
 7    1  0.4520156E-012  0.5052884E+02  0.7816164E-02  0.1300439E+00
        -11   -1    0    0    0    0  0.00000000000E+00  0.00000000000E+00  0.45593999997E+02  0.45594000000E+02  0.51100000000E-03 0. -1.
         11   -1    0    0    0    0 -0.00000000000E+00 -0.00000000000E+00 -0.45593999997E+02  0.45594000000E+02  0.51100000000E-03 0.  1.
    9900012    2    1    2    0    0  0.51227089630E+01 -0.74834127665E+01  0.39634877081E+02  0.50528842421E+02  0.29999947024E+02 0.  0.
        -12    1    1    2    0    0 -0.51227089630E+01  0.74834127665E+01 -0.39634877081E+02  0.40659157579E+02  0.00000000000E+00 0.  1.
         11    1    3    3    0    0  0.44383132006E+01 -0.90864401649E+01  0.14198609188E+02  0.17431652878E+02  0.51100000000E-03 0. -1.
        -11    1    3    3    0    0  0.69790185702E+01 -0.52008422826E+01  0.36819502520E+01  0.94505141961E+01  0.51100000000E-03 0.  1.
         12    1    3    3    0    0 -0.62946228078E+01  0.68038696810E+01  0.21754317641E+02  0.23646675347E+02  0.00000000000E+00 0. -1.
</event>
<event>
 7    1  0.4520156E-012  0.5052885E+02  0.7816164E-02  0.1300439E+00
        -11   -1    0    0    0    0  0.00000000000E+00  0.00000000000E+00  0.45593999997E+02  0.45594000000E+02  0.51100000000E-03 0. -1.
         11   -1    0    0    0    0 -0.00000000000E+00 -0.00000000000E+00 -0.45593999997E+02  0.45594000000E+02  0.51100000000E-03 0.  1.
    9900012    2    1    2    0    0  0.21937059218E+01  0.20616781990E+02  0.34975742966E+02  0.50528848000E+02  0.29999963981E+02 0.  0.
        -12    1    1    2    0    0 -0.21937059218E+01 -0.20616781990E+02 -0.34975742966E+02  0.40659152000E+02  0.00000000000E+00 0.  1.
         11    1    3    3    0    0  0.19021996634E+01  0.28228366255E+01 -0.74388602193E+00  0.34842699161E+01  0.51100000000E-03 0.  1.
        -11    1    3    3    0    0 -0.50022661851E+01  0.19817115454E+02  0.14444742583E+02  0.25027810940E+02  0.51100000000E-03 0. -1.
        -12    1    3    3    0    0  0.52937724436E+01 -0.20231700895E+01  0.21274886406E+02  0.22016767144E+02  0.00000000000E+00 0.  1.
</event>
<event>
 7    1  0.4520156E-012  0.5052885E+02  0.7816164E-02  0.1300439E+00
        -11   -1    0    0    0    0  0.00000000000E+00  0.00000000000E+00  0.45593999997E+02  0.45594000000E+02  0.51100000000E-03 0. -1.
         11   -1    0    0    0    0 -0.00000000000E+00 -0.00000000000E+00 -0.45593999997E+02  0.45594000000E+02  0.51100000000E-03 0.  1.
    9900012    2    1    2    0    0  0.32410171934E+02  0.14988158364E+02  0.19444846101E+02  0.50528853725E+02  0.29999981383E+02 0.  0.
        -12    1    1    2    0    0 -0.32410171934E+02 -0.14988158364E+02 -0.19444846101E+02  0.40659146275E+02  0.00000000000E+00 0.  1.
         11    1    3    3    0    0  0.23413002451E+02  0.63600682879E+01  0.20299678391E+02  0.31633780922E+02  0.51100000000E-03 0. -1.
        -11    1    3    3    0    0  0.10048666399E+02  0.98539456160E+01  0.32842433285E+01  0.14452065427E+02  0.51100000000E-03 0.  1.
        -12    1    3    3    0    0 -0.10514969161E+01 -0.12258555401E+01 -0.41390756183E+01  0.44430073761E+01  0.00000000000E+00 0.  1.
</event>
<event>
 7    1  0.4520156E-012  0.5052886E+02  0.7816164E-02  0.1300439E+00
        -11   -1    0    0    0    0  0.00000000000E+00  0.00000000000E+00  0.45593999997E+02  0.45594000000E+02  0.51100000000E-03 0. -1.
         11   -1    0    0    0    0 -0.00000000000E+00 -0.00000000000E+00 -0.45593999997E+02  0.45594000000E+02  0.51100000000E-03 0.  1.
    9900012    2    1    2    0    0 -0.25988697799E+02  0.10714096808E+02 -0.29376205812E+02  0.50528858942E+02  0.29999997239E+02 0.  0.
         12    1    1    2    0    0  0.25988697799E+02 -0.10714096808E+02  0.29376205812E+02  0.40659141058E+02  0.00000000000E+00 0. -1.
         11    1    3    3    0    0 -0.14637194011E+02  0.63032655014E+01 -0.17158066387E+02  0.23417468841E+02  0.51100000000E-03 0. -1.
        -11    1    3    3    0    0 -0.87237101956E+01  0.20773327397E+01 -0.18134126691E+02  0.20230298613E+02  0.51100000000E-03 0.  1.
         12    1    3    3    0    0 -0.26277935915E+01  0.23334985673E+01  0.59159872660E+01  0.68810914871E+01  0.00000000000E+00 0. -1.
</event>
<event>
 7    1  0.4520156E-012  0.5052885E+02  0.7816164E-02  0.1300439E+00
        -11   -1    0    0    0    0  0.00000000000E+00  0.00000000000E+00  0.45593999997E+02  0.45594000000E+02  0.51100000000E-03 0. -1.
         11   -1    0    0    0    0 -0.00000000000E+00 -0.00000000000E+00 -0.45593999997E+02  0.45594000000E+02  0.51100000000E-03 0.  1.
    9900012    2    1    2    0    0 -0.14990720864E+01  0.35631028125E+02 -0.19528153417E+02  0.50528853941E+02  0.29999982039E+02 0.  0.
         12    1    1    2    0    0  0.14990720864E+01 -0.35631028125E+02  0.19528153417E+02  0.40659146059E+02  0.00000000000E+00 0. -1.
         11    1    3    3    0    0  0.16531079834E+01 -0.10204926215E+01  0.18952590207E+01  0.27140704139E+01  0.51100000000E-03 0. -1.
        -11    1    3    3    0    0 -0.82537445238E+01  0.58300610035E+01 -0.31265728090E+00  0.10109978477E+02  0.51100000000E-03 0.  1.
        -12    1    3    3    0    0  0.51015644540E+01  0.30821459743E+02 -0.21110755157E+02  0.37704805050E+02  0.00000000000E+00 0.  1.
</event>
<event>
 7    1  0.4520156E-012  0.5052886E+02  0.7816164E-02  0.1300439E+00
        -11   -1    0    0    0    0  0.00000000000E+00  0.00000000000E+00  0.45593999997E+02  0.45594000000E+02  0.51100000000E-03 0. -1.
         11   -1    0    0    0    0 -0.00000000000E+00 -0.00000000000E+00 -0.45593999997E+02  0.45594000000E+02  0.51100000000E-03 0.  1.
    9900012    2    1    2    0    0  0.34923687327E+01 -0.19706686923E+02 -0.35392313870E+02  0.50528855519E+02  0.29999986836E+02 0.  0.
         12    1    1    2    0    0 -0.34923687327E+01  0.19706686923E+02  0.35392313870E+02  0.40659144481E+02  0.00000000000E+00 0. -1.
         11    1    3    3    0    0 -0.39604620083E+01 -0.13591237376E+02 -0.79793304663E+01  0.16250437153E+02  0.51100000000E-03 0. -1.
        -11    1    3    3    0    0 -0.41044944644E+01 -0.76128454223E+01 -0.14506009946E+02  0.16888653441E+02  0.51100000000E-03 0.  1.
         12    1    3    3    0    0  0.11557325205E+02  0.14973958745E+01 -0.12906973457E+02  0.17389764925E+02  0.00000000000E+00 0. -1.
</event>
<event>
 7    1  0.4520156E-012  0.5052887E+02  0.7816164E-02  0.1300439E+00
        -11   -1    0    0    0    0  0.00000000000E+00  0.00000000000E+00  0.45593999997E+02  0.45594000000E+02  0.51100000000E-03 0. -1.
         11   -1    0    0    0    0 -0.00000000000E+00 -0.00000000000E+00 -0.45593999997E+02  0.45594000000E+02  0.51100000000E-03 0.  1.
    9900012    2    1    2    0    0  0.27008335407E+02  0.36564219689E+01  0.30171933894E+02  0.50528865750E+02  0.30000017933E+02 0.  0.
        -12    1    1    2    0    0 -0.27008335407E+02 -0.36564219689E+01 -0.30171933894E+02  0.40659134250E+02  0.00000000000E+00 0.  1.
         11    1    3    3    0    0  0.11298791441E+02  0.12191399829E+02  0.16919461609E+02  0.23718370501E+02  0.51100000000E-03 0. -1.
        -11    1    3    3    0    0  0.10407236393E+02  0.27927423026E+01  0.55353635129E+01  0.12114050866E+02  0.51100000000E-03 0.  1.
        -12    1    3    3    0    0  0.53023075730E+01 -0.11327720163E+02  0.77171087715E+01  0.14696444382E+02  0.00000000000E+00 0.  1.
</event>
<event>
 7    1  0.4520156E-012  0.5052886E+02  0.7816164E-02  0.1300439E+00
        -11   -1    0    0    0    0  0.00000000000E+00  0.00000000000E+00  0.45593999997E+02  0.45594000000E+02  0.51100000000E-03 0. -1.
         11   -1    0    0    0    0 -0.00000000000E+00 -0.00000000000E+00 -0.45593999997E+02  0.45594000000E+02  0.51100000000E-03 0.  1.
    9900012    2    1    2    0    0  0.27447528590E+02  0.67199477969E+01  0.29234241975E+02  0.50528862922E+02  0.30000009337E+02 0.  0.
        -12    1    1    2    0    0 -0.27447528590E+02 -0.67199477969E+01 -0.29234241975E+02  0.40659137078E+02  0.00000000000E+00 0.  1.
         11    1    3    3    0    0  0.13862068840E+02  0.33981170092E+01  0.20397389589E+02  0.24894932296E+02  0.51100000000E-03 0. -1.
        -11    1    3    3    0    0  0.87011697507E+01  0.25108495709E+01  0.15125939575E+02  0.17629769394E+02  0.51100000000E-03 0.  1.
        -12    1    3    3    0    0  0.48842900003E+01  0.81098121680E+00 -0.62890871896E+01  0.80041612315E+01  0.00000000000E+00 0.  1.
</event>
<event>
 7    1  0.5988136E-012  0.5052886E+02  0.7816164E-02  0.1300439E+00
        -11   -1    0    0    0    0  0.00000000000E+00  0.00000000000E+00  0.45593999997E+02  0.45594000000E+02  0.51100000000E-03 0. -1.
         11   -1    0    0    0    0 -0.00000000000E+00 -0.00000000000E+00 -0.45593999997E+02  0.45594000000E+02  0.51100000000E-03 0.  1.
    9900012    2    1    2    0    0 -0.25150559431E+02 -0.54671648207E+01  0.31475787824E+02  0.50528858961E+02  0.29999997298E+02 0.  0.
        -12    1    1    2    0    0  0.25150559431E+02  0.54671648207E+01 -0.31475787824E+02  0.40659141039E+02  0.00000000000E+00 0.  1.
         11    1    3    3    0    0  0.32060311049E+01 -0.49782861418E+01  0.21784973591E+01  0.63093438137E+01  0.51100000000E-03 0. -1.
        -11    1    3    3    0    0 -0.59318878242E+00 -0.10558700403E+00  0.10888819364E+02  0.10905476099E+02  0.51100000000E-03 0.  1.
         12    1    3    3    0    0 -0.27763401753E+02 -0.38329167490E+00  0.18408471101E+02  0.33314039048E+02  0.00000000000E+00 0. -1.
</event>
<event>
 7    1  0.4520156E-012  0.5052886E+02  0.7816164E-02  0.1300439E+00
        -11   -1    0    0    0    0  0.00000000000E+00  0.00000000000E+00  0.45593999997E+02  0.45594000000E+02  0.51100000000E-03 0. -1.
         11   -1    0    0    0    0 -0.00000000000E+00 -0.00000000000E+00 -0.45593999997E+02  0.45594000000E+02  0.51100000000E-03 0.  1.
    9900012    2    1    2    0    0 -0.63037986670E+01 -0.10208604567E+02 -0.38848577457E+02  0.50528862586E+02  0.30000008316E+02 0.  0.
         12    1    1    2    0    0  0.63037986670E+01  0.10208604567E+02  0.38848577457E+02  0.40659137414E+02  0.00000000000E+00 0. -1.
         11    1    3    3    0    0 -0.92258269324E+01  0.63066317018E+01 -0.12489765710E+02  0.16759586324E+02  0.51100000000E-03 0. -1.
        -11    1    3    3    0    0  0.59549593985E+01 -0.76586727786E+01 -0.61205521980E+01  0.11470744075E+02  0.51100000000E-03 0.  1.
        -12    1    3    3    0    0 -0.30329311331E+01 -0.88565634902E+01 -0.20238259549E+02  0.22298532187E+02  0.00000000000E+00 0.  1.
</event>
<event>
 7    1  0.4520156E-012  0.5052886E+02  0.7816164E-02  0.1300439E+00
        -11   -1    0    0    0    0  0.00000000000E+00  0.00000000000E+00  0.45593999997E+02  0.45594000000E+02  0.51100000000E-03 0. -1.
         11   -1    0    0    0    0 -0.00000000000E+00 -0.00000000000E+00 -0.45593999997E+02  0.45594000000E+02  0.51100000000E-03 0.  1.
    9900012    2    1    2    0    0  0.28853068176E+02 -0.13891256007E+02  0.25053919582E+02  0.50528862982E+02  0.30000009519E+02 0.  0.
        -12    1    1    2    0    0 -0.28853068176E+02  0.13891256007E+02 -0.25053919582E+02  0.40659137018E+02  0.00000000000E+00 0.  1.
         11    1    3    3    0    0  0.11130054092E+02 -0.93472709125E+01  0.28857258425E+01  0.14818130499E+02  0.51100000000E-03 0. -1.
        -11    1    3    3    0    0  0.19115982006E+02 -0.39658934829E+01  0.74198534940E+01  0.20885480729E+02  0.51100000000E-03 0.  1.
         12    1    3    3    0    0 -0.13929679210E+01 -0.57809161139E+00  0.14748340246E+02  0.14825251753E+02  0.00000000000E+00 0. -1.
</event>
<event>
 7    1  0.4520156E-012  0.5052887E+02  0.7816164E-02  0.1300439E+00
        -11   -1    0    0    0    0  0.00000000000E+00  0.00000000000E+00  0.45593999997E+02  0.45594000000E+02  0.51100000000E-03 0.  1.
         11   -1    0    0    0    0 -0.00000000000E+00 -0.00000000000E+00 -0.45593999997E+02  0.45594000000E+02  0.51100000000E-03 0. -1.
    9900012    2    1    2    0    0 -0.17588575276E+02  0.30906712923E+02 -0.19712492377E+02  0.50528865237E+02  0.30000016374E+02 0.  0.
         12    1    1    2    0    0  0.17588575276E+02 -0.30906712923E+02  0.19712492377E+02  0.40659134763E+02  0.00000000000E+00 0. -1.
         11    1    3    3    0    0 -0.31813804036E+01  0.13325384693E+01 -0.69684764790E+01  0.77753781094E+01  0.51100000000E-03 0. -1.
        -11    1    3    3    0    0 -0.20072380890E+01  0.13039639582E+02 -0.17133918943E+02  0.21624809451E+02  0.51100000000E-03 0.  1.
        -12    1    3    3    0    0 -0.12399956783E+02  0.16534534871E+02  0.43899030442E+01  0.21128677677E+02  0.00000000000E+00 0.  1.
</event>
<event>
 7    1  0.4520156E-012  0.5052884E+02  0.7816164E-02  0.1300439E+00
        -11   -1    0    0    0    0  0.00000000000E+00  0.00000000000E+00  0.45593999997E+02  0.45594000000E+02  0.51100000000E-03 0. -1.
         11   -1    0    0    0    0 -0.00000000000E+00 -0.00000000000E+00 -0.45593999997E+02  0.45594000000E+02  0.51100000000E-03 0.  1.
    9900012    2    1    2    0    0 -0.37839411988E+02  0.12631086809E+02 -0.78613985974E+01  0.50528843080E+02  0.29999949026E+02 0.  0.
         12    1    1    2    0    0  0.37839411988E+02 -0.12631086809E+02  0.78613985974E+01  0.40659156920E+02  0.00000000000E+00 0. -1.
         11    1    3    3    0    0 -0.25629950615E+01 -0.25697171925E+01 -0.33953550120E+01  0.49699925607E+01  0.51100000000E-03 0. -1.
        -11    1    3    3    0    0 -0.15304754809E+02 -0.17974045320E+01 -0.10500581521E+02  0.18647476917E+02  0.51100000000E-03 0.  1.
         12    1    3    3    0    0 -0.19971662117E+02  0.16998208534E+02  0.60345379360E+01  0.26911373602E+02  0.00000000000E+00 0. -1.
</event>
<event>
 7    1  0.4520156E-012  0.5052886E+02  0.7816164E-02  0.1300439E+00
        -11   -1    0    0    0    0  0.00000000000E+00  0.00000000000E+00  0.45593999997E+02  0.45594000000E+02  0.51100000000E-03 0. -1.
         11   -1    0    0    0    0 -0.00000000000E+00 -0.00000000000E+00 -0.45593999997E+02  0.45594000000E+02  0.51100000000E-03 0.  1.
    9900012    2    1    2    0    0  0.31739797204E+02  0.13037805738E+02 -0.21812066943E+02  0.50528863642E+02  0.30000011527E+02 0.  0.
         12    1    1    2    0    0 -0.31739797204E+02 -0.13037805738E+02  0.21812066943E+02  0.40659136358E+02  0.00000000000E+00 0. -1.
         11    1    3    3    0    0  0.16312596128E+02  0.14083826066E+01 -0.11181686000E+02  0.19827113660E+02  0.51100000000E-03 0. -1.
        -11    1    3    3    0    0  0.19245529881E+02  0.69798929327E+01 -0.12982796909E+02  0.24241747908E+02  0.51100000000E-03 0.  1.
         12    1    3    3    0    0 -0.38183288052E+01  0.46495301983E+01  0.23524159663E+01  0.64600020749E+01  0.00000000000E+00 0. -1.
</event>
<event>
 7    1  0.4520156E-012  0.5052886E+02  0.7816164E-02  0.1300439E+00
        -11   -1    0    0    0    0  0.00000000000E+00  0.00000000000E+00  0.45593999997E+02  0.45594000000E+02  0.51100000000E-03 0. -1.
         11   -1    0    0    0    0 -0.00000000000E+00 -0.00000000000E+00 -0.45593999997E+02  0.45594000000E+02  0.51100000000E-03 0.  1.
    9900012    2    1    2    0    0  0.36335292909E+02  0.10307255934E+02 -0.15055652489E+02  0.50528859483E+02  0.29999998885E+02 0.  0.
         12    1    1    2    0    0 -0.36335292909E+02 -0.10307255934E+02  0.15055652489E+02  0.40659140517E+02  0.00000000000E+00 0. -1.
         11    1    3    3    0    0  0.35569346348E+01 -0.37930700119E+01 -0.61511153910E-01  0.52002834533E+01  0.51100000000E-03 0. -1.
        -11    1    3    3    0    0  0.16996198296E+02 -0.20534359282E+01 -0.14974798265E+02  0.22744932160E+02  0.51100000000E-03 0.  1.
         12    1    3    3    0    0  0.15782159979E+02  0.16153761874E+02 -0.19343070258E-01  0.22583643870E+02  0.00000000000E+00 0. -1.
</event>
<event>
 7    1  0.4520156E-012  0.5052886E+02  0.7816164E-02  0.1300439E+00
        -11   -1    0    0    0    0  0.00000000000E+00  0.00000000000E+00  0.45593999997E+02  0.45594000000E+02  0.51100000000E-03 0. -1.
         11   -1    0    0    0    0 -0.00000000000E+00 -0.00000000000E+00 -0.45593999997E+02  0.45594000000E+02  0.51100000000E-03 0.  1.
    9900012    2    1    2    0    0 -0.41767595638E+01  0.11132262404E+02  0.38881780326E+02  0.50528862922E+02  0.30000009336E+02 0.  0.
        -12    1    1    2    0    0  0.41767595638E+01 -0.11132262404E+02 -0.38881780326E+02  0.40659137078E+02  0.00000000000E+00 0.  1.
         11    1    3    3    0    0  0.75412583595E+00  0.81775650283E+01  0.20947302687E+02  0.22499572567E+02  0.51100000000E-03 0. -1.
        -11    1    3    3    0    0 -0.59800244829E+00  0.82335683394E+01  0.19365457149E+02  0.21051607668E+02  0.51100000000E-03 0.  1.
        -12    1    3    3    0    0 -0.43328829514E+01 -0.52788709639E+01 -0.14309795107E+01  0.69776826873E+01  0.00000000000E+00 0.  1.
</event>
<event>
 7    1  0.4520156E-012  0.5052889E+02  0.7816164E-02  0.1300439E+00
        -11   -1    0    0    0    0  0.00000000000E+00  0.00000000000E+00  0.45593999997E+02  0.45594000000E+02  0.51100000000E-03 0. -1.
         11   -1    0    0    0    0 -0.00000000000E+00 -0.00000000000E+00 -0.45593999997E+02  0.45594000000E+02  0.51100000000E-03 0.  1.
    9900012    2    1    2    0    0 -0.97487559450E+01  0.26262264280E+02 -0.29468938876E+02  0.50528891229E+02  0.30000095378E+02 0.  0.
         12    1    1    2    0    0  0.97487559450E+01 -0.26262264280E+02  0.29468938876E+02  0.40659108771E+02  0.00000000000E+00 0. -1.
         11    1    3    3    0    0 -0.84174979970E+01  0.15369327999E+02 -0.93732875723E+01  0.19872821537E+02  0.51100000000E-03 0. -1.
        -11    1    3    3    0    0 -0.99392367170E+01  0.12299074258E+01 -0.10756289612E+02  0.14696899852E+02  0.51100000000E-03 0.  1.
         12    1    3    3    0    0  0.86079787690E+01  0.96630288551E+01 -0.93393616924E+01  0.15959169839E+02  0.00000000000E+00 0. -1.
</event>
<event>
 7    1  0.4520156E-012  0.5052888E+02  0.7816164E-02  0.1300439E+00
        -11   -1    0    0    0    0  0.00000000000E+00  0.00000000000E+00  0.45593999997E+02  0.45594000000E+02  0.51100000000E-03 0. -1.
         11   -1    0    0    0    0 -0.00000000000E+00 -0.00000000000E+00 -0.45593999997E+02  0.45594000000E+02  0.51100000000E-03 0.  1.
    9900012    2    1    2    0    0  0.46180816750E+01  0.79120342616E+01 -0.39613592519E+02  0.50528884457E+02  0.30000074794E+02 0.  0.
         12    1    1    2    0    0 -0.46180816750E+01 -0.79120342616E+01  0.39613592519E+02  0.40659115543E+02  0.00000000000E+00 0. -1.
         11    1    3    3    0    0 -0.28397915133E+01 -0.53811131604E+01 -0.54783112340E+01  0.81873493221E+01  0.51100000000E-03 0.  1.
        -11    1    3    3    0    0 -0.49423552362E+01 -0.24619587071E+00 -0.15120752846E+02  0.15909891721E+02  0.51100000000E-03 0. -1.
         12    1    3    3    0    0  0.12400228425E+02  0.13539343293E+02 -0.19014528439E+02  0.26431643414E+02  0.00000000000E+00 0. -1.
</event>
<event>
 7    1  0.4520156E-012  0.5052886E+02  0.7816164E-02  0.1300439E+00
        -11   -1    0    0    0    0  0.00000000000E+00  0.00000000000E+00  0.45593999997E+02  0.45594000000E+02  0.51100000000E-03 0. -1.
         11   -1    0    0    0    0 -0.00000000000E+00 -0.00000000000E+00 -0.45593999997E+02  0.45594000000E+02  0.51100000000E-03 0.  1.
    9900012    2    1    2    0    0  0.19350726467E+02  0.18287515788E+02 -0.30729170382E+02  0.50528858828E+02  0.29999996892E+02 0.  0.
         12    1    1    2    0    0 -0.19350726467E+02 -0.18287515788E+02  0.30729170382E+02  0.40659141172E+02  0.00000000000E+00 0. -1.
         11    1    3    3    0    0  0.68717893253E+01  0.12668599701E+02 -0.93939728110E+01  0.17203535461E+02  0.51100000000E-03 0.  1.
        -11    1    3    3    0    0  0.92301806097E+01  0.13038795471E+02 -0.83626091301E+01  0.18031629243E+02  0.51100000000E-03 0. -1.
        -12    1    3    3    0    0  0.32487565323E+01 -0.74198793847E+01 -0.12972588441E+02  0.15293694124E+02  0.00000000000E+00 0.  1.
</event>
<event>
 7    1  0.4520156E-012  0.5052886E+02  0.7816164E-02  0.1300439E+00
        -11   -1    0    0    0    0  0.00000000000E+00  0.00000000000E+00  0.45593999997E+02  0.45594000000E+02  0.51100000000E-03 0. -1.
         11   -1    0    0    0    0 -0.00000000000E+00 -0.00000000000E+00 -0.45593999997E+02  0.45594000000E+02  0.51100000000E-03 0.  1.
    9900012    2    1    2    0    0  0.61510052655E+01  0.26580452466E+02 -0.30146483830E+02  0.50528858268E+02  0.29999995191E+02 0.  0.
         12    1    1    2    0    0 -0.61510052655E+01 -0.26580452466E+02  0.30146483830E+02  0.40659141732E+02  0.00000000000E+00 0. -1.
         11    1    3    3    0    0  0.44790353031E+01  0.17143739659E+01  0.32668025824E+01  0.58028298885E+01  0.51100000000E-03 0. -1.
        -11    1    3    3    0    0  0.41058450715E+01  0.14127083483E+00 -0.17154137437E+01  0.44520293994E+01  0.51100000000E-03 0.  1.
        -12    1    3    3    0    0 -0.24338751091E+01  0.24724807666E+02 -0.31697872668E+02  0.40273998980E+02  0.00000000000E+00 0.  1.
</event>
<event>
 7    1  0.4520156E-012  0.5052880E+02  0.7816164E-02  0.1300439E+00
        -11   -1    0    0    0    0  0.00000000000E+00  0.00000000000E+00  0.45593999997E+02  0.45594000000E+02  0.51100000000E-03 0. -1.
         11   -1    0    0    0    0 -0.00000000000E+00 -0.00000000000E+00 -0.45593999997E+02  0.45594000000E+02  0.51100000000E-03 0.  1.
    9900012    2    1    2    0    0 -0.23275478338E+01  0.70188685147E+01  0.39981103852E+02  0.50528798589E+02  0.29999813790E+02 0.  0.
        -12    1    1    2    0    0  0.23275478338E+01 -0.70188685147E+01 -0.39981103852E+02  0.40659201411E+02  0.00000000000E+00 0.  1.
         11    1    3    3    0    0 -0.11991901653E+02  0.34148870697E+01  0.21251306523E+02  0.24639098769E+02  0.51100000000E-03 0. -1.
        -11    1    3    3    0    0 -0.37376526147E+01  0.70736189870E+00  0.21314940571E+01  0.43604673030E+01  0.51100000000E-03 0.  1.
        -12    1    3    3    0    0  0.13402006434E+02  0.28966195462E+01  0.16598303272E+02  0.21529232517E+02  0.00000000000E+00 0.  1.
</event>
<event>
 7    1  0.4520156E-012  0.5052887E+02  0.7816164E-02  0.1300439E+00
        -11   -1    0    0    0    0  0.00000000000E+00  0.00000000000E+00  0.45593999997E+02  0.45594000000E+02  0.51100000000E-03 0.  1.
         11   -1    0    0    0    0 -0.00000000000E+00 -0.00000000000E+00 -0.45593999997E+02  0.45594000000E+02  0.51100000000E-03 0. -1.
    9900012    2    1    2    0    0 -0.26964057917E+02  0.30196679869E+02  0.37768908321E+01  0.50528870659E+02  0.30000032854E+02 0.  0.
        -12    1    1    2    0    0  0.26964057917E+02 -0.30196679869E+02 -0.37768908321E+01  0.40659129341E+02  0.00000000000E+00 0.  1.
         11    1    3    3    0    0 -0.34112759627E+01 -0.38317378668E+01 -0.20240478096E+01  0.55150510940E+01  0.51100000000E-03 0.  1.
        -11    1    3    3    0    0 -0.97232404588E+01  0.21316679937E+02  0.10463212567E+02  0.25659716796E+02  0.51100000000E-03 0. -1.
         12    1    3    3    0    0 -0.13829541495E+02  0.12711737799E+02 -0.46622739257E+01  0.19354102769E+02  0.00000000000E+00 0. -1.
</event>
<event>
 7    1  0.4520156E-012  0.5052885E+02  0.7816164E-02  0.1300439E+00
        -11   -1    0    0    0    0  0.00000000000E+00  0.00000000000E+00  0.45593999997E+02  0.45594000000E+02  0.51100000000E-03 0. -1.
         11   -1    0    0    0    0 -0.00000000000E+00 -0.00000000000E+00 -0.45593999997E+02  0.45594000000E+02  0.51100000000E-03 0.  1.
    9900012    2    1    2    0    0  0.30571996805E+01 -0.18785790178E+02  0.35929292497E+02  0.50528850454E+02  0.29999971439E+02 0.  0.
        -12    1    1    2    0    0 -0.30571996805E+01  0.18785790178E+02 -0.35929292497E+02  0.40659149546E+02  0.00000000000E+00 0.  1.
         11    1    3    3    0    0 -0.38507046497E+01 -0.67192437296E+01  0.14912787692E+02  0.16803791227E+02  0.51100000000E-03 0.  1.
        -11    1    3    3    0    0  0.73508832622E+00 -0.43233010397E+01  0.23178074663E+02  0.23589286383E+02  0.51100000000E-03 0. -1.
        -12    1    3    3    0    0  0.61728160040E+01 -0.77432454088E+01 -0.21615698583E+01  0.10135772843E+02  0.00000000000E+00 0.  1.
</event>
<event>
 7    1  0.4520156E-012  0.5052888E+02  0.7816164E-02  0.1300439E+00
        -11   -1    0    0    0    0  0.00000000000E+00  0.00000000000E+00  0.45593999997E+02  0.45594000000E+02  0.51100000000E-03 0.  1.
         11   -1    0    0    0    0 -0.00000000000E+00 -0.00000000000E+00 -0.45593999997E+02  0.45594000000E+02  0.51100000000E-03 0. -1.
    9900012    2    1    2    0    0 -0.16015424479E+02  0.27602822852E+02 -0.25194335069E+02  0.50528878389E+02  0.30000056351E+02 0.  0.
        -12    1    1    2    0    0  0.16015424479E+02 -0.27602822852E+02  0.25194335069E+02  0.40659121611E+02  0.00000000000E+00 0.  1.
         11    1    3    3    0    0 -0.12357531589E+01 -0.39703189971E+01 -0.33891017900E+01  0.53643760133E+01  0.51100000000E-03 0. -1.
        -11    1    3    3    0    0  0.26530240517E+01  0.42361216555E+01  0.15191273892E+01  0.52240799750E+01  0.51100000000E-03 0.  1.
         12    1    3    3    0    0 -0.17432695372E+02  0.27337020193E+02 -0.23324360668E+02  0.39940422401E+02  0.00000000000E+00 0. -1.
</event>
<event>
 7    1  0.4520156E-012  0.5052886E+02  0.7816164E-02  0.1300439E+00
        -11   -1    0    0    0    0  0.00000000000E+00  0.00000000000E+00  0.45593999997E+02  0.45594000000E+02  0.51100000000E-03 0. -1.
         11   -1    0    0    0    0 -0.00000000000E+00 -0.00000000000E+00 -0.45593999997E+02  0.45594000000E+02  0.51100000000E-03 0.  1.
    9900012    2    1    2    0    0 -0.28458475935E+01 -0.39046209717E+01  0.40371036120E+02  0.50528862394E+02  0.30000007733E+02 0.  0.
        -12    1    1    2    0    0  0.28458475935E+01  0.39046209717E+01 -0.40371036120E+02  0.40659137606E+02  0.00000000000E+00 0.  1.
         11    1    3    3    0    0  0.61122128509E+01  0.38613417914E+01  0.36787587436E+01  0.81118661551E+01  0.51100000000E-03 0. -1.
        -11    1    3    3    0    0  0.50712994201E+01  0.63601447032E-01  0.68301229490E+01  0.85072147446E+01  0.51100000000E-03 0.  1.
         12    1    3    3    0    0 -0.14029359864E+02 -0.78295642101E+01  0.29862154428E+02  0.33909781494E+02  0.00000000000E+00 0. -1.
</event>
<event>
 7    1  0.4520156E-012  0.5052886E+02  0.7816164E-02  0.1300439E+00
        -11   -1    0    0    0    0  0.00000000000E+00  0.00000000000E+00  0.45593999997E+02  0.45594000000E+02  0.51100000000E-03 0. -1.
         11   -1    0    0    0    0 -0.00000000000E+00 -0.00000000000E+00 -0.45593999997E+02  0.45594000000E+02  0.51100000000E-03 0.  1.
    9900012    2    1    2    0    0 -0.17784674552E+02 -0.26591398563E+02 -0.25095192764E+02  0.50528858023E+02  0.29999994447E+02 0.  0.
         12    1    1    2    0    0  0.17784674552E+02  0.26591398563E+02  0.25095192764E+02  0.40659141977E+02  0.00000000000E+00 0. -1.
         11    1    3    3    0    0 -0.71209319654E+01 -0.67145190062E+01 -0.12242508248E+02  0.15673909723E+02  0.51100000000E-03 0. -1.
        -11    1    3    3    0    0 -0.12106046742E+02 -0.18567306683E+02 -0.18506158010E+02  0.28875233847E+02  0.51100000000E-03 0.  1.
         12    1    3    3    0    0  0.14423041560E+01 -0.13095728737E+01  0.56534734939E+01  0.59797144527E+01  0.00000000000E+00 0. -1.
</event>
<event>
 7    1  0.4520156E-012  0.5052889E+02  0.7816164E-02  0.1300439E+00
        -11   -1    0    0    0    0  0.00000000000E+00  0.00000000000E+00  0.45593999997E+02  0.45594000000E+02  0.51100000000E-03 0. -1.
         11   -1    0    0    0    0 -0.00000000000E+00 -0.00000000000E+00 -0.45593999997E+02  0.45594000000E+02  0.51100000000E-03 0.  1.
    9900012    2    1    2    0    0  0.21067152221E+02  0.92896100268E+01  0.33511805586E+02  0.50528894368E+02  0.30000104920E+02 0.  0.
        -12    1    1    2    0    0 -0.21067152221E+02 -0.92896100268E+01 -0.33511805586E+02  0.40659105632E+02  0.00000000000E+00 0.  1.
         11    1    3    3    0    0  0.16707796256E+02 -0.20821034345E+01  0.83998116894E+01  0.18816015708E+02  0.51100000000E-03 0. -1.
        -11    1    3    3    0    0 -0.10439852081E+01 -0.61017625490E+00  0.15206310956E+02  0.15254314581E+02  0.51100000000E-03 0.  1.
         12    1    3    3    0    0  0.54033411731E+01  0.11981889716E+02  0.99056829410E+01  0.16458564079E+02  0.00000000000E+00 0. -1.
</event>
<event>
 7    1  0.4520156E-012  0.5052886E+02  0.7816164E-02  0.1300439E+00
        -11   -1    0    0    0    0  0.00000000000E+00  0.00000000000E+00  0.45593999997E+02  0.45594000000E+02  0.51100000000E-03 0. -1.
         11   -1    0    0    0    0 -0.00000000000E+00 -0.00000000000E+00 -0.45593999997E+02  0.45594000000E+02  0.51100000000E-03 0.  1.
    9900012    2    1    2    0    0  0.72926546106E+01 -0.57381655614E+01 -0.39586063796E+02  0.50528858321E+02  0.29999995351E+02 0.  0.
         12    1    1    2    0    0 -0.72926546106E+01  0.57381655614E+01  0.39586063796E+02  0.40659141679E+02  0.00000000000E+00 0. -1.
         11    1    3    3    0    0  0.13432960796E+01 -0.14038331618E+02 -0.26996089678E+02  0.30457643657E+02  0.51100000000E-03 0.  1.
        -11    1    3    3    0    0  0.64706446398E+00 -0.26688394747E+01 -0.29449696770E+00  0.27619060968E+01  0.51100000000E-03 0. -1.
         12    1    3    3    0    0  0.53022940670E+01  0.10969005531E+02 -0.12295477150E+02  0.17309308567E+02  0.00000000000E+00 0. -1.
</event>
<event>
 7    1  0.4520156E-012  0.5052886E+02  0.7816164E-02  0.1300439E+00
        -11   -1    0    0    0    0  0.00000000000E+00  0.00000000000E+00  0.45593999997E+02  0.45594000000E+02  0.51100000000E-03 0. -1.
         11   -1    0    0    0    0 -0.00000000000E+00 -0.00000000000E+00 -0.45593999997E+02  0.45594000000E+02  0.51100000000E-03 0.  1.
    9900012    2    1    2    0    0 -0.24128466454E+02  0.15949571644E+02 -0.28576112641E+02  0.50528856592E+02  0.29999990096E+02 0.  0.
         12    1    1    2    0    0  0.24128466454E+02 -0.15949571644E+02  0.28576112641E+02  0.40659143408E+02  0.00000000000E+00 0. -1.
         11    1    3    3    0    0 -0.17832291427E+02  0.28660026477E+00 -0.20855058808E+02  0.27440959083E+02  0.51100000000E-03 0. -1.
        -11    1    3    3    0    0 -0.49119075409E+01  0.84689111200E+01 -0.11285900497E+02  0.14940577015E+02  0.51100000000E-03 0.  1.
        -12    1    3    3    0    0 -0.13842674865E+01  0.71940602590E+01  0.35648466644E+01  0.81473204936E+01  0.00000000000E+00 0.  1.
</event>
<event>
 7    1  0.4520156E-012  0.5052886E+02  0.7816164E-02  0.1300439E+00
        -11   -1    0    0    0    0  0.00000000000E+00  0.00000000000E+00  0.45593999997E+02  0.45594000000E+02  0.51100000000E-03 0. -1.
         11   -1    0    0    0    0 -0.00000000000E+00 -0.00000000000E+00 -0.45593999997E+02  0.45594000000E+02  0.51100000000E-03 0.  1.
    9900012    2    1    2    0    0  0.30372165485E+02  0.14772312432E+01 -0.26991018320E+02  0.50528859350E+02  0.29999998481E+02 0.  0.
         12    1    1    2    0    0 -0.30372165485E+02 -0.14772312432E+01  0.26991018320E+02  0.40659140650E+02  0.00000000000E+00 0. -1.
         11    1    3    3    0    0  0.16646875479E+02 -0.43906260768E+01 -0.86940459336E+01  0.19286847734E+02  0.51100000000E-03 0. -1.
        -11    1    3    3    0    0  0.13193255424E+02  0.13515811996E+01 -0.93595399517E+00  0.13295291293E+02  0.51100000000E-03 0.  1.
        -12    1    3    3    0    0  0.53203458252E+00  0.45162761203E+01 -0.17361018391E+02  0.17946720324E+02  0.00000000000E+00 0.  1.
</event>
<event>
 7    1  0.4520156E-012  0.5052886E+02  0.7816164E-02  0.1300439E+00
        -11   -1    0    0    0    0  0.00000000000E+00  0.00000000000E+00  0.45593999997E+02  0.45594000000E+02  0.51100000000E-03 0.  1.
         11   -1    0    0    0    0 -0.00000000000E+00 -0.00000000000E+00 -0.45593999997E+02  0.45594000000E+02  0.51100000000E-03 0. -1.
    9900012    2    1    2    0    0  0.35364933078E+02 -0.14935140974E+02 -0.13395106623E+02  0.50528858237E+02  0.29999995096E+02 0.  0.
         12    1    1    2    0    0 -0.35364933078E+02  0.14935140974E+02  0.13395106623E+02  0.40659141763E+02  0.00000000000E+00 0. -1.
         11    1    3    3    0    0  0.76060768875E+01 -0.90923780598E+01 -0.74680994723E+01  0.14010576519E+02  0.51100000000E-03 0. -1.
        -11    1    3    3    0    0  0.71560091625E+01 -0.12439078298E+02 -0.14193708093E+01  0.14420601575E+02  0.51100000000E-03 0.  1.
        -12    1    3    3    0    0  0.20602847028E+02  0.65963153837E+01 -0.45076363410E+01  0.22097680142E+02  0.00000000000E+00 0.  1.
</event>
<event>
 7    1  0.4520156E-012  0.5052885E+02  0.7816164E-02  0.1300439E+00
        -11   -1    0    0    0    0  0.00000000000E+00  0.00000000000E+00  0.45593999997E+02  0.45594000000E+02  0.51100000000E-03 0.  1.
         11   -1    0    0    0    0 -0.00000000000E+00 -0.00000000000E+00 -0.45593999997E+02  0.45594000000E+02  0.51100000000E-03 0. -1.
    9900012    2    1    2    0    0  0.33044932211E+02 -0.98565210495E+01 -0.21541778505E+02  0.50528846378E+02  0.29999959052E+02 0.  0.
         12    1    1    2    0    0 -0.33044932211E+02  0.98565210495E+01  0.21541778505E+02  0.40659153622E+02  0.00000000000E+00 0. -1.
         11    1    3    3    0    0  0.37092698841E+00 -0.30293219643E+01  0.96611678134E+00  0.32012123158E+01  0.51100000000E-03 0. -1.
        -11    1    3    3    0    0  0.11941016387E+02 -0.15149151748E+02 -0.10164933468E+02  0.21803911202E+02  0.51100000000E-03 0.  1.
        -12    1    3    3    0    0  0.20732988836E+02  0.83219526629E+01 -0.12342961818E+02  0.25523722860E+02  0.00000000000E+00 0.  1.
</event>
<event>
 7    1  0.4520156E-012  0.5052886E+02  0.7816164E-02  0.1300439E+00
        -11   -1    0    0    0    0  0.00000000000E+00  0.00000000000E+00  0.45593999997E+02  0.45594000000E+02  0.51100000000E-03 0. -1.
         11   -1    0    0    0    0 -0.00000000000E+00 -0.00000000000E+00 -0.45593999997E+02  0.45594000000E+02  0.51100000000E-03 0.  1.
    9900012    2    1    2    0    0  0.83921824927E+01  0.32863789119E+02  0.22421157782E+02  0.50528859840E+02  0.29999999969E+02 0.  0.
        -12    1    1    2    0    0 -0.83921824927E+01 -0.32863789119E+02 -0.22421157782E+02  0.40659140160E+02  0.00000000000E+00 0.  1.
         11    1    3    3    0    0  0.11981313410E+01  0.71096931148E+01  0.18861743682E+02  0.20192786580E+02  0.51100000000E-03 0. -1.
        -11    1    3    3    0    0  0.15066179240E+01 -0.14217739576E+01  0.13734976311E+01  0.24855250470E+01  0.51100000000E-03 0.  1.
         12    1    3    3    0    0  0.56874332277E+01  0.27175869962E+02  0.21859164691E+01  0.27850548212E+02  0.00000000000E+00 0. -1.
</event>
<event>
 7    1  0.4520156E-012  0.5052885E+02  0.7816164E-02  0.1300439E+00
        -11   -1    0    0    0    0  0.00000000000E+00  0.00000000000E+00  0.45593999997E+02  0.45594000000E+02  0.51100000000E-03 0. -1.
         11   -1    0    0    0    0 -0.00000000000E+00 -0.00000000000E+00 -0.45593999997E+02  0.45594000000E+02  0.51100000000E-03 0.  1.
    9900012    2    1    2    0    0 -0.24057153007E+02 -0.20488008816E+02  0.25586350889E+02  0.50528850133E+02  0.29999970464E+02 0.  0.
        -12    1    1    2    0    0  0.24057153007E+02  0.20488008816E+02 -0.25586350889E+02  0.40659149867E+02  0.00000000000E+00 0.  1.
         11    1    3    3    0    0 -0.54407272681E+01  0.63961807426E+00  0.74219963093E+01  0.92247847651E+01  0.51100000000E-03 0. -1.
        -11    1    3    3    0    0 -0.17376062643E+02 -0.17369374099E+01  0.10755498250E+02  0.20509150334E+02  0.51100000000E-03 0.  1.
        -12    1    3    3    0    0 -0.12403630958E+01 -0.19390689481E+02  0.74088563295E+01  0.20794915034E+02  0.00000000000E+00 0.  1.
</event>
<event>
 7    1  0.4520156E-012  0.5052884E+02  0.7816164E-02  0.1300439E+00
        -11   -1    0    0    0    0  0.00000000000E+00  0.00000000000E+00  0.45593999997E+02  0.45594000000E+02  0.51100000000E-03 0. -1.
         11   -1    0    0    0    0 -0.00000000000E+00 -0.00000000000E+00 -0.45593999997E+02  0.45594000000E+02  0.51100000000E-03 0.  1.
    9900012    2    1    2    0    0 -0.74998750373E+01  0.95750485489E+01  0.38797389604E+02  0.50528842109E+02  0.29999946076E+02 0.  0.
        -12    1    1    2    0    0  0.74998750373E+01 -0.95750485489E+01 -0.38797389604E+02  0.40659157891E+02  0.00000000000E+00 0.  1.
         11    1    3    3    0    0  0.88134302243E+01 -0.86846494169E+00  0.84417490820E+01  0.12234946322E+02  0.51100000000E-03 0. -1.
        -11    1    3    3    0    0  0.33331296517E+00  0.47244213682E+01  0.25329329659E+01  0.53709407433E+01  0.51100000000E-03 0.  1.
        -12    1    3    3    0    0 -0.16646618227E+02  0.57190921223E+01  0.27822707556E+02  0.32922955044E+02  0.00000000000E+00 0.  1.
</event>
<event>
 7    1  0.4520156E-012  0.5052886E+02  0.7816164E-02  0.1300439E+00
        -11   -1    0    0    0    0  0.00000000000E+00  0.00000000000E+00  0.45593999997E+02  0.45594000000E+02  0.51100000000E-03 0.  1.
         11   -1    0    0    0    0 -0.00000000000E+00 -0.00000000000E+00 -0.45593999997E+02  0.45594000000E+02  0.51100000000E-03 0. -1.
    9900012    2    1    2    0    0 -0.17730195827E+02 -0.33629005032E+02  0.14418586572E+02  0.50528862500E+02  0.30000008055E+02 0.  0.
        -12    1    1    2    0    0  0.17730195827E+02  0.33629005032E+02 -0.14418586572E+02  0.40659137500E+02  0.00000000000E+00 0.  1.
         11    1    3    3    0    0 -0.47030204130E+01 -0.41765514629E+01 -0.15854227049E+01  0.64865667762E+01  0.51100000000E-03 0. -1.
        -11    1    3    3    0    0 -0.41004640174E+01  0.63520712782E+00  0.11638637037E+02  0.12356179247E+02  0.51100000000E-03 0.  1.
         12    1    3    3    0    0 -0.89267113964E+01 -0.30087660697E+02  0.43653722400E+01  0.31686116476E+02  0.00000000000E+00 0. -1.
</event>
<event>
 7    1  0.4520156E-012  0.5052886E+02  0.7816164E-02  0.1300439E+00
        -11   -1    0    0    0    0  0.00000000000E+00  0.00000000000E+00  0.45593999997E+02  0.45594000000E+02  0.51100000000E-03 0. -1.
         11   -1    0    0    0    0 -0.00000000000E+00 -0.00000000000E+00 -0.45593999997E+02  0.45594000000E+02  0.51100000000E-03 0.  1.
    9900012    2    1    2    0    0 -0.20980412806E+02 -0.19715907122E+01  0.34772121910E+02  0.50528863836E+02  0.30000012116E+02 0.  0.
        -12    1    1    2    0    0  0.20980412806E+02  0.19715907122E+01 -0.34772121910E+02  0.40659136164E+02  0.00000000000E+00 0.  1.
         11    1    3    3    0    0 -0.79590341526E+01 -0.77680379221E+01  0.26594618173E+02  0.28826417638E+02  0.51100000000E-03 0.  1.
        -11    1    3    3    0    0 -0.18208097725E+01  0.25986018774E+01  0.94656387075E+01  0.99833058827E+01  0.51100000000E-03 0. -1.
        -12    1    3    3    0    0 -0.11200568881E+02  0.31978453325E+01 -0.12881349706E+01  0.11719140315E+02  0.00000000000E+00 0.  1.
</event>
<event>
 7    1  0.4520156E-012  0.5052886E+02  0.7816164E-02  0.1300439E+00
        -11   -1    0    0    0    0  0.00000000000E+00  0.00000000000E+00  0.45593999997E+02  0.45594000000E+02  0.51100000000E-03 0. -1.
         11   -1    0    0    0    0 -0.00000000000E+00 -0.00000000000E+00 -0.45593999997E+02  0.45594000000E+02  0.51100000000E-03 0.  1.
    9900012    2    1    2    0    0 -0.21312181362E+02 -0.31304247837E+02 -0.14798669034E+02  0.50528860655E+02  0.30000002447E+02 0.  0.
         12    1    1    2    0    0  0.21312181362E+02  0.31304247837E+02  0.14798669034E+02  0.40659139345E+02  0.00000000000E+00 0. -1.
         11    1    3    3    0    0 -0.53751689290E+01 -0.72750156878E+01  0.20847246019E+01  0.92824765661E+01  0.51100000000E-03 0.  1.
        -11    1    3    3    0    0 -0.95699480267E+01 -0.11445566532E+02  0.45426984591E+01  0.15595544493E+02  0.51100000000E-03 0. -1.
        -12    1    3    3    0    0 -0.63670644066E+01 -0.12583665617E+02 -0.21426092095E+02  0.25650839596E+02  0.00000000000E+00 0.  1.
</event>
<event>
 7    1  0.4520156E-012  0.5052886E+02  0.7816164E-02  0.1300439E+00
        -11   -1    0    0    0    0  0.00000000000E+00  0.00000000000E+00  0.45593999997E+02  0.45594000000E+02  0.51100000000E-03 0. -1.
         11   -1    0    0    0    0 -0.00000000000E+00 -0.00000000000E+00 -0.45593999997E+02  0.45594000000E+02  0.51100000000E-03 0.  1.
    9900012    2    1    2    0    0  0.19982982079E+02  0.34295274220E+02 -0.88136422094E+01  0.50528859631E+02  0.29999999334E+02 0.  0.
         12    1    1    2    0    0 -0.19982982079E+02 -0.34295274220E+02  0.88136422094E+01  0.40659140369E+02  0.00000000000E+00 0. -1.
         11    1    3    3    0    0 -0.12784414077E+01  0.78814663106E+00 -0.31415187011E+01  0.34820579483E+01  0.51100000000E-03 0. -1.
        -11    1    3    3    0    0  0.97710064246E+01  0.22813979660E+02 -0.14793300914E+02  0.28892767031E+02  0.51100000000E-03 0.  1.
         12    1    3    3    0    0  0.11490417062E+02  0.10693147929E+02  0.91211774057E+01  0.18154034652E+02  0.00000000000E+00 0. -1.
</event>
<event>
 7    1  0.4520156E-012  0.5052886E+02  0.7816164E-02  0.1300439E+00
        -11   -1    0    0    0    0  0.00000000000E+00  0.00000000000E+00  0.45593999997E+02  0.45594000000E+02  0.51100000000E-03 0. -1.
         11   -1    0    0    0    0 -0.00000000000E+00 -0.00000000000E+00 -0.45593999997E+02  0.45594000000E+02  0.51100000000E-03 0.  1.
    9900012    2    1    2    0    0  0.16427657045E+02 -0.28277557984E+01 -0.37085059681E+02  0.50528858710E+02  0.29999996536E+02 0.  0.
         12    1    1    2    0    0 -0.16427657045E+02  0.28277557984E+01  0.37085059681E+02  0.40659141290E+02  0.00000000000E+00 0. -1.
         11    1    3    3    0    0  0.13036946434E+02 -0.10485737840E+01 -0.12993872193E+02  0.18436436590E+02  0.51100000000E-03 0. -1.
        -11    1    3    3    0    0  0.85212172290E+01 -0.55362699318E+01 -0.23623279815E+02  0.25716157903E+02  0.51100000000E-03 0.  1.
         12    1    3    3    0    0 -0.51305066179E+01  0.37570879174E+01 -0.46790767335E+00  0.63762642171E+01  0.00000000000E+00 0. -1.
</event>
<event>
 7    1  0.4520156E-012  0.5052886E+02  0.7816164E-02  0.1300439E+00
        -11   -1    0    0    0    0  0.00000000000E+00  0.00000000000E+00  0.45593999997E+02  0.45594000000E+02  0.51100000000E-03 0. -1.
         11   -1    0    0    0    0 -0.00000000000E+00 -0.00000000000E+00 -0.45593999997E+02  0.45594000000E+02  0.51100000000E-03 0.  1.
    9900012    2    1    2    0    0  0.81071668226E+01  0.14843289517E+02  0.36974533895E+02  0.50528861368E+02  0.30000004613E+02 0.  0.
        -12    1    1    2    0    0 -0.81071668226E+01 -0.14843289517E+02 -0.36974533895E+02  0.40659138632E+02  0.00000000000E+00 0.  1.
         11    1    3    3    0    0  0.48943479261E+01 -0.33897143524E+01  0.25305730049E+02  0.25996630139E+02  0.51100000000E-03 0. -1.
        -11    1    3    3    0    0  0.15614522351E+01 -0.68330411901E+00  0.34370431575E+01  0.38364441256E+01  0.51100000000E-03 0.  1.
        -12    1    3    3    0    0  0.16513666615E+01  0.18916307989E+02  0.82317606878E+01  0.20695787103E+02  0.00000000000E+00 0.  1.
</event>
<event>
 7    1  0.4520156E-012  0.5052885E+02  0.7816164E-02  0.1300439E+00
        -11   -1    0    0    0    0  0.00000000000E+00  0.00000000000E+00  0.45593999997E+02  0.45594000000E+02  0.51100000000E-03 0. -1.
         11   -1    0    0    0    0 -0.00000000000E+00 -0.00000000000E+00 -0.45593999997E+02  0.45594000000E+02  0.51100000000E-03 0.  1.
    9900012    2    1    2    0    0 -0.78591248650E+01 -0.77383446016E+01 -0.39134625693E+02  0.50528846677E+02  0.29999959960E+02 0.  0.
         12    1    1    2    0    0  0.78591248650E+01  0.77383446016E+01  0.39134625693E+02  0.40659153323E+02  0.00000000000E+00 0. -1.
         11    1    3    3    0    0 -0.53716081561E+01  0.77833383782E+01 -0.21434577316E+01  0.96968521594E+01  0.51100000000E-03 0. -1.
        -11    1    3    3    0    0  0.14218232474E+01 -0.56701682602E+00 -0.61039441235E+01  0.62929503058E+01  0.51100000000E-03 0.  1.
         12    1    3    3    0    0 -0.39093399563E+01 -0.14954666154E+02 -0.30887223838E+02  0.34539044212E+02  0.00000000000E+00 0. -1.
</event>
<event>
 7    1  0.4520156E-012  0.5052885E+02  0.7816164E-02  0.1300439E+00
        -11   -1    0    0    0    0  0.00000000000E+00  0.00000000000E+00  0.45593999997E+02  0.45594000000E+02  0.51100000000E-03 0. -1.
         11   -1    0    0    0    0 -0.00000000000E+00 -0.00000000000E+00 -0.45593999997E+02  0.45594000000E+02  0.51100000000E-03 0.  1.
    9900012    2    1    2    0    0  0.26155223970E+02  0.40771358282E+00 -0.31127236957E+02  0.50528845411E+02  0.29999956111E+02 0.  0.
         12    1    1    2    0    0 -0.26155223970E+02 -0.40771358282E+00  0.31127236957E+02  0.40659154589E+02  0.00000000000E+00 0. -1.
         11    1    3    3    0    0  0.21779972323E+02  0.67479895644E+01 -0.18322126652E+02  0.29250690297E+02  0.51100000000E-03 0.  1.
        -11    1    3    3    0    0  0.68509717634E+01  0.17163543603E+01 -0.15735821291E+01  0.72358722605E+01  0.51100000000E-03 0. -1.
        -12    1    3    3    0    0 -0.24757201160E+01 -0.80566303419E+01 -0.11231528176E+02  0.14042282853E+02  0.00000000000E+00 0.  1.
</event>
<event>
 7    1  0.5081878E-012  0.5052882E+02  0.7816164E-02  0.1300439E+00
        -11   -1    0    0    0    0  0.00000000000E+00  0.00000000000E+00  0.45593999997E+02  0.45594000000E+02  0.51100000000E-03 0. -1.
         11   -1    0    0    0    0 -0.00000000000E+00 -0.00000000000E+00 -0.45593999997E+02  0.45594000000E+02  0.51100000000E-03 0.  1.
    9900012    2    1    2    0    0 -0.24022429095E+02  0.23758539930E+02  0.22619103905E+02  0.50528816773E+02  0.29999869063E+02 0.  0.
        -12    1    1    2    0    0  0.24022429095E+02 -0.23758539930E+02 -0.22619103905E+02  0.40659183227E+02  0.00000000000E+00 0.  1.
         11    1    3    3    0    0 -0.11646729060E+02  0.57794372960E+01 -0.20951214367E+01  0.13169575823E+02  0.51100000000E-03 0. -1.
        -11    1    3    3    0    0 -0.49559444661E+01  0.11401393040E+02  0.20220923244E+01  0.12595316845E+02  0.51100000000E-03 0.  1.
         12    1    3    3    0    0 -0.74197555689E+01  0.65777095945E+01  0.22692133017E+02  0.24763924105E+02  0.00000000000E+00 0. -1.
</event>
<event>
 7    1  0.4520156E-012  0.5052890E+02  0.7816164E-02  0.1300439E+00
        -11   -1    0    0    0    0  0.00000000000E+00  0.00000000000E+00  0.45593999997E+02  0.45594000000E+02  0.51100000000E-03 0.  1.
         11   -1    0    0    0    0 -0.00000000000E+00 -0.00000000000E+00 -0.45593999997E+02  0.45594000000E+02  0.51100000000E-03 0. -1.
    9900012    2    1    2    0    0 -0.15994751031E+02  0.32209750255E+02  0.18970043621E+02  0.50528897366E+02  0.30000114033E+02 0.  0.
        -12    1    1    2    0    0  0.15994751031E+02 -0.32209750255E+02 -0.18970043621E+02  0.40659102634E+02  0.00000000000E+00 0.  1.
         11    1    3    3    0    0 -0.96380643319E+01  0.20143704600E+02  0.15868932537E+02  0.27394965581E+02  0.51100000000E-03 0. -1.
        -11    1    3    3    0    0 -0.36355986129E+01  0.62049107981E+01  0.10867014781E+02  0.13031136013E+02  0.51100000000E-03 0.  1.
        -12    1    3    3    0    0 -0.27210880862E+01  0.58611348569E+01 -0.77659036963E+01  0.10102795772E+02  0.00000000000E+00 0.  1.
</event>
<event>
 7    1  0.4520156E-012  0.5052886E+02  0.7816164E-02  0.1300439E+00
        -11   -1    0    0    0    0  0.00000000000E+00  0.00000000000E+00  0.45593999997E+02  0.45594000000E+02  0.51100000000E-03 0.  1.
         11   -1    0    0    0    0 -0.00000000000E+00 -0.00000000000E+00 -0.45593999997E+02  0.45594000000E+02  0.51100000000E-03 0. -1.
    9900012    2    1    2    0    0  0.26898726936E+02  0.30482400987E+02  0.66881703017E+00  0.50528860844E+02  0.30000003021E+02 0.  0.
         12    1    1    2    0    0 -0.26898726936E+02 -0.30482400987E+02 -0.66881703017E+00  0.40659139156E+02  0.00000000000E+00 0. -1.
         11    1    3    3    0    0  0.25378029893E+01  0.55803372695E+01 -0.82925985584E+01  0.10312506929E+02  0.51100000000E-03 0. -1.
        -11    1    3    3    0    0 -0.11585635031E+01  0.74439394849E+01 -0.12864445002E+01  0.76426071572E+01  0.51100000000E-03 0.  1.
        -12    1    3    3    0    0  0.25519487449E+02  0.17458124233E+02  0.10247860089E+02  0.32573746757E+02  0.00000000000E+00 0.  1.
</event>
<event>
 7    1  0.4520156E-012  0.5052890E+02  0.7816164E-02  0.1300439E+00
        -11   -1    0    0    0    0  0.00000000000E+00  0.00000000000E+00  0.45593999997E+02  0.45594000000E+02  0.51100000000E-03 0. -1.
         11   -1    0    0    0    0 -0.00000000000E+00 -0.00000000000E+00 -0.45593999997E+02  0.45594000000E+02  0.51100000000E-03 0.  1.
    9900012    2    1    2    0    0  0.32702568836E+02 -0.22251249728E+02  0.94120313728E+01  0.50528899450E+02  0.30000120369E+02 0.  0.
        -12    1    1    2    0    0 -0.32702568836E+02  0.22251249728E+02 -0.94120313728E+01  0.40659100550E+02  0.00000000000E+00 0.  1.
         11    1    3    3    0    0  0.44223506981E+01  0.45343730651E+01 -0.89197947002E+00  0.63963546201E+01  0.51100000000E-03 0. -1.
        -11    1    3    3    0    0 -0.11387013901E+01 -0.23691380211E+01 -0.26825334302E+01  0.37557211936E+01  0.51100000000E-03 0.  1.
         12    1    3    3    0    0  0.29418919528E+02 -0.24416484772E+02  0.12986544273E+02  0.40376823637E+02  0.00000000000E+00 0. -1.
</event>
<event>
 7    1  0.4520156E-012  0.5052893E+02  0.7816164E-02  0.1300439E+00
        -11   -1    0    0    0    0  0.00000000000E+00  0.00000000000E+00  0.45593999997E+02  0.45594000000E+02  0.51100000000E-03 0. -1.
         11   -1    0    0    0    0 -0.00000000000E+00 -0.00000000000E+00 -0.45593999997E+02  0.45594000000E+02  0.51100000000E-03 0.  1.
    9900012    2    1    2    0    0 -0.30102731664E+02 -0.82941941075E+01 -0.26042117881E+02  0.50528929508E+02  0.30000211732E+02 0.  0.
         12    1    1    2    0    0  0.30102731664E+02  0.82941941075E+01  0.26042117881E+02  0.40659070492E+02  0.00000000000E+00 0. -1.
         11    1    3    3    0    0 -0.21492839860E+02 -0.13803189101E+02 -0.21040560874E+02  0.33093434345E+02  0.51100000000E-03 0.  1.
        -11    1    3    3    0    0 -0.70382849066E+01 -0.18191697112E+01  0.16049078626E+01  0.74446331255E+01  0.51100000000E-03 0. -1.
        -12    1    3    3    0    0 -0.15716068972E+01  0.73281647046E+01 -0.66064648701E+01  0.99908620377E+01  0.00000000000E+00 0.  1.
</event>
<event>
 7    1  0.4520156E-012  0.5052886E+02  0.7816164E-02  0.1300439E+00
        -11   -1    0    0    0    0  0.00000000000E+00  0.00000000000E+00  0.45593999997E+02  0.45594000000E+02  0.51100000000E-03 0. -1.
         11   -1    0    0    0    0 -0.00000000000E+00 -0.00000000000E+00 -0.45593999997E+02  0.45594000000E+02  0.51100000000E-03 0.  1.
    9900012    2    1    2    0    0 -0.11138201362E+02 -0.14742619799E+02 -0.36218241476E+02  0.50528863466E+02  0.30000010991E+02 0.  0.
         12    1    1    2    0    0  0.11138201362E+02  0.14742619799E+02  0.36218241476E+02  0.40659136534E+02  0.00000000000E+00 0. -1.
         11    1    3    3    0    0 -0.44677632728E+01 -0.12216318293E+01 -0.33834132702E+01  0.57359200314E+01  0.51100000000E-03 0. -1.
        -11    1    3    3    0    0 -0.12895597143E+02 -0.12934291496E+01 -0.26868388517E+02  0.29830851252E+02  0.51100000000E-03 0.  1.
        -12    1    3    3    0    0  0.62251590537E+01 -0.12227558820E+02 -0.59664396885E+01  0.14962092183E+02  0.00000000000E+00 0.  1.
</event>
<event>
 7    1  0.4520156E-012  0.5052885E+02  0.7816164E-02  0.1300439E+00
        -11   -1    0    0    0    0  0.00000000000E+00  0.00000000000E+00  0.45593999997E+02  0.45594000000E+02  0.51100000000E-03 0. -1.
         11   -1    0    0    0    0 -0.00000000000E+00 -0.00000000000E+00 -0.45593999997E+02  0.45594000000E+02  0.51100000000E-03 0.  1.
    9900012    2    1    2    0    0  0.70134437349E+01  0.10897838686E+02 -0.38538490852E+02  0.50528849023E+02  0.29999967089E+02 0.  0.
         12    1    1    2    0    0 -0.70134437349E+01 -0.10897838686E+02  0.38538490852E+02  0.40659150977E+02  0.00000000000E+00 0. -1.
         11    1    3    3    0    0  0.69260737922E+01  0.75471937414E+00 -0.17402341427E+01  0.71811221018E+01  0.51100000000E-03 0. -1.
        -11    1    3    3    0    0  0.47256623863E+01  0.67752994534E+01 -0.25819980811E+01  0.86546682215E+01  0.51100000000E-03 0.  1.
        -12    1    3    3    0    0 -0.46382924436E+01  0.33678198582E+01 -0.34216258628E+02  0.34693058699E+02  0.00000000000E+00 0.  1.
</event>
<event>
 7    1  0.4520156E-012  0.5052886E+02  0.7816164E-02  0.1300439E+00
        -11   -1    0    0    0    0  0.00000000000E+00  0.00000000000E+00  0.45593999997E+02  0.45594000000E+02  0.51100000000E-03 0.  1.
         11   -1    0    0    0    0 -0.00000000000E+00 -0.00000000000E+00 -0.45593999997E+02  0.45594000000E+02  0.51100000000E-03 0. -1.
    9900012    2    1    2    0    0 -0.17235705307E+02 -0.36046231410E+02  0.75342832512E+01  0.50528858834E+02  0.29999996911E+02 0.  0.
        -12    1    1    2    0    0  0.17235705307E+02  0.36046231410E+02 -0.75342832512E+01  0.40659141166E+02  0.00000000000E+00 0.  1.
         11    1    3    3    0    0  0.57693113865E+01 -0.49754065847E+01  0.36580501041E+01  0.84510919639E+01  0.51100000000E-03 0. -1.
        -11    1    3    3    0    0 -0.65069857795E+00 -0.71195318835E+01  0.58762961006E+01  0.92542962457E+01  0.51100000000E-03 0.  1.
         12    1    3    3    0    0 -0.22354318116E+02 -0.23951292942E+02 -0.20000629535E+01  0.32823470624E+02  0.00000000000E+00 0. -1.
</event>
<event>
 7    1  0.4520156E-012  0.5052885E+02  0.7816164E-02  0.1300439E+00
        -11   -1    0    0    0    0  0.00000000000E+00  0.00000000000E+00  0.45593999997E+02  0.45594000000E+02  0.51100000000E-03 0. -1.
         11   -1    0    0    0    0 -0.00000000000E+00 -0.00000000000E+00 -0.45593999997E+02  0.45594000000E+02  0.51100000000E-03 0.  1.
    9900012    2    1    2    0    0 -0.21142950934E+02  0.24321734079E+02  0.24791025840E+02  0.50528854842E+02  0.29999984777E+02 0.  0.
        -12    1    1    2    0    0  0.21142950934E+02 -0.24321734079E+02 -0.24791025840E+02  0.40659145158E+02  0.00000000000E+00 0.  1.
         11    1    3    3    0    0 -0.23270960744E+02  0.23131557067E+02  0.18921394692E+02  0.37876453419E+02  0.51100000000E-03 0. -1.
        -11    1    3    3    0    0 -0.39874140993E+01  0.17258473594E+01  0.28635614762E+00  0.43543105553E+01  0.51100000000E-03 0.  1.
        -12    1    3    3    0    0  0.61154239093E+01 -0.53567034739E+00  0.55832750003E+01  0.82980908672E+01  0.00000000000E+00 0.  1.
</event>
<event>
 7    1  0.4520156E-012  0.5052885E+02  0.7816164E-02  0.1300439E+00
        -11   -1    0    0    0    0  0.00000000000E+00  0.00000000000E+00  0.45593999997E+02  0.45594000000E+02  0.51100000000E-03 0.  1.
         11   -1    0    0    0    0 -0.00000000000E+00 -0.00000000000E+00 -0.45593999997E+02  0.45594000000E+02  0.51100000000E-03 0. -1.
    9900012    2    1    2    0    0 -0.15189134446E+02 -0.25334891973E+02 -0.27939213835E+02  0.50528853105E+02  0.29999979498E+02 0.  0.
         12    1    1    2    0    0  0.15189134446E+02  0.25334891973E+02  0.27939213835E+02  0.40659146895E+02  0.00000000000E+00 0. -1.
         11    1    3    3    0    0  0.21004886532E+01 -0.14950319192E+01  0.23319058157E+01  0.34763426206E+01  0.51100000000E-03 0. -1.
        -11    1    3    3    0    0 -0.20679806771E+02 -0.12464287431E+02 -0.19871565933E+02  0.31271264799E+02  0.51100000000E-03 0.  1.
         12    1    3    3    0    0  0.33901836720E+01 -0.11375572623E+02 -0.10399553717E+02  0.15781245685E+02  0.00000000000E+00 0. -1.
</event>
<event>
 7    1  0.4520156E-012  0.5052887E+02  0.7816164E-02  0.1300439E+00
        -11   -1    0    0    0    0  0.00000000000E+00  0.00000000000E+00  0.45593999997E+02  0.45594000000E+02  0.51100000000E-03 0. -1.
         11   -1    0    0    0    0 -0.00000000000E+00 -0.00000000000E+00 -0.45593999997E+02  0.45594000000E+02  0.51100000000E-03 0.  1.
    9900012    2    1    2    0    0 -0.14359004470E+02  0.36232901497E+02  0.11582780240E+02  0.50528868696E+02  0.30000026888E+02 0.  0.
        -12    1    1    2    0    0  0.14359004470E+02 -0.36232901497E+02 -0.11582780240E+02  0.40659131304E+02  0.00000000000E+00 0.  1.
         11    1    3    3    0    0 -0.56511092133E+01  0.92875921379E+01 -0.16517653729E+01  0.10996487265E+02  0.51100000000E-03 0. -1.
        -11    1    3    3    0    0  0.32713354010E+01  0.74093122488E+01 -0.56186929633E+01  0.98574466361E+01  0.51100000000E-03 0.  1.
        -12    1    3    3    0    0 -0.11979230658E+02  0.19535997111E+02  0.18853238576E+02  0.29674934795E+02  0.00000000000E+00 0.  1.
</event>
<event>
 7    1  0.4520156E-012  0.5052888E+02  0.7816164E-02  0.1300439E+00
        -11   -1    0    0    0    0  0.00000000000E+00  0.00000000000E+00  0.45593999997E+02  0.45594000000E+02  0.51100000000E-03 0. -1.
         11   -1    0    0    0    0 -0.00000000000E+00 -0.00000000000E+00 -0.45593999997E+02  0.45594000000E+02  0.51100000000E-03 0.  1.
    9900012    2    1    2    0    0  0.29774391608E+02  0.13381672905E+02 -0.24240062844E+02  0.50528877874E+02  0.30000054786E+02 0.  0.
         12    1    1    2    0    0 -0.29774391608E+02 -0.13381672905E+02  0.24240062844E+02  0.40659122126E+02  0.00000000000E+00 0. -1.
         11    1    3    3    0    0  0.32407153103E+01  0.94886330817E+01 -0.14112345500E+02  0.17311692270E+02  0.51100000000E-03 0. -1.
        -11    1    3    3    0    0  0.61312512618E+01  0.38292715087E+01 -0.10575171736E+02  0.12809754870E+02  0.51100000000E-03 0.  1.
         12    1    3    3    0    0  0.20402425036E+02  0.63768315054E-01  0.44745439160E+00  0.20407430734E+02  0.00000000000E+00 0. -1.
</event>
<event>
 7    1  0.4520156E-012  0.5052886E+02  0.7816164E-02  0.1300439E+00
        -11   -1    0    0    0    0  0.00000000000E+00  0.00000000000E+00  0.45593999997E+02  0.45594000000E+02  0.51100000000E-03 0. -1.
         11   -1    0    0    0    0 -0.00000000000E+00 -0.00000000000E+00 -0.45593999997E+02  0.45594000000E+02  0.51100000000E-03 0.  1.
    9900012    2    1    2    0    0  0.20373555920E+01 -0.33261522060E+02 -0.23295621732E+02  0.50528860075E+02  0.30000000684E+02 0.  0.
         12    1    1    2    0    0 -0.20373555920E+01  0.33261522060E+02  0.23295621732E+02  0.40659139925E+02  0.00000000000E+00 0. -1.
         11    1    3    3    0    0 -0.15978371830E+01  0.31063206915E+00  0.17440140649E+01  0.23856154899E+01  0.51100000000E-03 0. -1.
        -11    1    3    3    0    0 -0.69970488647E+01 -0.13035799385E+02 -0.19296093152E+02  0.24315220945E+02  0.51100000000E-03 0.  1.
         12    1    3    3    0    0  0.10632241640E+02 -0.20536354745E+02 -0.57435426439E+01  0.23828023640E+02  0.00000000000E+00 0. -1.
</event>
<event>
 7    1  0.4520156E-012  0.5052885E+02  0.7816164E-02  0.1300439E+00
        -11   -1    0    0    0    0  0.00000000000E+00  0.00000000000E+00  0.45593999997E+02  0.45594000000E+02  0.51100000000E-03 0. -1.
         11   -1    0    0    0    0 -0.00000000000E+00 -0.00000000000E+00 -0.45593999997E+02  0.45594000000E+02  0.51100000000E-03 0.  1.
    9900012    2    1    2    0    0  0.46179590806E+01 -0.74151148088E+01  0.39709655876E+02  0.50528852893E+02  0.29999978852E+02 0.  0.
        -12    1    1    2    0    0 -0.46179590806E+01  0.74151148088E+01 -0.39709655876E+02  0.40659147107E+02  0.00000000000E+00 0.  1.
         11    1    3    3    0    0 -0.46136445578E+00 -0.78207545864E+01 -0.30058889568E+00  0.78401156501E+01  0.51100000000E-03 0. -1.
        -11    1    3    3    0    0 -0.31430859660E+01  0.40390438285E+01  0.21639865482E+02  0.22236830772E+02  0.51100000000E-03 0.  1.
        -12    1    3    3    0    0  0.82224095024E+01 -0.36334040508E+01  0.18370379290E+02  0.20451906471E+02  0.00000000000E+00 0.  1.
</event>
<event>
 7    1  0.4520156E-012  0.5052881E+02  0.7816164E-02  0.1300439E+00
        -11   -1    0    0    0    0  0.00000000000E+00  0.00000000000E+00  0.45593999997E+02  0.45594000000E+02  0.51100000000E-03 0. -1.
         11   -1    0    0    0    0 -0.00000000000E+00 -0.00000000000E+00 -0.45593999997E+02  0.45594000000E+02  0.51100000000E-03 0.  1.
    9900012    2    1    2    0    0 -0.13932461843E+02 -0.29709268416E+02  0.24008660487E+02  0.50528807913E+02  0.29999842131E+02 0.  0.
        -12    1    1    2    0    0  0.13932461843E+02  0.29709268416E+02 -0.24008660487E+02  0.40659192087E+02  0.00000000000E+00 0.  1.
         11    1    3    3    0    0  0.33817140200E+01 -0.94649149093E+01  0.93050215000E+01  0.13696862025E+02  0.51100000000E-03 0. -1.
        -11    1    3    3    0    0  0.41633165360E+01 -0.23504964352E+01 -0.82802389984E+00  0.48521811498E+01  0.51100000000E-03 0.  1.
         12    1    3    3    0    0 -0.21477492399E+02 -0.17893857072E+02  0.15531662887E+02  0.31979764738E+02  0.00000000000E+00 0. -1.
</event>
<event>
 7    1  0.4520156E-012  0.5052887E+02  0.7816164E-02  0.1300439E+00
        -11   -1    0    0    0    0  0.00000000000E+00  0.00000000000E+00  0.45593999997E+02  0.45594000000E+02  0.51100000000E-03 0. -1.
         11   -1    0    0    0    0 -0.00000000000E+00 -0.00000000000E+00 -0.45593999997E+02  0.45594000000E+02  0.51100000000E-03 0.  1.
    9900012    2    1    2    0    0 -0.25219051390E+02 -0.94562739808E+01 -0.30458878765E+02  0.50528868600E+02  0.30000026596E+02 0.  0.
         12    1    1    2    0    0  0.25219051390E+02  0.94562739808E+01  0.30458878765E+02  0.40659131400E+02  0.00000000000E+00 0. -1.
         11    1    3    3    0    0 -0.50531038997E+01 -0.71027081261E+01 -0.10496498277E+01  0.87797543683E+01  0.51100000000E-03 0. -1.
        -11    1    3    3    0    0 -0.29767424529E+01  0.25779480446E+01  0.28526588115E+01  0.48625584118E+01  0.51100000000E-03 0.  1.
        -12    1    3    3    0    0 -0.17189205038E+02 -0.49315138993E+01 -0.32261887748E+02  0.36886555820E+02  0.00000000000E+00 0.  1.
</event>
<event>
 7    1  0.4520156E-012  0.5052886E+02  0.7816164E-02  0.1300439E+00
        -11   -1    0    0    0    0  0.00000000000E+00  0.00000000000E+00  0.45593999997E+02  0.45594000000E+02  0.51100000000E-03 0. -1.
         11   -1    0    0    0    0 -0.00000000000E+00 -0.00000000000E+00 -0.45593999997E+02  0.45594000000E+02  0.51100000000E-03 0.  1.
    9900012    2    1    2    0    0 -0.18144384985E+02  0.18487459287E+02  0.31339446839E+02  0.50528858524E+02  0.29999995970E+02 0.  0.
        -12    1    1    2    0    0  0.18144384985E+02 -0.18487459287E+02 -0.31339446839E+02  0.40659141476E+02  0.00000000000E+00 0.  1.
         11    1    3    3    0    0 -0.24803966279E+01  0.69946313508E+01  0.65429176264E+01  0.98937862567E+01  0.51100000000E-03 0. -1.
        -11    1    3    3    0    0 -0.63024046751E+01  0.11295276778E+02 -0.12130344653E+01  0.12991344620E+02  0.51100000000E-03 0.  1.
        -12    1    3    3    0    0 -0.93615836821E+01  0.19755115858E+00  0.26009563678E+02  0.27643727647E+02  0.00000000000E+00 0.  1.
</event>
<event>
 7    1  0.4520156E-012  0.5052886E+02  0.7816164E-02  0.1300439E+00
        -11   -1    0    0    0    0  0.00000000000E+00  0.00000000000E+00  0.45593999997E+02  0.45594000000E+02  0.51100000000E-03 0. -1.
         11   -1    0    0    0    0 -0.00000000000E+00 -0.00000000000E+00 -0.45593999997E+02  0.45594000000E+02  0.51100000000E-03 0.  1.
    9900012    2    1    2    0    0  0.24101296389E+02  0.29582765526E+02 -0.14041115755E+02  0.50528862830E+02  0.30000009058E+02 0.  0.
         12    1    1    2    0    0 -0.24101296389E+02 -0.29582765526E+02  0.14041115755E+02  0.40659137170E+02  0.00000000000E+00 0. -1.
         11    1    3    3    0    0  0.16578706932E+02  0.16955605424E+02 -0.11259216114E+01  0.23740551354E+02  0.51100000000E-03 0. -1.
        -11    1    3    3    0    0  0.39563689054E+01 -0.43330035893E+01 -0.51101852474E+01  0.77808591135E+01  0.51100000000E-03 0.  1.
        -12    1    3    3    0    0  0.35662205509E+01  0.16960163691E+02 -0.78050088963E+01  0.19007452363E+02  0.00000000000E+00 0.  1.
</event>
<event>
 7    1  0.4520156E-012  0.5052886E+02  0.7816164E-02  0.1300439E+00
        -11   -1    0    0    0    0  0.00000000000E+00  0.00000000000E+00  0.45593999997E+02  0.45594000000E+02  0.51100000000E-03 0.  1.
         11   -1    0    0    0    0 -0.00000000000E+00 -0.00000000000E+00 -0.45593999997E+02  0.45594000000E+02  0.51100000000E-03 0. -1.
    9900012    2    1    2    0    0  0.10374942574E+02  0.30268700983E+02  0.25086494845E+02  0.50528856917E+02  0.29999991084E+02 0.  0.
        -12    1    1    2    0    0 -0.10374942574E+02 -0.30268700983E+02 -0.25086494845E+02  0.40659143083E+02  0.00000000000E+00 0.  1.
         11    1    3    3    0    0  0.45961114086E+01  0.53852654776E+01  0.31378599028E+01  0.77441261208E+01  0.51100000000E-03 0. -1.
        -11    1    3    3    0    0  0.82312049699E+01  0.75003157640E+01  0.22624391786E+02  0.25216474293E+02  0.51100000000E-03 0.  1.
         12    1    3    3    0    0 -0.24523738041E+01  0.17383119742E+02 -0.67575684384E+00  0.17568256503E+02  0.00000000000E+00 0. -1.
</event>
<event>
 7    1  0.4520156E-012  0.5052886E+02  0.7816164E-02  0.1300439E+00
        -11   -1    0    0    0    0  0.00000000000E+00  0.00000000000E+00  0.45593999997E+02  0.45594000000E+02  0.51100000000E-03 0. -1.
         11   -1    0    0    0    0 -0.00000000000E+00 -0.00000000000E+00 -0.45593999997E+02  0.45594000000E+02  0.51100000000E-03 0.  1.
    9900012    2    1    2    0    0  0.14860549963E+02  0.11782023287E+02 -0.35965452199E+02  0.50528858718E+02  0.29999996558E+02 0.  0.
         12    1    1    2    0    0 -0.14860549963E+02 -0.11782023287E+02  0.35965452199E+02  0.40659141282E+02  0.00000000000E+00 0. -1.
         11    1    3    3    0    0  0.85946560524E+01  0.15044616398E+02 -0.33898788855E+02  0.38070152105E+02  0.51100000000E-03 0. -1.
        -11    1    3    3    0    0  0.44842626361E+01  0.24122065670E+00 -0.55966139464E+01  0.71755757066E+01  0.51100000000E-03 0.  1.
         12    1    3    3    0    0  0.17816312741E+01 -0.35038137682E+01  0.35299506016E+01  0.52831309059E+01  0.00000000000E+00 0. -1.
</event>
<event>
 7    1  0.4520156E-012  0.5052886E+02  0.7816164E-02  0.1300439E+00
        -11   -1    0    0    0    0  0.00000000000E+00  0.00000000000E+00  0.45593999997E+02  0.45594000000E+02  0.51100000000E-03 0. -1.
         11   -1    0    0    0    0 -0.00000000000E+00 -0.00000000000E+00 -0.45593999997E+02  0.45594000000E+02  0.51100000000E-03 0.  1.
    9900012    2    1    2    0    0  0.21367083453E+02  0.23235436629E+02 -0.25626707092E+02  0.50528857277E+02  0.29999992179E+02 0.  0.
         12    1    1    2    0    0 -0.21367083453E+02 -0.23235436629E+02  0.25626707092E+02  0.40659142723E+02  0.00000000000E+00 0. -1.
         11    1    3    3    0    0  0.13297981291E+02  0.10768611791E+02 -0.36985158524E+01  0.17506522387E+02  0.51100000000E-03 0. -1.
        -11    1    3    3    0    0  0.10640637685E+02  0.10815860026E+02 -0.52327681423E+01  0.16049543954E+02  0.51100000000E-03 0.  1.
         12    1    3    3    0    0 -0.25715355232E+01  0.16509648118E+01 -0.16695423097E+02  0.16972790936E+02  0.00000000000E+00 0. -1.
</event>
<event>
 7    1  0.4520156E-012  0.5052885E+02  0.7816164E-02  0.1300439E+00
        -11   -1    0    0    0    0  0.00000000000E+00  0.00000000000E+00  0.45593999997E+02  0.45594000000E+02  0.51100000000E-03 0.  1.
         11   -1    0    0    0    0 -0.00000000000E+00 -0.00000000000E+00 -0.45593999997E+02  0.45594000000E+02  0.51100000000E-03 0. -1.
    9900012    2    1    2    0    0 -0.53682138711E+01  0.37982857670E+02 -0.13477793410E+02  0.50528854508E+02  0.29999983761E+02 0.  0.
        -12    1    1    2    0    0  0.53682138711E+01 -0.37982857670E+02  0.13477793410E+02  0.40659145492E+02  0.00000000000E+00 0.  1.
         11    1    3    3    0    0 -0.26739833039E+01  0.63607586724E+01  0.30619435112E+01  0.75488367266E+01  0.51100000000E-03 0. -1.
        -11    1    3    3    0    0 -0.75009219358E+01  0.20373447183E+02 -0.20761240756E+02  0.30039478990E+02  0.51100000000E-03 0.  1.
         12    1    3    3    0    0  0.48066913686E+01  0.11248651815E+02  0.42215038352E+01  0.12940538791E+02  0.00000000000E+00 0. -1.
</event>
<event>
 7    1  0.4520156E-012  0.5052885E+02  0.7816164E-02  0.1300439E+00
        -11   -1    0    0    0    0  0.00000000000E+00  0.00000000000E+00  0.45593999997E+02  0.45594000000E+02  0.51100000000E-03 0. -1.
         11   -1    0    0    0    0 -0.00000000000E+00 -0.00000000000E+00 -0.45593999997E+02  0.45594000000E+02  0.51100000000E-03 0.  1.
    9900012    2    1    2    0    0 -0.24054445807E+02  0.32697456913E+02 -0.23295123128E+01  0.50528847534E+02  0.29999962564E+02 0.  0.
        -12    1    1    2    0    0  0.24054445807E+02 -0.32697456913E+02  0.23295123128E+01  0.40659152466E+02  0.00000000000E+00 0.  1.
         11    1    3    3    0    0 -0.12361099032E+02  0.87958484365E+01 -0.16618297231E+01  0.15261893634E+02  0.51100000000E-03 0. -1.
        -11    1    3    3    0    0 -0.13514022480E+02  0.20715347748E+02 -0.88740500064E+01  0.26277427570E+02  0.51100000000E-03 0.  1.
        -12    1    3    3    0    0  0.18206757056E+01  0.31862607281E+01  0.82063674167E+01  0.89895263296E+01  0.00000000000E+00 0.  1.
</event>
<event>
 7    1  0.4520156E-012  0.5052886E+02  0.7816164E-02  0.1300439E+00
        -11   -1    0    0    0    0  0.00000000000E+00  0.00000000000E+00  0.45593999997E+02  0.45594000000E+02  0.51100000000E-03 0.  1.
         11   -1    0    0    0    0 -0.00000000000E+00 -0.00000000000E+00 -0.45593999997E+02  0.45594000000E+02  0.51100000000E-03 0. -1.
    9900012    2    1    2    0    0 -0.12181028437E+02 -0.31967878729E+02 -0.21973688687E+02  0.50528859346E+02  0.29999998468E+02 0.  0.
         12    1    1    2    0    0  0.12181028437E+02  0.31967878729E+02  0.21973688687E+02  0.40659140654E+02  0.00000000000E+00 0. -1.
         11    1    3    3    0    0  0.41787985792E+01 -0.62864983056E+01 -0.23742486888E+01  0.79132468438E+01  0.51100000000E-03 0. -1.
        -11    1    3    3    0    0 -0.58459721398E+00 -0.88437347785E+01  0.38994451224E+01  0.96829267920E+01  0.51100000000E-03 0.  1.
        -12    1    3    3    0    0 -0.15775229802E+02 -0.16837645644E+02 -0.23498885121E+02  0.32932685710E+02  0.00000000000E+00 0.  1.
</event>
<event>
 7    1  0.4520156E-012  0.5052886E+02  0.7816164E-02  0.1300439E+00
        -11   -1    0    0    0    0  0.00000000000E+00  0.00000000000E+00  0.45593999997E+02  0.45594000000E+02  0.51100000000E-03 0. -1.
         11   -1    0    0    0    0 -0.00000000000E+00 -0.00000000000E+00 -0.45593999997E+02  0.45594000000E+02  0.51100000000E-03 0.  1.
    9900012    2    1    2    0    0  0.17129157058E+02 -0.54522350286E+01 -0.36469585238E+02  0.50528861596E+02  0.30000005308E+02 0.  0.
         12    1    1    2    0    0 -0.17129157058E+02  0.54522350286E+01  0.36469585238E+02  0.40659138404E+02  0.00000000000E+00 0. -1.
         11    1    3    3    0    0 -0.32525270358E+01  0.35811609466E+01 -0.86160137847E+00  0.49138582642E+01  0.51100000000E-03 0. -1.
        -11    1    3    3    0    0  0.47606146738E+01  0.37711866113E+01 -0.17369650452E+02  0.18400816765E+02  0.51100000000E-03 0.  1.
        -12    1    3    3    0    0  0.15621069420E+02 -0.12804582586E+02 -0.18238333407E+02  0.27214186567E+02  0.00000000000E+00 0.  1.
</event>
<event>
 7    1  0.4520156E-012  0.5052884E+02  0.7816164E-02  0.1300439E+00
        -11   -1    0    0    0    0  0.00000000000E+00  0.00000000000E+00  0.45593999997E+02  0.45594000000E+02  0.51100000000E-03 0. -1.
         11   -1    0    0    0    0 -0.00000000000E+00 -0.00000000000E+00 -0.45593999997E+02  0.45594000000E+02  0.51100000000E-03 0.  1.
    9900012    2    1    2    0    0 -0.39276694664E+01 -0.31763101282E+02 -0.25076799409E+02  0.50528842864E+02  0.29999948368E+02 0.  0.
         12    1    1    2    0    0  0.39276694664E+01  0.31763101282E+02  0.25076799409E+02  0.40659157136E+02  0.00000000000E+00 0. -1.
         11    1    3    3    0    0  0.29008370094E+01 -0.30906002453E+01 -0.33035205404E+01  0.53740034847E+01  0.51100000000E-03 0. -1.
        -11    1    3    3    0    0 -0.44018488849E+01 -0.24082867362E+02 -0.27903915494E+02  0.37121277916E+02  0.51100000000E-03 0.  1.
        -12    1    3    3    0    0 -0.24266575909E+01 -0.45896336744E+01  0.61306366262E+01  0.80335614625E+01  0.00000000000E+00 0.  1.
</event>
<event>
 7    1  0.4520156E-012  0.5052879E+02  0.7816164E-02  0.1300439E+00
        -11   -1    0    0    0    0  0.00000000000E+00  0.00000000000E+00  0.45593999997E+02  0.45594000000E+02  0.51100000000E-03 0.  1.
         11   -1    0    0    0    0 -0.00000000000E+00 -0.00000000000E+00 -0.45593999997E+02  0.45594000000E+02  0.51100000000E-03 0. -1.
    9900012    2    1    2    0    0  0.32192623056E+02 -0.22289292784E+02 -0.10954172213E+02  0.50528788978E+02  0.29999784576E+02 0.  0.
         12    1    1    2    0    0 -0.32192623056E+02  0.22289292784E+02  0.10954172213E+02  0.40659211022E+02  0.00000000000E+00 0. -1.
         11    1    3    3    0    0  0.21114089552E+02 -0.11151976262E+02 -0.43306563701E+00  0.23882187886E+02  0.51100000000E-03 0.  1.
        -11    1    3    3    0    0  0.24307893986E+01 -0.10163329651E+02  0.27233020869E+01  0.10798999084E+02  0.51100000000E-03 0. -1.
        -12    1    3    3    0    0  0.86477441062E+01 -0.97398687171E+00 -0.13244408663E+02  0.15847602008E+02  0.00000000000E+00 0.  1.
</event>
<event>
 7    1  0.6521191E-012  0.5052885E+02  0.7816164E-02  0.1300439E+00
        -11   -1    0    0    0    0  0.00000000000E+00  0.00000000000E+00  0.45593999997E+02  0.45594000000E+02  0.51100000000E-03 0. -1.
         11   -1    0    0    0    0 -0.00000000000E+00 -0.00000000000E+00 -0.45593999997E+02  0.45594000000E+02  0.51100000000E-03 0.  1.
    9900012    2    1    2    0    0 -0.42768085644E+01  0.36298887342E+02  0.17811964779E+02  0.50528850931E+02  0.29999972890E+02 0.  0.
        -12    1    1    2    0    0  0.42768085644E+01 -0.36298887342E+02 -0.17811964779E+02  0.40659149069E+02  0.00000000000E+00 0.  1.
         11    1    3    3    0    0 -0.16274981155E+01  0.71713143915E+01  0.11736927686E+02  0.13850341944E+02  0.51100000000E-03 0. -1.
        -11    1    3    3    0    0  0.48883687402E+01  0.91088074293E+00  0.55718729251E+01  0.74680399586E+01  0.51100000000E-03 0.  1.
         12    1    3    3    0    0 -0.75376791891E+01  0.28216692207E+02  0.50316416782E+00  0.29210469028E+02  0.00000000000E+00 0. -1.
</event>
<event>
 7    1  0.4520156E-012  0.5052886E+02  0.7816164E-02  0.1300439E+00
        -11   -1    0    0    0    0  0.00000000000E+00  0.00000000000E+00  0.45593999997E+02  0.45594000000E+02  0.51100000000E-03 0. -1.
         11   -1    0    0    0    0 -0.00000000000E+00 -0.00000000000E+00 -0.45593999997E+02  0.45594000000E+02  0.51100000000E-03 0.  1.
    9900012    2    1    2    0    0 -0.15571378674E+02 -0.27749313744E+02 -0.25311522107E+02  0.50528863284E+02  0.30000010439E+02 0.  0.
         12    1    1    2    0    0  0.15571378674E+02  0.27749313744E+02  0.25311522107E+02  0.40659136716E+02  0.00000000000E+00 0. -1.
         11    1    3    3    0    0 -0.12189641583E+02 -0.92899238705E+01 -0.72555528815E+01  0.16956800857E+02  0.51100000000E-03 0. -1.
        -11    1    3    3    0    0 -0.98531506585E+01 -0.17649849558E+02 -0.83325488358E+01  0.21863968937E+02  0.51100000000E-03 0.  1.
         12    1    3    3    0    0  0.64714135676E+01 -0.80954031540E+00 -0.97234203898E+01  0.11708093490E+02  0.00000000000E+00 0. -1.
</event>
<event>
 7    1  0.4520156E-012  0.5052886E+02  0.7816164E-02  0.1300439E+00
        -11   -1    0    0    0    0  0.00000000000E+00  0.00000000000E+00  0.45593999997E+02  0.45594000000E+02  0.51100000000E-03 0. -1.
         11   -1    0    0    0    0 -0.00000000000E+00 -0.00000000000E+00 -0.45593999997E+02  0.45594000000E+02  0.51100000000E-03 0.  1.
    9900012    2    1    2    0    0  0.37369470551E+02  0.33111899337E+01 -0.15675594811E+02  0.50528861043E+02  0.30000003627E+02 0.  0.
         12    1    1    2    0    0 -0.37369470551E+02 -0.33111899337E+01  0.15675594811E+02  0.40659138957E+02  0.00000000000E+00 0. -1.
         11    1    3    3    0    0  0.63632798186E+01  0.61398758621E+01 -0.11720867350E+02  0.14682238840E+02  0.51100000000E-03 0. -1.
        -11    1    3    3    0    0  0.12762838280E+02  0.42368100022E+01 -0.83043557457E+01  0.15805155000E+02  0.51100000000E-03 0.  1.
        -12    1    3    3    0    0  0.18243352453E+02 -0.70654959306E+01  0.43496282850E+01  0.20041467204E+02  0.00000000000E+00 0.  1.
</event>
<event>
 7    1  0.4520156E-012  0.5052885E+02  0.7816164E-02  0.1300439E+00
        -11   -1    0    0    0    0  0.00000000000E+00  0.00000000000E+00  0.45593999997E+02  0.45594000000E+02  0.51100000000E-03 0.  1.
         11   -1    0    0    0    0 -0.00000000000E+00 -0.00000000000E+00 -0.45593999997E+02  0.45594000000E+02  0.51100000000E-03 0. -1.
    9900012    2    1    2    0    0 -0.23525015769E+02  0.31870844921E+02 -0.91645557423E+01  0.50528853368E+02  0.29999980297E+02 0.  0.
         12    1    1    2    0    0  0.23525015769E+02 -0.31870844921E+02  0.91645557423E+01  0.40659146632E+02  0.00000000000E+00 0. -1.
         11    1    3    3    0    0 -0.74758203318E+01  0.13537436172E+02  0.80765906126E+01  0.17446529280E+02  0.51100000000E-03 0. -1.
        -11    1    3    3    0    0 -0.20665475125E+01  0.97225157612E+01 -0.10063334095E+01  0.99905274406E+01  0.51100000000E-03 0.  1.
        -12    1    3    3    0    0 -0.13982647924E+02  0.86108929878E+01 -0.16234812945E+02  0.23091796647E+02  0.00000000000E+00 0.  1.
</event>
<event>
 7    1  0.4520156E-012  0.5052884E+02  0.7816164E-02  0.1300439E+00
        -11   -1    0    0    0    0  0.00000000000E+00  0.00000000000E+00  0.45593999997E+02  0.45594000000E+02  0.51100000000E-03 0. -1.
         11   -1    0    0    0    0 -0.00000000000E+00 -0.00000000000E+00 -0.45593999997E+02  0.45594000000E+02  0.51100000000E-03 0.  1.
    9900012    2    1    2    0    0  0.77855950097E+01  0.32976052278E+02 -0.22475131885E+02  0.50528842769E+02  0.29999948081E+02 0.  0.
         12    1    1    2    0    0 -0.77855950097E+01 -0.32976052278E+02  0.22475131885E+02  0.40659157231E+02  0.00000000000E+00 0. -1.
         11    1    3    3    0    0  0.47904676267E+01  0.30482810357E+02 -0.21566854696E+02  0.37646773156E+02  0.51100000000E-03 0. -1.
        -11    1    3    3    0    0  0.38615867399E+01  0.69354300491E+01 -0.20818872958E+01  0.82064789702E+01  0.51100000000E-03 0.  1.
         12    1    3    3    0    0 -0.86645935691E+00 -0.44421881278E+01  0.11736101066E+01  0.46755906432E+01  0.00000000000E+00 0. -1.
</event>
<event>
 7    1  0.4520156E-012  0.5052891E+02  0.7816164E-02  0.1300439E+00
        -11   -1    0    0    0    0  0.00000000000E+00  0.00000000000E+00  0.45593999997E+02  0.45594000000E+02  0.51100000000E-03 0.  1.
         11   -1    0    0    0    0 -0.00000000000E+00 -0.00000000000E+00 -0.45593999997E+02  0.45594000000E+02  0.51100000000E-03 0. -1.
    9900012    2    1    2    0    0  0.29729561172E+02 -0.24543886253E+02 -0.12919461461E+02  0.50528909450E+02  0.30000150764E+02 0.  0.
         12    1    1    2    0    0 -0.29729561172E+02  0.24543886253E+02  0.12919461461E+02  0.40659090550E+02  0.00000000000E+00 0. -1.
         11    1    3    3    0    0 -0.66037183975E+00 -0.36386387585E+01  0.33842243734E+01  0.50128592492E+01  0.51100000000E-03 0. -1.
        -11    1    3    3    0    0  0.11737388632E+02 -0.16020785969E+02  0.60684779836E+00  0.19869578241E+02  0.51100000000E-03 0.  1.
        -12    1    3    3    0    0  0.18652544380E+02 -0.48844615260E+01 -0.16910533633E+02  0.25646471960E+02  0.00000000000E+00 0.  1.
</event>
<event>
 7    1  0.4520156E-012  0.5052886E+02  0.7816164E-02  0.1300439E+00
        -11   -1    0    0    0    0  0.00000000000E+00  0.00000000000E+00  0.45593999997E+02  0.45594000000E+02  0.51100000000E-03 0. -1.
         11   -1    0    0    0    0 -0.00000000000E+00 -0.00000000000E+00 -0.45593999997E+02  0.45594000000E+02  0.51100000000E-03 0.  1.
    9900012    2    1    2    0    0 -0.12152384907E+02  0.38122880370E+02 -0.72201758696E+01  0.50528863189E+02  0.30000010150E+02 0.  0.
         12    1    1    2    0    0  0.12152384907E+02 -0.38122880370E+02  0.72201758696E+01  0.40659136811E+02  0.00000000000E+00 0. -1.
         11    1    3    3    0    0 -0.21969728791E+01  0.18377387232E+02  0.34716223444E+01  0.18831017319E+02  0.51100000000E-03 0. -1.
        -11    1    3    3    0    0 -0.25847536272E+01  0.59880785902E+01  0.59884720613E+01  0.88543680974E+01  0.51100000000E-03 0.  1.
        -12    1    3    3    0    0 -0.73706584009E+01  0.13757414547E+02 -0.16680270275E+02  0.22843477773E+02  0.00000000000E+00 0.  1.
</event>
<event>
 7    1  0.4520156E-012  0.5052885E+02  0.7816164E-02  0.1300439E+00
        -11   -1    0    0    0    0  0.00000000000E+00  0.00000000000E+00  0.45593999997E+02  0.45594000000E+02  0.51100000000E-03 0.  1.
         11   -1    0    0    0    0 -0.00000000000E+00 -0.00000000000E+00 -0.45593999997E+02  0.45594000000E+02  0.51100000000E-03 0. -1.
    9900012    2    1    2    0    0  0.23993749293E+02 -0.30895694760E+02  0.11087029102E+02  0.50528853746E+02  0.29999981445E+02 0.  0.
        -12    1    1    2    0    0 -0.23993749293E+02  0.30895694760E+02 -0.11087029102E+02  0.40659146254E+02  0.00000000000E+00 0.  1.
         11    1    3    3    0    0  0.13461372632E+02 -0.51443642919E+01  0.46805956582E+01  0.15151931001E+02  0.51100000000E-03 0. -1.
        -11    1    3    3    0    0 -0.63090854397E+01 -0.52701852264E+01  0.67517565790E+00  0.82483497644E+01  0.51100000000E-03 0.  1.
         12    1    3    3    0    0  0.16841462101E+02 -0.20481145242E+02  0.57312577855E+01  0.27128572980E+02  0.00000000000E+00 0. -1.
</event>
<event>
 7    1  0.4520156E-012  0.5052886E+02  0.7816164E-02  0.1300439E+00
        -11   -1    0    0    0    0  0.00000000000E+00  0.00000000000E+00  0.45593999997E+02  0.45594000000E+02  0.51100000000E-03 0. -1.
         11   -1    0    0    0    0 -0.00000000000E+00 -0.00000000000E+00 -0.45593999997E+02  0.45594000000E+02  0.51100000000E-03 0.  1.
    9900012    2    1    2    0    0  0.27486074999E+02  0.10613056874E+02  0.28018637045E+02  0.50528864287E+02  0.30000013488E+02 0.  0.
        -12    1    1    2    0    0 -0.27486074999E+02 -0.10613056874E+02 -0.28018637045E+02  0.40659135713E+02  0.00000000000E+00 0.  1.
         11    1    3    3    0    0  0.97509695986E+01 -0.22339113171E+01  0.22133532971E+01  0.10245521020E+02  0.51100000000E-03 0. -1.
        -11    1    3    3    0    0  0.14342351984E+02  0.54192817409E+01  0.24308052614E+01  0.15523546293E+02  0.51100000000E-03 0.  1.
         12    1    3    3    0    0  0.33927534166E+01  0.74276864502E+01  0.23374478486E+02  0.24759796975E+02  0.00000000000E+00 0. -1.
</event>
<event>
 7    1  0.4520156E-012  0.5052886E+02  0.7816164E-02  0.1300439E+00
        -11   -1    0    0    0    0  0.00000000000E+00  0.00000000000E+00  0.45593999997E+02  0.45594000000E+02  0.51100000000E-03 0. -1.
         11   -1    0    0    0    0 -0.00000000000E+00 -0.00000000000E+00 -0.45593999997E+02  0.45594000000E+02  0.51100000000E-03 0.  1.
    9900012    2    1    2    0    0  0.28312960518E+02 -0.12776044306E+02 -0.26235752402E+02  0.50528859017E+02  0.29999997467E+02 0.  0.
         12    1    1    2    0    0 -0.28312960518E+02  0.12776044306E+02  0.26235752402E+02  0.40659140983E+02  0.00000000000E+00 0. -1.
         11    1    3    3    0    0  0.67033557428E+01 -0.69436293183E+01 -0.68078729160E+01  0.11810846719E+02  0.51100000000E-03 0. -1.
        -11    1    3    3    0    0  0.20377170748E+02 -0.13683334090E+02 -0.10308954723E+02  0.26622119887E+02  0.51100000000E-03 0.  1.
         12    1    3    3    0    0  0.12324340267E+01  0.78509191018E+01 -0.91189247634E+01  0.12095892411E+02  0.00000000000E+00 0. -1.
</event>
<event>
 7    1  0.4520156E-012  0.5052886E+02  0.7816164E-02  0.1300439E+00
        -11   -1    0    0    0    0  0.00000000000E+00  0.00000000000E+00  0.45593999997E+02  0.45594000000E+02  0.51100000000E-03 0. -1.
         11   -1    0    0    0    0 -0.00000000000E+00 -0.00000000000E+00 -0.45593999997E+02  0.45594000000E+02  0.51100000000E-03 0.  1.
    9900012    2    1    2    0    0 -0.35451017886E+02 -0.12945969362E+01 -0.19867435393E+02  0.50528860321E+02  0.30000001431E+02 0.  0.
         12    1    1    2    0    0  0.35451017886E+02  0.12945969362E+01  0.19867435393E+02  0.40659139679E+02  0.00000000000E+00 0. -1.
         11    1    3    3    0    0 -0.27018865320E+02 -0.91152899972E+01 -0.32953482398E+01  0.28704823901E+02  0.51100000000E-03 0.  1.
        -11    1    3    3    0    0  0.14474914831E+01  0.27044325601E+01 -0.38737892635E+01  0.49411972825E+01  0.51100000000E-03 0. -1.
        -12    1    3    3    0    0 -0.98796440486E+01  0.51162605009E+01 -0.12698297889E+02  0.16882839137E+02  0.00000000000E+00 0.  1.
</event>
<event>
 7    1  0.4520156E-012  0.5052886E+02  0.7816164E-02  0.1300439E+00
        -11   -1    0    0    0    0  0.00000000000E+00  0.00000000000E+00  0.45593999997E+02  0.45594000000E+02  0.51100000000E-03 0. -1.
         11   -1    0    0    0    0 -0.00000000000E+00 -0.00000000000E+00 -0.45593999997E+02  0.45594000000E+02  0.51100000000E-03 0.  1.
    9900012    2    1    2    0    0  0.15297553613E+02  0.20502667037E+02 -0.31603658132E+02  0.50528859459E+02  0.29999998812E+02 0.  0.
         12    1    1    2    0    0 -0.15297553613E+02 -0.20502667037E+02  0.31603658132E+02  0.40659140541E+02  0.00000000000E+00 0. -1.
         11    1    3    3    0    0 -0.37015188472E+01  0.42807359135E+01 -0.23192011088E+01  0.61159329445E+01  0.51100000000E-03 0. -1.
        -11    1    3    3    0    0  0.48230584979E+01  0.16864373920E+02 -0.91594778284E+01  0.19788002308E+02  0.51100000000E-03 0.  1.
        -12    1    3    3    0    0  0.14176013963E+02 -0.64244279607E+00 -0.20124979195E+02  0.24624924207E+02  0.00000000000E+00 0.  1.
</event>
<event>
 7    1  0.4520156E-012  0.5052886E+02  0.7816164E-02  0.1300439E+00
        -11   -1    0    0    0    0  0.00000000000E+00  0.00000000000E+00  0.45593999997E+02  0.45594000000E+02  0.51100000000E-03 0. -1.
         11   -1    0    0    0    0 -0.00000000000E+00 -0.00000000000E+00 -0.45593999997E+02  0.45594000000E+02  0.51100000000E-03 0.  1.
    9900012    2    1    2    0    0 -0.23517103414E+02 -0.27261437782E+02 -0.18892473105E+02  0.50528859786E+02  0.29999999805E+02 0.  0.
         12    1    1    2    0    0  0.23517103414E+02  0.27261437782E+02  0.18892473105E+02  0.40659140214E+02  0.00000000000E+00 0. -1.
         11    1    3    3    0    0  0.25363258228E+00  0.14636453168E+01  0.10041336615E+01  0.17930063501E+01  0.51100000000E-03 0. -1.
        -11    1    3    3    0    0 -0.18513183717E+02 -0.32825733518E+02 -0.15501664368E+02  0.40750071789E+02  0.51100000000E-03 0.  1.
         12    1    3    3    0    0 -0.52575522786E+01  0.41006504194E+01 -0.43949423982E+01  0.79857816466E+01  0.00000000000E+00 0. -1.
</event>
<event>
 7    1  0.4520156E-012  0.5052886E+02  0.7816164E-02  0.1300439E+00
        -11   -1    0    0    0    0  0.00000000000E+00  0.00000000000E+00  0.45593999997E+02  0.45594000000E+02  0.51100000000E-03 0. -1.
         11   -1    0    0    0    0 -0.00000000000E+00 -0.00000000000E+00 -0.45593999997E+02  0.45594000000E+02  0.51100000000E-03 0.  1.
    9900012    2    1    2    0    0 -0.28686447620E+02 -0.28787669439E+02  0.12341315876E+01  0.50528864870E+02  0.30000015258E+02 0.  0.
         12    1    1    2    0    0  0.28686447620E+02  0.28787669439E+02 -0.12341315876E+01  0.40659135130E+02  0.00000000000E+00 0. -1.
         11    1    3    3    0    0 -0.56821722180E+01 -0.12526663531E+02  0.54941995619E+01  0.14811840176E+02  0.51100000000E-03 0. -1.
        -11    1    3    3    0    0 -0.19843052075E+02 -0.16361724960E+02  0.47626754237E+01  0.26155990457E+02  0.51100000000E-03 0.  1.
         12    1    3    3    0    0 -0.31612233271E+01  0.10071905170E+00 -0.90227433981E+01  0.95610342369E+01  0.00000000000E+00 0. -1.
</event>
<event>
 7    1  0.4520156E-012  0.5052887E+02  0.7816164E-02  0.1300439E+00
        -11   -1    0    0    0    0  0.00000000000E+00  0.00000000000E+00  0.45593999997E+02  0.45594000000E+02  0.51100000000E-03 0. -1.
         11   -1    0    0    0    0 -0.00000000000E+00 -0.00000000000E+00 -0.45593999997E+02  0.45594000000E+02  0.51100000000E-03 0.  1.
    9900012    2    1    2    0    0  0.42502536407E+01 -0.31772340307E+02 -0.25012368700E+02  0.50528869998E+02  0.30000030845E+02 0.  0.
         12    1    1    2    0    0 -0.42502536407E+01  0.31772340307E+02  0.25012368700E+02  0.40659130002E+02  0.00000000000E+00 0. -1.
         11    1    3    3    0    0  0.26247465531E+01 -0.12168905207E+01  0.62963608973E+00  0.29608375291E+01  0.51100000000E-03 0. -1.
        -11    1    3    3    0    0  0.13214512081E+02 -0.19868903334E+02 -0.11945774171E+02  0.26685167604E+02  0.51100000000E-03 0.  1.
        -12    1    3    3    0    0 -0.11589004993E+02 -0.10686546452E+02 -0.13696230618E+02  0.20882864865E+02  0.00000000000E+00 0.  1.
</event>
<event>
 7    1  0.4520156E-012  0.5052885E+02  0.7816164E-02  0.1300439E+00
        -11   -1    0    0    0    0  0.00000000000E+00  0.00000000000E+00  0.45593999997E+02  0.45594000000E+02  0.51100000000E-03 0. -1.
         11   -1    0    0    0    0 -0.00000000000E+00 -0.00000000000E+00 -0.45593999997E+02  0.45594000000E+02  0.51100000000E-03 0.  1.
    9900012    2    1    2    0    0 -0.30793868013E+02  0.77007341744E+01  0.25408714802E+02  0.50528850944E+02  0.29999972931E+02 0.  0.
        -12    1    1    2    0    0  0.30793868013E+02 -0.77007341744E+01 -0.25408714802E+02  0.40659149056E+02  0.00000000000E+00 0.  1.
         11    1    3    3    0    0 -0.27099524609E+01 -0.33279203564E+01  0.12768001750E+02  0.13469994996E+02  0.51100000000E-03 0. -1.
        -11    1    3    3    0    0 -0.52280788115E+01 -0.41406181601E+01  0.56742929772E+01  0.87564335125E+01  0.51100000000E-03 0.  1.
         12    1    3    3    0    0 -0.22855836741E+02  0.15169272691E+02  0.69664200751E+01  0.28302422436E+02  0.00000000000E+00 0. -1.
</event>
<event>
 7    1  0.4520156E-012  0.5052885E+02  0.7816164E-02  0.1300439E+00
        -11   -1    0    0    0    0  0.00000000000E+00  0.00000000000E+00  0.45593999997E+02  0.45594000000E+02  0.51100000000E-03 0. -1.
         11   -1    0    0    0    0 -0.00000000000E+00 -0.00000000000E+00 -0.45593999997E+02  0.45594000000E+02  0.51100000000E-03 0.  1.
    9900012    2    1    2    0    0  0.10513577182E+02  0.33237068873E+02 -0.20926744179E+02  0.50528847594E+02  0.29999962746E+02 0.  0.
         12    1    1    2    0    0 -0.10513577182E+02 -0.33237068873E+02  0.20926744179E+02  0.40659152406E+02  0.00000000000E+00 0. -1.
         11    1    3    3    0    0  0.30633864955E+01  0.25311102715E+01 -0.11553059082E+02  0.12217365937E+02  0.51100000000E-03 0.  1.
        -11    1    3    3    0    0  0.23837075936E+01  0.56450045059E+01  0.59186168312E+01  0.85192818488E+01  0.51100000000E-03 0. -1.
        -12    1    3    3    0    0  0.50664830927E+01  0.25060954096E+02 -0.15292301928E+02  0.29792199808E+02  0.00000000000E+00 0.  1.
</event>
<event>
 7    1  0.4520156E-012  0.5052886E+02  0.7816164E-02  0.1300439E+00
        -11   -1    0    0    0    0  0.00000000000E+00  0.00000000000E+00  0.45593999997E+02  0.45594000000E+02  0.51100000000E-03 0. -1.
         11   -1    0    0    0    0 -0.00000000000E+00 -0.00000000000E+00 -0.45593999997E+02  0.45594000000E+02  0.51100000000E-03 0.  1.
    9900012    2    1    2    0    0  0.28264770654E+02  0.17474911242E+02 -0.23428521172E+02  0.50528863421E+02  0.30000010855E+02 0.  0.
         12    1    1    2    0    0 -0.28264770654E+02 -0.17474911242E+02  0.23428521172E+02  0.40659136579E+02  0.00000000000E+00 0. -1.
         11    1    3    3    0    0  0.10124130505E+02  0.74840854901E+01 -0.11499403827E+02  0.17051271001E+02  0.51100000000E-03 0. -1.
        -11    1    3    3    0    0  0.18341356430E+02  0.15735026408E+02 -0.13278224515E+02  0.27573676909E+02  0.51100000000E-03 0.  1.
         12    1    3    3    0    0 -0.20071628046E+00 -0.57442006565E+01  0.13491071707E+01  0.59039155114E+01  0.00000000000E+00 0. -1.
</event>
<event>
 7    1  0.4520156E-012  0.5052886E+02  0.7816164E-02  0.1300439E+00
        -11   -1    0    0    0    0  0.00000000000E+00  0.00000000000E+00  0.45593999997E+02  0.45594000000E+02  0.51100000000E-03 0. -1.
         11   -1    0    0    0    0 -0.00000000000E+00 -0.00000000000E+00 -0.45593999997E+02  0.45594000000E+02  0.51100000000E-03 0.  1.
    9900012    2    1    2    0    0 -0.11774778800E+02 -0.15108093826E+01  0.38887502739E+02  0.50528857977E+02  0.29999994307E+02 0.  0.
        -12    1    1    2    0    0  0.11774778800E+02  0.15108093826E+01 -0.38887502739E+02  0.40659142023E+02  0.00000000000E+00 0.  1.
         11    1    3    3    0    0 -0.10824927626E+02 -0.27029052073E+01  0.25241013455E+01  0.11439223860E+02  0.51100000000E-03 0.  1.
        -11    1    3    3    0    0 -0.58963607502E+01  0.25607505698E+01  0.79860914473E+01  0.10251934961E+02  0.51100000000E-03 0. -1.
        -12    1    3    3    0    0  0.49465095765E+01 -0.13686547451E+01  0.28377309946E+02  0.28837699156E+02  0.00000000000E+00 0.  1.
</event>
<event>
 7    1  0.4520156E-012  0.5052886E+02  0.7816164E-02  0.1300439E+00
        -11   -1    0    0    0    0  0.00000000000E+00  0.00000000000E+00  0.45593999997E+02  0.45594000000E+02  0.51100000000E-03 0. -1.
         11   -1    0    0    0    0 -0.00000000000E+00 -0.00000000000E+00 -0.45593999997E+02  0.45594000000E+02  0.51100000000E-03 0.  1.
    9900012    2    1    2    0    0  0.22087083076E+02  0.15084276833E+02  0.30623376563E+02  0.50528857873E+02  0.29999993991E+02 0.  0.
        -12    1    1    2    0    0 -0.22087083076E+02 -0.15084276833E+02 -0.30623376563E+02  0.40659142127E+02  0.00000000000E+00 0.  1.
         11    1    3    3    0    0  0.65813163688E+01  0.47184108812E+00  0.11384966149E+02  0.13158792256E+02  0.51100000000E-03 0. -1.
        -11    1    3    3    0    0 -0.15126438600E+01  0.31170811547E+01  0.16251790322E+02  0.16617008615E+02  0.51100000000E-03 0.  1.
        -12    1    3    3    0    0  0.17018410567E+02  0.11495354591E+02  0.29866200921E+01  0.20753057003E+02  0.00000000000E+00 0.  1.
</event>
<event>
 7    1  0.4520156E-012  0.5052887E+02  0.7816164E-02  0.1300439E+00
        -11   -1    0    0    0    0  0.00000000000E+00  0.00000000000E+00  0.45593999997E+02  0.45594000000E+02  0.51100000000E-03 0. -1.
         11   -1    0    0    0    0 -0.00000000000E+00 -0.00000000000E+00 -0.45593999997E+02  0.45594000000E+02  0.51100000000E-03 0.  1.
    9900012    2    1    2    0    0 -0.15406796376E+02  0.24831457357E+02 -0.28270017259E+02  0.50528874028E+02  0.30000043094E+02 0.  0.
         12    1    1    2    0    0  0.15406796376E+02 -0.24831457357E+02  0.28270017259E+02  0.40659125972E+02  0.00000000000E+00 0. -1.
         11    1    3    3    0    0 -0.46329234329E+01  0.45109609407E+01 -0.68265138159E+01  0.94028739907E+01  0.51100000000E-03 0. -1.
        -11    1    3    3    0    0 -0.15735104312E+02  0.16132767016E+02 -0.25053286947E+02  0.33697579534E+02  0.51100000000E-03 0.  1.
         12    1    3    3    0    0  0.49612313691E+01  0.41877293999E+01  0.36097835045E+01  0.74284205033E+01  0.00000000000E+00 0. -1.
</event>
<event>
 7    1  0.4520156E-012  0.5052888E+02  0.7816164E-02  0.1300439E+00
        -11   -1    0    0    0    0  0.00000000000E+00  0.00000000000E+00  0.45593999997E+02  0.45594000000E+02  0.51100000000E-03 0.  1.
         11   -1    0    0    0    0 -0.00000000000E+00 -0.00000000000E+00 -0.45593999997E+02  0.45594000000E+02  0.51100000000E-03 0. -1.
    9900012    2    1    2    0    0 -0.23783678777E+02 -0.17622481090E+02 -0.27873806814E+02  0.50528876519E+02  0.30000050668E+02 0.  0.
         12    1    1    2    0    0  0.23783678777E+02  0.17622481090E+02  0.27873806814E+02  0.40659123481E+02  0.00000000000E+00 0. -1.
         11    1    3    3    0    0 -0.75474598357E+01  0.66908828144E+01 -0.87743275892E+01  0.13368653175E+02  0.51100000000E-03 0. -1.
        -11    1    3    3    0    0 -0.65661755746E+01 -0.14365133196E+02 -0.16867712816E+02  0.23108255004E+02  0.51100000000E-03 0.  1.
        -12    1    3    3    0    0 -0.96700433671E+01 -0.99482307082E+01 -0.22317664081E+01  0.14051968341E+02  0.00000000000E+00 0.  1.
</event>
<event>
 7    1  0.4520156E-012  0.5052887E+02  0.7816164E-02  0.1300439E+00
        -11   -1    0    0    0    0  0.00000000000E+00  0.00000000000E+00  0.45593999997E+02  0.45594000000E+02  0.51100000000E-03 0.  1.
         11   -1    0    0    0    0 -0.00000000000E+00 -0.00000000000E+00 -0.45593999997E+02  0.45594000000E+02  0.51100000000E-03 0. -1.
    9900012    2    1    2    0    0  0.29064412643E+02 -0.26888650624E+02 -0.92425716762E+01  0.50528871309E+02  0.30000034832E+02 0.  0.
         12    1    1    2    0    0 -0.29064412643E+02  0.26888650624E+02  0.92425716762E+01  0.40659128691E+02  0.00000000000E+00 0. -1.
         11    1    3    3    0    0 -0.15391922532E+01 -0.90911059403E+01 -0.10581837869E+02  0.14035405693E+02  0.51100000000E-03 0. -1.
        -11    1    3    3    0    0  0.12455902207E+02 -0.11121262541E+02  0.34204732900E+01  0.17044988063E+02  0.51100000000E-03 0.  1.
        -12    1    3    3    0    0  0.18147702690E+02 -0.66762821429E+01 -0.20812070970E+01  0.19448477554E+02  0.00000000000E+00 0.  1.
</event>
<event>
 7    1  0.4520156E-012  0.5052886E+02  0.7816164E-02  0.1300439E+00
        -11   -1    0    0    0    0  0.00000000000E+00  0.00000000000E+00  0.45593999997E+02  0.45594000000E+02  0.51100000000E-03 0. -1.
         11   -1    0    0    0    0 -0.00000000000E+00 -0.00000000000E+00 -0.45593999997E+02  0.45594000000E+02  0.51100000000E-03 0.  1.
    9900012    2    1    2    0    0 -0.78896528050E+01  0.10779707464E+02 -0.38402041764E+02  0.50528861716E+02  0.30000005671E+02 0.  0.
         12    1    1    2    0    0  0.78896528050E+01 -0.10779707464E+02  0.38402041764E+02  0.40659138284E+02  0.00000000000E+00 0. -1.
         11    1    3    3    0    0  0.21270589876E+01 -0.32494576346E+01 -0.48966027861E+01  0.62498059139E+01  0.51100000000E-03 0. -1.
        -11    1    3    3    0    0 -0.24331506271E+01 -0.65299961149E+01 -0.94112572727E+01  0.11710372964E+02  0.51100000000E-03 0.  1.
        -12    1    3    3    0    0 -0.75835611655E+01  0.20559161214E+02 -0.24094181705E+02  0.32568682838E+02  0.00000000000E+00 0.  1.
</event>
<event>
 7    1  0.4520156E-012  0.5052886E+02  0.7816164E-02  0.1300439E+00
        -11   -1    0    0    0    0  0.00000000000E+00  0.00000000000E+00  0.45593999997E+02  0.45594000000E+02  0.51100000000E-03 0. -1.
         11   -1    0    0    0    0 -0.00000000000E+00 -0.00000000000E+00 -0.45593999997E+02  0.45594000000E+02  0.51100000000E-03 0.  1.
    9900012    2    1    2    0    0  0.19063627943E+02  0.76147182371E+01  0.35096433546E+02  0.50528862136E+02  0.30000006950E+02 0.  0.
        -12    1    1    2    0    0 -0.19063627943E+02 -0.76147182371E+01 -0.35096433546E+02  0.40659137864E+02  0.00000000000E+00 0.  1.
         11    1    3    3    0    0  0.10219043219E+01  0.46731142641E+01  0.56895382503E+01  0.74332449934E+01  0.51100000000E-03 0. -1.
        -11    1    3    3    0    0  0.22904661793E+02  0.48577419179E+00  0.29851773538E+02  0.37629614561E+02  0.51100000000E-03 0.  1.
        -12    1    3    3    0    0 -0.48629381715E+01  0.24558297812E+01 -0.44487824255E+00  0.54660025819E+01  0.00000000000E+00 0.  1.
</event>
<event>
 7    1  0.4520156E-012  0.5052886E+02  0.7816164E-02  0.1300439E+00
        -11   -1    0    0    0    0  0.00000000000E+00  0.00000000000E+00  0.45593999997E+02  0.45594000000E+02  0.51100000000E-03 0.  1.
         11   -1    0    0    0    0 -0.00000000000E+00 -0.00000000000E+00 -0.45593999997E+02  0.45594000000E+02  0.51100000000E-03 0. -1.
    9900012    2    1    2    0    0 -0.32557250596E+02 -0.24165153252E+02 -0.30390920138E+01  0.50528864762E+02  0.30000014929E+02 0.  0.
        -12    1    1    2    0    0  0.32557250596E+02  0.24165153252E+02  0.30390920138E+01  0.40659135238E+02  0.00000000000E+00 0.  1.
         11    1    3    3    0    0 -0.89091578188E+01 -0.38386810478E+01  0.40629009654E+01  0.10517401283E+02  0.51100000000E-03 0. -1.
        -11    1    3    3    0    0 -0.16549956250E+02 -0.23285229122E+02  0.13311370971E+01  0.28598511733E+02  0.51100000000E-03 0.  1.
         12    1    3    3    0    0 -0.70981365277E+01  0.29587569177E+01 -0.84331300763E+01  0.11412951746E+02  0.00000000000E+00 0. -1.
</event>
<event>
 7    1  0.4520156E-012  0.5052886E+02  0.7816164E-02  0.1300439E+00
        -11   -1    0    0    0    0  0.00000000000E+00  0.00000000000E+00  0.45593999997E+02  0.45594000000E+02  0.51100000000E-03 0. -1.
         11   -1    0    0    0    0 -0.00000000000E+00 -0.00000000000E+00 -0.45593999997E+02  0.45594000000E+02  0.51100000000E-03 0.  1.
    9900012    2    1    2    0    0  0.30004779824E+02 -0.45680669297E+01 -0.27055716543E+02  0.50528857788E+02  0.29999993733E+02 0.  0.
         12    1    1    2    0    0 -0.30004779824E+02  0.45680669297E+01  0.27055716543E+02  0.40659142212E+02  0.00000000000E+00 0. -1.
         11    1    3    3    0    0  0.88760916595E+01 -0.48448095289E+01  0.46702668475E-01  0.10112337214E+02  0.51100000000E-03 0. -1.
        -11    1    3    3    0    0  0.24934508983E+02  0.17494606727E+01 -0.19186077460E+02  0.31510251022E+02  0.51100000000E-03 0.  1.
        -12    1    3    3    0    0 -0.38058208188E+01 -0.14727180735E+01 -0.79163417513E+01  0.89062695531E+01  0.00000000000E+00 0.  1.
</event>
<event>
 7    1  0.4520156E-012  0.5052886E+02  0.7816164E-02  0.1300439E+00
        -11   -1    0    0    0    0  0.00000000000E+00  0.00000000000E+00  0.45593999997E+02  0.45594000000E+02  0.51100000000E-03 0. -1.
         11   -1    0    0    0    0 -0.00000000000E+00 -0.00000000000E+00 -0.45593999997E+02  0.45594000000E+02  0.51100000000E-03 0.  1.
    9900012    2    1    2    0    0 -0.25573621507E+02 -0.28583937357E+02  0.13494956664E+02  0.50528862685E+02  0.30000008617E+02 0.  0.
        -12    1    1    2    0    0  0.25573621507E+02  0.28583937357E+02 -0.13494956664E+02  0.40659137315E+02  0.00000000000E+00 0.  1.
         11    1    3    3    0    0 -0.12330530741E+02 -0.98363112749E+01  0.49326497742E+01  0.16526525403E+02  0.51100000000E-03 0. -1.
        -11    1    3    3    0    0 -0.17534627468E+02 -0.80252524801E+01 -0.54903651868E+00  0.19291689381E+02  0.51100000000E-03 0.  1.
        -12    1    3    3    0    0  0.42915367021E+01 -0.10722373602E+02  0.91113434087E+01  0.14710647900E+02  0.00000000000E+00 0.  1.
</event>
<event>
 7    1  0.4520156E-012  0.5052887E+02  0.7816164E-02  0.1300439E+00
        -11   -1    0    0    0    0  0.00000000000E+00  0.00000000000E+00  0.45593999997E+02  0.45594000000E+02  0.51100000000E-03 0. -1.
         11   -1    0    0    0    0 -0.00000000000E+00 -0.00000000000E+00 -0.45593999997E+02  0.45594000000E+02  0.51100000000E-03 0.  1.
    9900012    2    1    2    0    0 -0.11426814846E+02  0.71044326315E+01  0.38368218466E+02  0.50528865125E+02  0.30000016034E+02 0.  0.
        -12    1    1    2    0    0  0.11426814846E+02 -0.71044326315E+01 -0.38368218466E+02  0.40659134875E+02  0.00000000000E+00 0.  1.
         11    1    3    3    0    0 -0.28646514146E+01  0.12524185112E+02  0.24412941642E+02  0.27587191961E+02  0.51100000000E-03 0. -1.
        -11    1    3    3    0    0 -0.13047439931E+01  0.28327947314E+01  0.11180053925E+02  0.11606924180E+02  0.51100000000E-03 0.  1.
        -12    1    3    3    0    0 -0.72574194380E+01 -0.82525472120E+01  0.27752228987E+01  0.11334748984E+02  0.00000000000E+00 0.  1.
</event>
<event>
 7    1  0.4520156E-012  0.5052886E+02  0.7816164E-02  0.1300439E+00
        -11   -1    0    0    0    0  0.00000000000E+00  0.00000000000E+00  0.45593999997E+02  0.45594000000E+02  0.51100000000E-03 0. -1.
         11   -1    0    0    0    0 -0.00000000000E+00 -0.00000000000E+00 -0.45593999997E+02  0.45594000000E+02  0.51100000000E-03 0.  1.
    9900012    2    1    2    0    0 -0.31671013772E+02  0.14753780829E+02  0.20795161289E+02  0.50528857176E+02  0.29999991874E+02 0.  0.
        -12    1    1    2    0    0  0.31671013772E+02 -0.14753780829E+02 -0.20795161289E+02  0.40659142824E+02  0.00000000000E+00 0.  1.
         11    1    3    3    0    0 -0.28398547985E+02  0.44408419875E+01  0.12129865814E+02  0.31198273192E+02  0.51100000000E-03 0. -1.
        -11    1    3    3    0    0 -0.58308306256E+01  0.91560842119E+01  0.11164449683E+02  0.15571685871E+02  0.51100000000E-03 0.  1.
         12    1    3    3    0    0  0.25583648386E+01  0.11568546294E+01 -0.24991542071E+01  0.37588981141E+01  0.00000000000E+00 0. -1.
</event>
<event>
 7    1  0.4520156E-012  0.5052885E+02  0.7816164E-02  0.1300439E+00
        -11   -1    0    0    0    0  0.00000000000E+00  0.00000000000E+00  0.45593999997E+02  0.45594000000E+02  0.51100000000E-03 0. -1.
         11   -1    0    0    0    0 -0.00000000000E+00 -0.00000000000E+00 -0.45593999997E+02  0.45594000000E+02  0.51100000000E-03 0.  1.
    9900012    2    1    2    0    0 -0.34104103058E+02  0.14420868470E+02 -0.16796286514E+02  0.50528849327E+02  0.29999968013E+02 0.  0.
         12    1    1    2    0    0  0.34104103058E+02 -0.14420868470E+02  0.16796286514E+02  0.40659150673E+02  0.00000000000E+00 0. -1.
         11    1    3    3    0    0 -0.11485237180E+02  0.13099035529E+02 -0.26428367609E+00  0.17423124031E+02  0.51100000000E-03 0. -1.
        -11    1    3    3    0    0 -0.52493210418E+01  0.58078713148E+01 -0.12451434838E+02  0.14707990019E+02  0.51100000000E-03 0.  1.
         12    1    3    3    0    0 -0.17369544836E+02 -0.44860383739E+01 -0.40805679992E+01  0.18397735277E+02  0.00000000000E+00 0. -1.
</event>
<event>
 7    1  0.4520156E-012  0.5052886E+02  0.7816164E-02  0.1300439E+00
        -11   -1    0    0    0    0  0.00000000000E+00  0.00000000000E+00  0.45593999997E+02  0.45594000000E+02  0.51100000000E-03 0. -1.
         11   -1    0    0    0    0 -0.00000000000E+00 -0.00000000000E+00 -0.45593999997E+02  0.45594000000E+02  0.51100000000E-03 0.  1.
    9900012    2    1    2    0    0  0.18637266703E+02 -0.34328875908E+02  0.11284776024E+02  0.50528860792E+02  0.30000002863E+02 0.  0.
        -12    1    1    2    0    0 -0.18637266703E+02  0.34328875908E+02 -0.11284776024E+02  0.40659139208E+02  0.00000000000E+00 0.  1.
         11    1    3    3    0    0  0.81081604926E+01 -0.22310208879E+02  0.15998111016E+02  0.28625639611E+02  0.51100000000E-03 0. -1.
        -11    1    3    3    0    0  0.78712752651E+01 -0.91878533293E+00  0.26084686428E+01  0.83429760702E+01  0.51100000000E-03 0.  1.
        -12    1    3    3    0    0  0.26578309449E+01 -0.11099881696E+02 -0.73218036351E+01  0.13560245111E+02  0.00000000000E+00 0.  1.
</event>
<event>
 7    1  0.4520156E-012  0.5052886E+02  0.7816164E-02  0.1300439E+00
        -11   -1    0    0    0    0  0.00000000000E+00  0.00000000000E+00  0.45593999997E+02  0.45594000000E+02  0.51100000000E-03 0. -1.
         11   -1    0    0    0    0 -0.00000000000E+00 -0.00000000000E+00 -0.45593999997E+02  0.45594000000E+02  0.51100000000E-03 0.  1.
    9900012    2    1    2    0    0 -0.20778591068E+02  0.11730728035E+02 -0.32921201953E+02  0.50528863696E+02  0.30000011690E+02 0.  0.
         12    1    1    2    0    0  0.20778591068E+02 -0.11730728035E+02  0.32921201953E+02  0.40659136304E+02  0.00000000000E+00 0. -1.
         11    1    3    3    0    0 -0.14882112436E+02  0.80134780831E+01 -0.12652126497E+02  0.21113251922E+02  0.51100000000E-03 0. -1.
        -11    1    3    3    0    0 -0.56800449170E+01  0.11851260426E+02 -0.11649159678E+02  0.17561839465E+02  0.51100000000E-03 0.  1.
         12    1    3    3    0    0 -0.21643371474E+00 -0.81340104739E+01 -0.86199157775E+01  0.11853772309E+02  0.00000000000E+00 0. -1.
</event>
<event>
 7    1  0.4520156E-012  0.5052884E+02  0.7816164E-02  0.1300439E+00
        -11   -1    0    0    0    0  0.00000000000E+00  0.00000000000E+00  0.45593999997E+02  0.45594000000E+02  0.51100000000E-03 0. -1.
         11   -1    0    0    0    0 -0.00000000000E+00 -0.00000000000E+00 -0.45593999997E+02  0.45594000000E+02  0.51100000000E-03 0.  1.
    9900012    2    1    2    0    0 -0.72386702206E+01 -0.65653615418E+01 -0.39467264278E+02  0.50528840290E+02  0.29999940545E+02 0.  0.
         12    1    1    2    0    0  0.72386702206E+01  0.65653615418E+01  0.39467264278E+02  0.40659159710E+02  0.00000000000E+00 0. -1.
         11    1    3    3    0    0 -0.26500375460E+00  0.37048938514E+01  0.14350967750E+01  0.39819553557E+01  0.51100000000E-03 0. -1.
        -11    1    3    3    0    0  0.46988630797E+01  0.12195131930E+01 -0.44566964501E+01  0.65900432608E+01  0.51100000000E-03 0.  1.
        -12    1    3    3    0    0 -0.11672529546E+02 -0.11489768586E+02 -0.36445664603E+02  0.39956841673E+02  0.00000000000E+00 0.  1.
</event>
<event>
 7    1  0.4520156E-012  0.5052886E+02  0.7816164E-02  0.1300439E+00
        -11   -1    0    0    0    0  0.00000000000E+00  0.00000000000E+00  0.45593999997E+02  0.45594000000E+02  0.51100000000E-03 0. -1.
         11   -1    0    0    0    0 -0.00000000000E+00 -0.00000000000E+00 -0.45593999997E+02  0.45594000000E+02  0.51100000000E-03 0.  1.
    9900012    2    1    2    0    0 -0.23134320965E+02  0.31810059981E+02 -0.10299957696E+02  0.50528857719E+02  0.29999993523E+02 0.  0.
         12    1    1    2    0    0  0.23134320965E+02 -0.31810059981E+02  0.10299957696E+02  0.40659142281E+02  0.00000000000E+00 0. -1.
         11    1    3    3    0    0 -0.12202510445E+01 -0.13849949749E+01 -0.39676613689E+00  0.18880273623E+01  0.51100000000E-03 0. -1.
        -11    1    3    3    0    0 -0.17160953962E+02  0.29191377842E+02  0.33256907939E+01  0.34024918820E+02  0.51100000000E-03 0.  1.
         12    1    3    3    0    0 -0.47531159588E+01  0.40036771140E+01 -0.13228882353E+02  0.14615911537E+02  0.00000000000E+00 0. -1.
</event>
<event>
 7    1  0.4520156E-012  0.5052886E+02  0.7816164E-02  0.1300439E+00
        -11   -1    0    0    0    0  0.00000000000E+00  0.00000000000E+00  0.45593999997E+02  0.45594000000E+02  0.51100000000E-03 0. -1.
         11   -1    0    0    0    0 -0.00000000000E+00 -0.00000000000E+00 -0.45593999997E+02  0.45594000000E+02  0.51100000000E-03 0.  1.
    9900012    2    1    2    0    0  0.33462989858E+02  0.11508191836E+02  0.20023879764E+02  0.50528856744E+02  0.29999990558E+02 0.  0.
        -12    1    1    2    0    0 -0.33462989858E+02 -0.11508191836E+02 -0.20023879764E+02  0.40659143256E+02  0.00000000000E+00 0.  1.
         11    1    3    3    0    0  0.12559395846E+02 -0.52562773058E+01  0.21523746188E+01  0.13784033949E+02  0.51100000000E-03 0. -1.
        -11    1    3    3    0    0  0.85019572178E+00 -0.34964037794E+01  0.19225748028E+01  0.40797017400E+01  0.51100000000E-03 0.  1.
         12    1    3    3    0    0  0.20053398290E+02  0.20260872921E+02  0.15948930342E+02  0.32665121055E+02  0.00000000000E+00 0. -1.
</event>
<event>
 7    1  0.4520156E-012  0.5052887E+02  0.7816164E-02  0.1300439E+00
        -11   -1    0    0    0    0  0.00000000000E+00  0.00000000000E+00  0.45593999997E+02  0.45594000000E+02  0.51100000000E-03 0. -1.
         11   -1    0    0    0    0 -0.00000000000E+00 -0.00000000000E+00 -0.45593999997E+02  0.45594000000E+02  0.51100000000E-03 0.  1.
    9900012    2    1    2    0    0 -0.13301143150E+02 -0.41664066922E+01 -0.38195360388E+02  0.50528869304E+02  0.30000028735E+02 0.  0.
         12    1    1    2    0    0  0.13301143150E+02  0.41664066922E+01  0.38195360388E+02  0.40659130696E+02  0.00000000000E+00 0. -1.
         11    1    3    3    0    0 -0.42879453810E+01  0.68666491570E+01 -0.17448111599E+01  0.82814076389E+01  0.51100000000E-03 0. -1.
        -11    1    3    3    0    0 -0.66585400674E+01  0.20341264495E+01 -0.66729261924E+01  0.96437425553E+01  0.51100000000E-03 0.  1.
         12    1    3    3    0    0 -0.23546577016E+01 -0.13067182299E+02 -0.29777623036E+02  0.32603719109E+02  0.00000000000E+00 0. -1.
</event>
<event>
 7    1  0.4520156E-012  0.5052886E+02  0.7816164E-02  0.1300439E+00
        -11   -1    0    0    0    0  0.00000000000E+00  0.00000000000E+00  0.45593999997E+02  0.45594000000E+02  0.51100000000E-03 0. -1.
         11   -1    0    0    0    0 -0.00000000000E+00 -0.00000000000E+00 -0.45593999997E+02  0.45594000000E+02  0.51100000000E-03 0.  1.
    9900012    2    1    2    0    0 -0.24036435428E+02  0.20925146036E+01 -0.32726700791E+02  0.50528858468E+02  0.29999995801E+02 0.  0.
         12    1    1    2    0    0  0.24036435428E+02 -0.20925146036E+01  0.32726700791E+02  0.40659141532E+02  0.00000000000E+00 0. -1.
         11    1    3    3    0    0 -0.55606549441E+01 -0.45847777121E+01  0.15772147288E+01  0.73775793211E+01  0.51100000000E-03 0. -1.
        -11    1    3    3    0    0 -0.10296477011E+02 -0.48084717494E+01 -0.10432800000E+02  0.15426670267E+02  0.51100000000E-03 0.  1.
        -12    1    3    3    0    0 -0.81793034723E+01  0.11485764065E+02 -0.23871115519E+02  0.27724608881E+02  0.00000000000E+00 0.  1.
</event>
<event>
 7    1  0.4520156E-012  0.5052886E+02  0.7816164E-02  0.1300439E+00
        -11   -1    0    0    0    0  0.00000000000E+00  0.00000000000E+00  0.45593999997E+02  0.45594000000E+02  0.51100000000E-03 0. -1.
         11   -1    0    0    0    0 -0.00000000000E+00 -0.00000000000E+00 -0.45593999997E+02  0.45594000000E+02  0.51100000000E-03 0.  1.
    9900012    2    1    2    0    0  0.18862892078E+02 -0.10714096805E+02 -0.34388445190E+02  0.50528859201E+02  0.29999998028E+02 0.  0.
         12    1    1    2    0    0 -0.18862892078E+02  0.10714096805E+02  0.34388445190E+02  0.40659140799E+02  0.00000000000E+00 0. -1.
         11    1    3    3    0    0  0.12691431588E+02 -0.47624538570E+01 -0.73388379234E+01  0.15414666549E+02  0.51100000000E-03 0. -1.
        -11    1    3    3    0    0 -0.43750642100E+01 -0.93834865904E+01 -0.80510038822E+01  0.13115245755E+02  0.51100000000E-03 0.  1.
         12    1    3    3    0    0  0.10546524700E+02  0.34318436426E+01 -0.18998603385E+02  0.21998946898E+02  0.00000000000E+00 0. -1.
</event>
<event>
 7    1  0.4520156E-012  0.5052889E+02  0.7816164E-02  0.1300439E+00
        -11   -1    0    0    0    0  0.00000000000E+00  0.00000000000E+00  0.45593999997E+02  0.45594000000E+02  0.51100000000E-03 0. -1.
         11   -1    0    0    0    0 -0.00000000000E+00 -0.00000000000E+00 -0.45593999997E+02  0.45594000000E+02  0.51100000000E-03 0.  1.
    9900012    2    1    2    0    0  0.26439509199E+02 -0.23454181317E+02 -0.20100181309E+02  0.50528885934E+02  0.30000079286E+02 0.  0.
         12    1    1    2    0    0 -0.26439509199E+02  0.23454181317E+02  0.20100181309E+02  0.40659114066E+02  0.00000000000E+00 0. -1.
         11    1    3    3    0    0  0.12064111944E+02 -0.18932134598E+02 -0.17773087292E+01  0.22519488094E+02  0.51100000000E-03 0. -1.
        -11    1    3    3    0    0 -0.29832972659E+01 -0.57334354859E+00 -0.10758133341E+01  0.32227565828E+01  0.51100000000E-03 0.  1.
        -12    1    3    3    0    0  0.17358694521E+02 -0.39487031705E+01 -0.17247059245E+02  0.24786641257E+02  0.00000000000E+00 0.  1.
</event>
<event>
 7    1  0.4520156E-012  0.5052892E+02  0.7816164E-02  0.1300439E+00
        -11   -1    0    0    0    0  0.00000000000E+00  0.00000000000E+00  0.45593999997E+02  0.45594000000E+02  0.51100000000E-03 0. -1.
         11   -1    0    0    0    0 -0.00000000000E+00 -0.00000000000E+00 -0.45593999997E+02  0.45594000000E+02  0.51100000000E-03 0.  1.
    9900012    2    1    2    0    0  0.45020857697E+01 -0.16524568843E+01 -0.40375257517E+02  0.50528919715E+02  0.30000181966E+02 0.  0.
         12    1    1    2    0    0 -0.45020857697E+01  0.16524568843E+01  0.40375257517E+02  0.40659080285E+02  0.00000000000E+00 0. -1.
         11    1    3    3    0    0  0.53910736369E+01  0.11260054825E+02 -0.31024487835E+02  0.33442059675E+02  0.51100000000E-03 0. -1.
        -11    1    3    3    0    0 -0.70740977744E+00 -0.15472107833E+01 -0.43459386797E+01  0.46670625740E+01  0.51100000000E-03 0.  1.
        -12    1    3    3    0    0 -0.18157808974E+00 -0.11365300926E+02 -0.50048310022E+01  0.12419797466E+02  0.00000000000E+00 0.  1.
</event>
<event>
 7    1  0.4520156E-012  0.5052888E+02  0.7816164E-02  0.1300439E+00
        -11   -1    0    0    0    0  0.00000000000E+00  0.00000000000E+00  0.45593999997E+02  0.45594000000E+02  0.51100000000E-03 0. -1.
         11   -1    0    0    0    0 -0.00000000000E+00 -0.00000000000E+00 -0.45593999997E+02  0.45594000000E+02  0.51100000000E-03 0.  1.
    9900012    2    1    2    0    0 -0.19509771338E+02  0.25236168257E+02 -0.25212464696E+02  0.50528883655E+02  0.30000072356E+02 0.  0.
         12    1    1    2    0    0  0.19509771338E+02 -0.25236168257E+02  0.25212464696E+02  0.40659116345E+02  0.00000000000E+00 0. -1.
         11    1    3    3    0    0 -0.16337150708E+01 -0.21920538334E+01  0.13208108340E+01  0.30362256934E+01  0.51100000000E-03 0. -1.
        -11    1    3    3    0    0 -0.11169785850E+02  0.10562824351E+02 -0.33518002829E-01  0.15373304717E+02  0.51100000000E-03 0.  1.
        -12    1    3    3    0    0 -0.67062704170E+01  0.16865397739E+02 -0.26499757527E+02  0.32119353244E+02  0.00000000000E+00 0.  1.
</event>
<event>
 7    1  0.4520156E-012  0.5052884E+02  0.7816164E-02  0.1300439E+00
        -11   -1    0    0    0    0  0.00000000000E+00  0.00000000000E+00  0.45593999997E+02  0.45594000000E+02  0.51100000000E-03 0. -1.
         11   -1    0    0    0    0 -0.00000000000E+00 -0.00000000000E+00 -0.45593999997E+02  0.45594000000E+02  0.51100000000E-03 0.  1.
    9900012    2    1    2    0    0  0.30609247060E+02 -0.10153757985E+02 -0.24761709572E+02  0.50528842757E+02  0.29999948044E+02 0.  0.
         12    1    1    2    0    0 -0.30609247060E+02  0.10153757985E+02  0.24761709572E+02  0.40659157243E+02  0.00000000000E+00 0. -1.
         11    1    3    3    0    0  0.41203245381E+01 -0.44447178807E+01 -0.78606526158E+00  0.61115047407E+01  0.51100000000E-03 0. -1.
        -11    1    3    3    0    0 -0.40969528368E+00 -0.94931158300E+01 -0.25983069917E+01  0.98508018898E+01  0.51100000000E-03 0.  1.
        -12    1    3    3    0    0  0.26898617805E+02  0.37840757257E+01 -0.21377337319E+02  0.34566536126E+02  0.00000000000E+00 0.  1.
</event>
<event>
 7    1  0.4520156E-012  0.5052879E+02  0.7816164E-02  0.1300439E+00
        -11   -1    0    0    0    0  0.00000000000E+00  0.00000000000E+00  0.45593999997E+02  0.45594000000E+02  0.51100000000E-03 0.  1.
         11   -1    0    0    0    0 -0.00000000000E+00 -0.00000000000E+00 -0.45593999997E+02  0.45594000000E+02  0.51100000000E-03 0. -1.
    9900012    2    1    2    0    0 -0.19499658491E+02  0.35502514398E+02 -0.35363495404E+01  0.50528794672E+02  0.29999801884E+02 0.  0.
        -12    1    1    2    0    0  0.19499658491E+02 -0.35502514398E+02  0.35363495404E+01  0.40659205328E+02  0.00000000000E+00 0.  1.
         11    1    3    3    0    0 -0.10498990249E+02  0.37878049887E+01  0.45283743122E+01  0.12045017104E+02  0.51100000000E-03 0. -1.
        -11    1    3    3    0    0 -0.50063269956E+01  0.12872285521E+02  0.55623188309E+01  0.14889541147E+02  0.51100000000E-03 0.  1.
         12    1    3    3    0    0 -0.39943412469E+01  0.18842423888E+02 -0.13627042684E+02  0.23594236420E+02  0.00000000000E+00 0. -1.
</event>
<event>
 7    1  0.4520156E-012  0.5052883E+02  0.7816164E-02  0.1300439E+00
        -11   -1    0    0    0    0  0.00000000000E+00  0.00000000000E+00  0.45593999997E+02  0.45594000000E+02  0.51100000000E-03 0. -1.
         11   -1    0    0    0    0 -0.00000000000E+00 -0.00000000000E+00 -0.45593999997E+02  0.45594000000E+02  0.51100000000E-03 0.  1.
    9900012    2    1    2    0    0 -0.19391370453E+02  0.33018686022E+02 -0.13671464397E+02  0.50528833586E+02  0.29999920169E+02 0.  0.
         12    1    1    2    0    0  0.19391370453E+02 -0.33018686022E+02  0.13671464397E+02  0.40659166414E+02  0.00000000000E+00 0. -1.
         11    1    3    3    0    0  0.59678741947E+00  0.52414850543E+01 -0.52260364038E+01  0.74256836422E+01  0.51100000000E-03 0. -1.
        -11    1    3    3    0    0 -0.21684856077E+02  0.28087665505E+02 -0.10402571041E+01  0.35499747488E+02  0.51100000000E-03 0.  1.
         12    1    3    3    0    0  0.16966982038E+01 -0.31046453704E+00 -0.74051708888E+01  0.76034024565E+01  0.00000000000E+00 0. -1.
</event>
<event>
 7    1  0.4520156E-012  0.5052886E+02  0.7816164E-02  0.1300439E+00
        -11   -1    0    0    0    0  0.00000000000E+00  0.00000000000E+00  0.45593999997E+02  0.45594000000E+02  0.51100000000E-03 0. -1.
         11   -1    0    0    0    0 -0.00000000000E+00 -0.00000000000E+00 -0.45593999997E+02  0.45594000000E+02  0.51100000000E-03 0.  1.
    9900012    2    1    2    0    0 -0.22719766330E+02  0.41749205228E+01 -0.33459646867E+02  0.50528859429E+02  0.29999998721E+02 0.  0.
         12    1    1    2    0    0  0.22719766330E+02 -0.41749205228E+01  0.33459646867E+02  0.40659140571E+02  0.00000000000E+00 0. -1.
         11    1    3    3    0    0 -0.32991565935E+01  0.35381098693E+01 -0.64177475448E+01  0.80367990820E+01  0.51100000000E-03 0. -1.
        -11    1    3    3    0    0 -0.20659987451E+02 -0.12801015392E+01 -0.31378712594E+02  0.37591187075E+02  0.51100000000E-03 0.  1.
        -12    1    3    3    0    0  0.12393777144E+01  0.19169121927E+01  0.43368132713E+01  0.49008732715E+01  0.00000000000E+00 0.  1.
</event>
<event>
 7    1  0.4520156E-012  0.5052886E+02  0.7816164E-02  0.1300439E+00
        -11   -1    0    0    0    0  0.00000000000E+00  0.00000000000E+00  0.45593999997E+02  0.45594000000E+02  0.51100000000E-03 0. -1.
         11   -1    0    0    0    0 -0.00000000000E+00 -0.00000000000E+00 -0.45593999997E+02  0.45594000000E+02  0.51100000000E-03 0.  1.
    9900012    2    1    2    0    0 -0.15882702451E+02  0.12220881217E+02 -0.35377327813E+02  0.50528862060E+02  0.30000006717E+02 0.  0.
         12    1    1    2    0    0  0.15882702451E+02 -0.12220881217E+02  0.35377327813E+02  0.40659137940E+02  0.00000000000E+00 0. -1.
         11    1    3    3    0    0 -0.15241526156E+02  0.13127275512E+01 -0.21630257181E+02  0.26493308574E+02  0.51100000000E-03 0. -1.
        -11    1    3    3    0    0 -0.33847564155E+00  0.87454295734E+01 -0.17572120528E+02  0.19631009254E+02  0.51100000000E-03 0.  1.
        -12    1    3    3    0    0 -0.30270065383E+00  0.21627240919E+01  0.38250498969E+01  0.44045442326E+01  0.00000000000E+00 0.  1.
</event>
<event>
 7    1  0.4520156E-012  0.5052887E+02  0.7816164E-02  0.1300439E+00
        -11   -1    0    0    0    0  0.00000000000E+00  0.00000000000E+00  0.45593999997E+02  0.45594000000E+02  0.51100000000E-03 0.  1.
         11   -1    0    0    0    0 -0.00000000000E+00 -0.00000000000E+00 -0.45593999997E+02  0.45594000000E+02  0.51100000000E-03 0. -1.
    9900012    2    1    2    0    0  0.11884602970E+02 -0.34817003453E+02  0.17311769718E+02  0.50528869562E+02  0.30000029520E+02 0.  0.
        -12    1    1    2    0    0 -0.11884602970E+02  0.34817003453E+02 -0.17311769718E+02  0.40659130438E+02  0.00000000000E+00 0.  1.
         11    1    3    3    0    0  0.15726880500E+02 -0.29675749113E+02  0.14917404049E+02  0.36749337403E+02  0.51100000000E-03 0. -1.
        -11    1    3    3    0    0  0.43013763128E+01 -0.25986694647E+01  0.59533851383E+00  0.50605680885E+01  0.51100000000E-03 0.  1.
        -12    1    3    3    0    0 -0.81436538428E+01 -0.25425848751E+01  0.17990271553E+01  0.87189640706E+01  0.00000000000E+00 0.  1.
</event>
<event>
 7    1  0.4520156E-012  0.5052886E+02  0.7816164E-02  0.1300439E+00
        -11   -1    0    0    0    0  0.00000000000E+00  0.00000000000E+00  0.45593999997E+02  0.45594000000E+02  0.51100000000E-03 0. -1.
         11   -1    0    0    0    0 -0.00000000000E+00 -0.00000000000E+00 -0.45593999997E+02  0.45594000000E+02  0.51100000000E-03 0.  1.
    9900012    2    1    2    0    0  0.20858559861E+02 -0.13026579709E+02 -0.32378919892E+02  0.50528858940E+02  0.29999997234E+02 0.  0.
         12    1    1    2    0    0 -0.20858559861E+02  0.13026579709E+02  0.32378919892E+02  0.40659141060E+02  0.00000000000E+00 0. -1.
         11    1    3    3    0    0  0.12562642368E+02  0.30852631537E+01 -0.10756814024E+02  0.16824026872E+02  0.51100000000E-03 0. -1.
        -11    1    3    3    0    0 -0.40556903189E+01  0.81790758335E+00 -0.70687933073E+01  0.81905699350E+01  0.51100000000E-03 0.  1.
        -12    1    3    3    0    0  0.12351607812E+02 -0.16929750446E+02 -0.14553312560E+02  0.25514262133E+02  0.00000000000E+00 0.  1.
</event>
<event>
 7    1  0.4520156E-012  0.5052885E+02  0.7816164E-02  0.1300439E+00
        -11   -1    0    0    0    0  0.00000000000E+00  0.00000000000E+00  0.45593999997E+02  0.45594000000E+02  0.51100000000E-03 0. -1.
         11   -1    0    0    0    0 -0.00000000000E+00 -0.00000000000E+00 -0.45593999997E+02  0.45594000000E+02  0.51100000000E-03 0.  1.
    9900012    2    1    2    0    0  0.28269320251E+02 -0.18223497551E+02  0.22845477350E+02  0.50528853848E+02  0.29999981756E+02 0.  0.
        -12    1    1    2    0    0 -0.28269320251E+02  0.18223497551E+02 -0.22845477350E+02  0.40659146152E+02  0.00000000000E+00 0.  1.
         11    1    3    3    0    0 -0.20701596398E+01  0.53416791747E+00  0.54415018754E+00  0.22061269197E+01  0.51100000000E-03 0. -1.
        -11    1    3    3    0    0 -0.20166245785E+01 -0.73145899955E+01  0.37550681010E+00  0.75967761003E+01  0.51100000000E-03 0.  1.
         12    1    3    3    0    0  0.32356104469E+02 -0.11443075473E+02  0.21925820353E+02  0.40725950828E+02  0.00000000000E+00 0. -1.
</event>
<event>
 7    1  0.4520156E-012  0.5052886E+02  0.7816164E-02  0.1300439E+00
        -11   -1    0    0    0    0  0.00000000000E+00  0.00000000000E+00  0.45593999997E+02  0.45594000000E+02  0.51100000000E-03 0. -1.
         11   -1    0    0    0    0 -0.00000000000E+00 -0.00000000000E+00 -0.45593999997E+02  0.45594000000E+02  0.51100000000E-03 0.  1.
    9900012    2    1    2    0    0 -0.33931420059E+02  0.46656918946E+01 -0.21910178388E+02  0.50528857547E+02  0.29999992999E+02 0.  0.
         12    1    1    2    0    0  0.33931420059E+02 -0.46656918946E+01  0.21910178388E+02  0.40659142453E+02  0.00000000000E+00 0. -1.
         11    1    3    3    0    0 -0.15252912049E+02 -0.55065660075E+01  0.34701955314E+00  0.16220173180E+02  0.51100000000E-03 0. -1.
        -11    1    3    3    0    0 -0.18509857258E+02  0.59764170968E+01 -0.11117558799E+02  0.22403849913E+02  0.51100000000E-03 0.  1.
         12    1    3    3    0    0 -0.16865075188E+00  0.41958408053E+01 -0.11139639142E+02  0.11904834453E+02  0.00000000000E+00 0. -1.
</event>
<event>
 7    1  0.4520156E-012  0.5052887E+02  0.7816164E-02  0.1300439E+00
        -11   -1    0    0    0    0  0.00000000000E+00  0.00000000000E+00  0.45593999997E+02  0.45594000000E+02  0.51100000000E-03 0. -1.
         11   -1    0    0    0    0 -0.00000000000E+00 -0.00000000000E+00 -0.45593999997E+02  0.45594000000E+02  0.51100000000E-03 0.  1.
    9900012    2    1    2    0    0 -0.32329819307E+02  0.12826934796E+02 -0.21057478438E+02  0.50528869773E+02  0.30000030162E+02 0.  0.
         12    1    1    2    0    0  0.32329819307E+02 -0.12826934796E+02  0.21057478438E+02  0.40659130227E+02  0.00000000000E+00 0. -1.
         11    1    3    3    0    0 -0.22566121011E+02  0.14649592787E+02 -0.13168724439E+02  0.29954226579E+02  0.51100000000E-03 0. -1.
        -11    1    3    3    0    0 -0.11152806056E+02  0.18193239604E+01 -0.10860529837E+02  0.15673102157E+02  0.51100000000E-03 0.  1.
         12    1    3    3    0    0  0.13891077602E+01 -0.36419819522E+01  0.29717758386E+01  0.49015410377E+01  0.00000000000E+00 0. -1.
</event>
<event>
 7    1  0.6683992E-012  0.5052885E+02  0.7816164E-02  0.1300439E+00
        -11   -1    0    0    0    0  0.00000000000E+00  0.00000000000E+00  0.45593999997E+02  0.45594000000E+02  0.51100000000E-03 0. -1.
         11   -1    0    0    0    0 -0.00000000000E+00 -0.00000000000E+00 -0.45593999997E+02  0.45594000000E+02  0.51100000000E-03 0.  1.
    9900012    2    1    2    0    0  0.27249317726E+02 -0.62136427212E+01  0.29530181353E+02  0.50528852406E+02  0.29999977372E+02 0.  0.
        -12    1    1    2    0    0 -0.27249317726E+02  0.62136427212E+01 -0.29530181353E+02  0.40659147594E+02  0.00000000000E+00 0.  1.
         11    1    3    3    0    0 -0.54854320076E+00  0.29980531310E+00 -0.17675529417E+01  0.18748404017E+01  0.51100000000E-03 0. -1.
        -11    1    3    3    0    0 -0.35643619640E+01 -0.43933729554E+01  0.64938558094E+01  0.86125818237E+01  0.51100000000E-03 0.  1.
         12    1    3    3    0    0  0.31362222890E+02 -0.21200750789E+01  0.24803878485E+02  0.40041430180E+02  0.00000000000E+00 0. -1.
</event>
<event>
 7    1  0.4520156E-012  0.5052886E+02  0.7816164E-02  0.1300439E+00
        -11   -1    0    0    0    0  0.00000000000E+00  0.00000000000E+00  0.45593999997E+02  0.45594000000E+02  0.51100000000E-03 0. -1.
         11   -1    0    0    0    0 -0.00000000000E+00 -0.00000000000E+00 -0.45593999997E+02  0.45594000000E+02  0.51100000000E-03 0.  1.
    9900012    2    1    2    0    0  0.65406049017E+01  0.20470890106E+01  0.40077370047E+02  0.50528859874E+02  0.30000000074E+02 0.  0.
        -12    1    1    2    0    0 -0.65406049017E+01 -0.20470890106E+01 -0.40077370047E+02  0.40659140126E+02  0.00000000000E+00 0.  1.
         11    1    3    3    0    0  0.11999419740E+02 -0.12202760237E+01  0.30909637970E+02  0.33179524821E+02  0.51100000000E-03 0. -1.
        -11    1    3    3    0    0 -0.91617065353E+00 -0.22220040401E+01  0.98990776712E+01  0.10186678046E+02  0.51100000000E-03 0.  1.
        -12    1    3    3    0    0 -0.45426441847E+01  0.54893690743E+01 -0.73134559405E+00  0.71626570070E+01  0.00000000000E+00 0.  1.
</event>
<event>
 7    1  0.4520156E-012  0.5052886E+02  0.7816164E-02  0.1300439E+00
        -11   -1    0    0    0    0  0.00000000000E+00  0.00000000000E+00  0.45593999997E+02  0.45594000000E+02  0.51100000000E-03 0.  1.
         11   -1    0    0    0    0 -0.00000000000E+00 -0.00000000000E+00 -0.45593999997E+02  0.45594000000E+02  0.51100000000E-03 0. -1.
    9900012    2    1    2    0    0 -0.36507806639E+02  0.17750719515E+02 -0.22929103674E+01  0.50528862935E+02  0.30000009378E+02 0.  0.
         12    1    1    2    0    0  0.36507806639E+02 -0.17750719515E+02  0.22929103674E+01  0.40659137065E+02  0.00000000000E+00 0. -1.
         11    1    3    3    0    0 -0.61297650444E+01 -0.55962945237E+01 -0.96001488243E+00  0.83554868639E+01  0.51100000000E-03 0.  1.
        -11    1    3    3    0    0 -0.46229187275E+01  0.74586907856E+01  0.64930738431E+01  0.10916201445E+02  0.51100000000E-03 0. -1.
        -12    1    3    3    0    0 -0.25755122867E+02  0.15888323254E+02 -0.78259693281E+01  0.31257174626E+02  0.00000000000E+00 0.  1.
</event>
<event>
 7    1  0.4520156E-012  0.5052886E+02  0.7816164E-02  0.1300439E+00
        -11   -1    0    0    0    0  0.00000000000E+00  0.00000000000E+00  0.45593999997E+02  0.45594000000E+02  0.51100000000E-03 0.  1.
         11   -1    0    0    0    0 -0.00000000000E+00 -0.00000000000E+00 -0.45593999997E+02  0.45594000000E+02  0.51100000000E-03 0. -1.
    9900012    2    1    2    0    0 -0.15420220864E+02 -0.28314534858E+02  0.24772354708E+02  0.50528860148E+02  0.30000000906E+02 0.  0.
        -12    1    1    2    0    0  0.15420220864E+02  0.28314534858E+02 -0.24772354708E+02  0.40659139852E+02  0.00000000000E+00 0.  1.
         11    1    3    3    0    0 -0.13875148369E+02 -0.20202341688E+02  0.14621165187E+02  0.28538269458E+02  0.51100000000E-03 0. -1.
        -11    1    3    3    0    0 -0.20838586356E+01 -0.18459874754E+01  0.14226510417E+02  0.14496335243E+02  0.51100000000E-03 0.  1.
         12    1    3    3    0    0  0.53878613967E+00 -0.62662056939E+01 -0.40753208964E+01  0.74942554474E+01  0.00000000000E+00 0. -1.
</event>
<event>
 7    1  0.4520156E-012  0.5052886E+02  0.7816164E-02  0.1300439E+00
        -11   -1    0    0    0    0  0.00000000000E+00  0.00000000000E+00  0.45593999997E+02  0.45594000000E+02  0.51100000000E-03 0. -1.
         11   -1    0    0    0    0 -0.00000000000E+00 -0.00000000000E+00 -0.45593999997E+02  0.45594000000E+02  0.51100000000E-03 0.  1.
    9900012    2    1    2    0    0  0.18140180770E+02 -0.31330790814E+02 -0.18506249593E+02  0.50528857296E+02  0.29999992238E+02 0.  0.
         12    1    1    2    0    0 -0.18140180770E+02  0.31330790814E+02  0.18506249593E+02  0.40659142704E+02  0.00000000000E+00 0. -1.
         11    1    3    3    0    0 -0.49528451932E+00  0.76775062763E+00  0.13057090444E+01  0.15936198264E+01  0.51100000000E-03 0. -1.
        -11    1    3    3    0    0 -0.39265682932E+01 -0.61135557083E+01  0.27682804757E+01  0.77754021769E+01  0.51100000000E-03 0.  1.
        -12    1    3    3    0    0  0.22562033582E+02 -0.25984985734E+02 -0.22580239113E+02  0.41159835293E+02  0.00000000000E+00 0.  1.
</event>
<event>
 7    1  0.4520156E-012  0.5052886E+02  0.7816164E-02  0.1300439E+00
        -11   -1    0    0    0    0  0.00000000000E+00  0.00000000000E+00  0.45593999997E+02  0.45594000000E+02  0.51100000000E-03 0. -1.
         11   -1    0    0    0    0 -0.00000000000E+00 -0.00000000000E+00 -0.45593999997E+02  0.45594000000E+02  0.51100000000E-03 0.  1.
    9900012    2    1    2    0    0 -0.44542886293E+01 -0.21313140291E+02  0.34337658020E+02  0.50528863332E+02  0.30000010584E+02 0.  0.
        -12    1    1    2    0    0  0.44542886293E+01  0.21313140291E+02 -0.34337658020E+02  0.40659136668E+02  0.00000000000E+00 0.  1.
         11    1    3    3    0    0 -0.86076871853E+01 -0.92252166590E+01  0.30366605270E+02  0.32883546296E+02  0.51100000000E-03 0. -1.
        -11    1    3    3    0    0  0.28311957615E+01 -0.11197220308E+01  0.57010431795E+01  0.64630751552E+01  0.51100000000E-03 0.  1.
        -12    1    3    3    0    0  0.13222027945E+01 -0.10968201602E+02 -0.17299904294E+01  0.11182241881E+02  0.00000000000E+00 0.  1.
</event>
<event>
 7    1  0.4520156E-012  0.5052886E+02  0.7816164E-02  0.1300439E+00
        -11   -1    0    0    0    0  0.00000000000E+00  0.00000000000E+00  0.45593999997E+02  0.45594000000E+02  0.51100000000E-03 0. -1.
         11   -1    0    0    0    0 -0.00000000000E+00 -0.00000000000E+00 -0.45593999997E+02  0.45594000000E+02  0.51100000000E-03 0.  1.
    9900012    2    1    2    0    0  0.33332205213E+02  0.10943384839E+02 -0.20551689184E+02  0.50528861981E+02  0.30000006478E+02 0.  0.
         12    1    1    2    0    0 -0.33332205213E+02 -0.10943384839E+02  0.20551689184E+02  0.40659138019E+02  0.00000000000E+00 0. -1.
         11    1    3    3    0    0  0.12661702443E+02  0.91495731500E+01 -0.78160052509E+01  0.17467779937E+02  0.51100000000E-03 0. -1.
        -11    1    3    3    0    0  0.11087513468E+02  0.12069307786E+02 -0.79703915007E+01  0.18224387130E+02  0.51100000000E-03 0.  1.
         12    1    3    3    0    0  0.95829893023E+01 -0.10275496097E+02 -0.47652924329E+01  0.14836694914E+02  0.00000000000E+00 0. -1.
</event>
<event>
 7    1  0.4520156E-012  0.5052884E+02  0.7816164E-02  0.1300439E+00
        -11   -1    0    0    0    0  0.00000000000E+00  0.00000000000E+00  0.45593999997E+02  0.45594000000E+02  0.51100000000E-03 0.  1.
         11   -1    0    0    0    0 -0.00000000000E+00 -0.00000000000E+00 -0.45593999997E+02  0.45594000000E+02  0.51100000000E-03 0. -1.
    9900012    2    1    2    0    0 -0.34845405516E+02  0.13085096132E+02 -0.16362929133E+02  0.50528837734E+02  0.29999932777E+02 0.  0.
         12    1    1    2    0    0  0.34845405516E+02 -0.13085096132E+02  0.16362929133E+02  0.40659162266E+02  0.00000000000E+00 0. -1.
         11    1    3    3    0    0 -0.14834922983E+02  0.93711403095E+01 -0.38842875372E+01  0.17971669387E+02  0.51100000000E-03 0.  1.
        -11    1    3    3    0    0  0.48512436559E+01  0.16111880543E+01 -0.18332906483E+01  0.54306028043E+01  0.51100000000E-03 0. -1.
         12    1    3    3    0    0 -0.24861726189E+02  0.21027677678E+01 -0.10645350947E+02  0.27126565543E+02  0.00000000000E+00 0. -1.
</event>
<event>
 7    1  0.4520156E-012  0.5052884E+02  0.7816164E-02  0.1300439E+00
        -11   -1    0    0    0    0  0.00000000000E+00  0.00000000000E+00  0.45593999997E+02  0.45594000000E+02  0.51100000000E-03 0. -1.
         11   -1    0    0    0    0 -0.00000000000E+00 -0.00000000000E+00 -0.45593999997E+02  0.45594000000E+02  0.51100000000E-03 0.  1.
    9900012    2    1    2    0    0 -0.10593242000E+01 -0.35393154525E+01 -0.40490963153E+02  0.50528843360E+02  0.29999949876E+02 0.  0.
         12    1    1    2    0    0  0.10593242000E+01  0.35393154525E+01  0.40490963153E+02  0.40659156640E+02  0.00000000000E+00 0. -1.
         11    1    3    3    0    0  0.91001447040E+01 -0.41504351927E+01 -0.10518249642E+02  0.14514555512E+02  0.51100000000E-03 0. -1.
        -11    1    3    3    0    0 -0.79791588148E+01 -0.77622293521E+01 -0.19238303553E+02  0.22226819470E+02  0.51100000000E-03 0.  1.
         12    1    3    3    0    0 -0.21803100892E+01  0.83733490923E+01 -0.10734409958E+02  0.13787468377E+02  0.00000000000E+00 0. -1.
</event>
<event>
 7    1  0.4520156E-012  0.5052884E+02  0.7816164E-02  0.1300439E+00
        -11   -1    0    0    0    0  0.00000000000E+00  0.00000000000E+00  0.45593999997E+02  0.45594000000E+02  0.51100000000E-03 0. -1.
         11   -1    0    0    0    0 -0.00000000000E+00 -0.00000000000E+00 -0.45593999997E+02  0.45594000000E+02  0.51100000000E-03 0.  1.
    9900012    2    1    2    0    0  0.20751097968E+02  0.95888735234E+01  0.33624590816E+02  0.50528835352E+02  0.29999925536E+02 0.  0.
        -12    1    1    2    0    0 -0.20751097968E+02 -0.95888735234E+01 -0.33624590816E+02  0.40659164648E+02  0.00000000000E+00 0.  1.
         11    1    3    3    0    0  0.34709806617E+01  0.64407037428E+01  0.69405332558E+01  0.10084709891E+02  0.51100000000E-03 0. -1.
        -11    1    3    3    0    0 -0.25496206868E+01  0.47033648963E+01  0.17932136770E+02  0.18713196851E+02  0.51100000000E-03 0.  1.
         12    1    3    3    0    0  0.19829737993E+02 -0.15551951157E+01  0.87519207902E+01  0.21730928610E+02  0.00000000000E+00 0. -1.
</event>
<event>
 7    1  0.4520156E-012  0.5052886E+02  0.7816164E-02  0.1300439E+00
        -11   -1    0    0    0    0  0.00000000000E+00  0.00000000000E+00  0.45593999997E+02  0.45594000000E+02  0.51100000000E-03 0. -1.
         11   -1    0    0    0    0 -0.00000000000E+00 -0.00000000000E+00 -0.45593999997E+02  0.45594000000E+02  0.51100000000E-03 0.  1.
    9900012    2    1    2    0    0 -0.30022703883E+02  0.19605128260E+02 -0.19168768951E+02  0.50528861967E+02  0.30000006433E+02 0.  0.
         12    1    1    2    0    0  0.30022703883E+02 -0.19605128260E+02  0.19168768951E+02  0.40659138033E+02  0.00000000000E+00 0. -1.
         11    1    3    3    0    0 -0.11072009449E+02  0.93603570826E-01  0.30443975100E+01  0.11483314475E+02  0.51100000000E-03 0. -1.
        -11    1    3    3    0    0 -0.15378035012E+02  0.65135417253E+01 -0.55199590406E+01  0.17589205062E+02  0.51100000000E-03 0.  1.
         12    1    3    3    0    0 -0.35726594215E+01  0.12997982964E+02 -0.16693207420E+02  0.21456342429E+02  0.00000000000E+00 0. -1.
</event>
<event>
 7    1  0.4520156E-012  0.5052887E+02  0.7816164E-02  0.1300439E+00
        -11   -1    0    0    0    0  0.00000000000E+00  0.00000000000E+00  0.45593999997E+02  0.45594000000E+02  0.51100000000E-03 0. -1.
         11   -1    0    0    0    0 -0.00000000000E+00 -0.00000000000E+00 -0.45593999997E+02  0.45594000000E+02  0.51100000000E-03 0.  1.
    9900012    2    1    2    0    0 -0.25884298050E+02 -0.12363323140E+02  0.28815202114E+02  0.50528874118E+02  0.30000043369E+02 0.  0.
        -12    1    1    2    0    0  0.25884298050E+02  0.12363323140E+02 -0.28815202114E+02  0.40659125882E+02  0.00000000000E+00 0.  1.
         11    1    3    3    0    0 -0.14060424522E+02  0.25112787457E+01  0.18244769561E+01  0.14398985211E+02  0.51100000000E-03 0. -1.
        -11    1    3    3    0    0 -0.26907439111E+01  0.24714593137E+00 -0.11233167384E+01  0.29262646262E+01  0.51100000000E-03 0.  1.
         12    1    3    3    0    0 -0.91331296171E+01 -0.15121747817E+02  0.28114041896E+02  0.33203624281E+02  0.00000000000E+00 0. -1.
</event>
<event>
 7    1  0.4520156E-012  0.5052888E+02  0.7816164E-02  0.1300439E+00
        -11   -1    0    0    0    0  0.00000000000E+00  0.00000000000E+00  0.45593999997E+02  0.45594000000E+02  0.51100000000E-03 0. -1.
         11   -1    0    0    0    0 -0.00000000000E+00 -0.00000000000E+00 -0.45593999997E+02  0.45594000000E+02  0.51100000000E-03 0.  1.
    9900012    2    1    2    0    0 -0.56073658300E+01  0.98096708013E+01 -0.39057545928E+02  0.50528879416E+02  0.30000059472E+02 0.  0.
         12    1    1    2    0    0  0.56073658300E+01 -0.98096708013E+01  0.39057545928E+02  0.40659120584E+02  0.00000000000E+00 0. -1.
         11    1    3    3    0    0 -0.77234325623E+01  0.30856193023E+01 -0.48691770780E+01  0.96374967030E+01  0.51100000000E-03 0. -1.
        -11    1    3    3    0    0 -0.15564621569E+01  0.86631967489E+01 -0.28102880798E+01  0.92396575537E+01  0.51100000000E-03 0.  1.
         12    1    3    3    0    0  0.36725288892E+01 -0.19391452499E+01 -0.31378080770E+02  0.31651725159E+02  0.00000000000E+00 0. -1.
</event>
<event>
 7    1  0.4520156E-012  0.5052884E+02  0.7816164E-02  0.1300439E+00
        -11   -1    0    0    0    0  0.00000000000E+00  0.00000000000E+00  0.45593999997E+02  0.45594000000E+02  0.51100000000E-03 0. -1.
         11   -1    0    0    0    0 -0.00000000000E+00 -0.00000000000E+00 -0.45593999997E+02  0.45594000000E+02  0.51100000000E-03 0.  1.
    9900012    2    1    2    0    0 -0.25347022473E+02 -0.20741508232E+02 -0.24093260621E+02  0.50528844581E+02  0.29999953589E+02 0.  0.
         12    1    1    2    0    0  0.25347022473E+02  0.20741508232E+02  0.24093260621E+02  0.40659155419E+02  0.00000000000E+00 0. -1.
         11    1    3    3    0    0 -0.17039884121E+02 -0.17900979621E+01 -0.84520276099E+01  0.19104943668E+02  0.51100000000E-03 0. -1.
        -11    1    3    3    0    0 -0.13506346146E+02 -0.14940755687E+02 -0.89201893879E+01  0.22027649572E+02  0.51100000000E-03 0.  1.
         12    1    3    3    0    0  0.51992077938E+01 -0.40106545830E+01 -0.67210436234E+01  0.93962513406E+01  0.00000000000E+00 0. -1.
</event>
<event>
 7    1  0.4520156E-012  0.5052885E+02  0.7816164E-02  0.1300439E+00
        -11   -1    0    0    0    0  0.00000000000E+00  0.00000000000E+00  0.45593999997E+02  0.45594000000E+02  0.51100000000E-03 0. -1.
         11   -1    0    0    0    0 -0.00000000000E+00 -0.00000000000E+00 -0.45593999997E+02  0.45594000000E+02  0.51100000000E-03 0.  1.
    9900012    2    1    2    0    0  0.37665851090E+02 -0.42232603950E+01  0.14717806983E+02  0.50528854545E+02  0.29999983876E+02 0.  0.
        -12    1    1    2    0    0 -0.37665851090E+02  0.42232603950E+01 -0.14717806983E+02  0.40659145455E+02  0.00000000000E+00 0.  1.
         11    1    3    3    0    0  0.42120596563E+01  0.24931330998E+01 -0.32740673489E+01  0.58886905563E+01  0.51100000000E-03 0. -1.
        -11    1    3    3    0    0  0.47406195552E+01  0.22271523610E+01 -0.46436181276E+01  0.69997764952E+01  0.51100000000E-03 0.  1.
         12    1    3    3    0    0  0.28713171879E+02 -0.89435458557E+01  0.22635492459E+02  0.37640387494E+02  0.00000000000E+00 0. -1.
</event>
<event>
 7    1  0.4520156E-012  0.5052887E+02  0.7816164E-02  0.1300439E+00
        -11   -1    0    0    0    0  0.00000000000E+00  0.00000000000E+00  0.45593999997E+02  0.45594000000E+02  0.51100000000E-03 0. -1.
         11   -1    0    0    0    0 -0.00000000000E+00 -0.00000000000E+00 -0.45593999997E+02  0.45594000000E+02  0.51100000000E-03 0.  1.
    9900012    2    1    2    0    0  0.30005175933E+01 -0.18067361123E+02  0.36300585341E+02  0.50528866465E+02  0.30000020106E+02 0.  0.
        -12    1    1    2    0    0 -0.30005175933E+01  0.18067361123E+02 -0.36300585341E+02  0.40659133535E+02  0.00000000000E+00 0.  1.
         11    1    3    3    0    0 -0.43153268217E+00  0.11576292705E+01  0.12362071160E+02  0.12423652024E+02  0.51100000000E-03 0. -1.
        -11    1    3    3    0    0  0.89498697286E+01  0.50428057212E+00  0.93674550790E+01  0.12965480399E+02  0.51100000000E-03 0.  1.
        -12    1    3    3    0    0 -0.55178194532E+01 -0.19729270966E+02  0.14571059102E+02  0.25139734042E+02  0.00000000000E+00 0.  1.
</event>
<event>
 7    1  0.4520156E-012  0.5052886E+02  0.7816164E-02  0.1300439E+00
        -11   -1    0    0    0    0  0.00000000000E+00  0.00000000000E+00  0.45593999997E+02  0.45594000000E+02  0.51100000000E-03 0. -1.
         11   -1    0    0    0    0 -0.00000000000E+00 -0.00000000000E+00 -0.45593999997E+02  0.45594000000E+02  0.51100000000E-03 0.  1.
    9900012    2    1    2    0    0  0.41201703461E+01  0.31436956431E+02 -0.25454026314E+02  0.50528862172E+02  0.30000007057E+02 0.  0.
         12    1    1    2    0    0 -0.41201703461E+01 -0.31436956431E+02  0.25454026314E+02  0.40659137828E+02  0.00000000000E+00 0. -1.
         11    1    3    3    0    0 -0.14217752698E+01  0.86896972221E+01 -0.24539812335E+01  0.91408044988E+01  0.51100000000E-03 0. -1.
        -11    1    3    3    0    0 -0.69384876166E+01  0.72885741578E+01  0.11354935096E+01  0.10126957560E+02  0.51100000000E-03 0.  1.
         12    1    3    3    0    0  0.12480433233E+02  0.15458685051E+02 -0.24135538590E+02  0.31261100112E+02  0.00000000000E+00 0. -1.
</event>
<event>
 7    1  0.4520156E-012  0.5052886E+02  0.7816164E-02  0.1300439E+00
        -11   -1    0    0    0    0  0.00000000000E+00  0.00000000000E+00  0.45593999997E+02  0.45594000000E+02  0.51100000000E-03 0. -1.
         11   -1    0    0    0    0 -0.00000000000E+00 -0.00000000000E+00 -0.45593999997E+02  0.45594000000E+02  0.51100000000E-03 0.  1.
    9900012    2    1    2    0    0 -0.23912767177E+02 -0.27139512003E+02  0.18568581552E+02  0.50528858756E+02  0.29999996676E+02 0.  0.
        -12    1    1    2    0    0  0.23912767177E+02  0.27139512003E+02 -0.18568581552E+02  0.40659141244E+02  0.00000000000E+00 0.  1.
         11    1    3    3    0    0 -0.12812230670E+02 -0.12098371969E+02  0.73079504855E+01  0.19076949431E+02  0.51100000000E-03 0. -1.
        -11    1    3    3    0    0  0.37709573923E+01 -0.13955377844E+02  0.55180277926E+01  0.15473245341E+02  0.51100000000E-03 0.  1.
         12    1    3    3    0    0 -0.14871493900E+02 -0.10857621898E+01  0.57426032738E+01  0.15978663984E+02  0.00000000000E+00 0. -1.
</event>
<event>
 7    1  0.4520156E-012  0.5052887E+02  0.7816164E-02  0.1300439E+00
        -11   -1    0    0    0    0  0.00000000000E+00  0.00000000000E+00  0.45593999997E+02  0.45594000000E+02  0.51100000000E-03 0. -1.
         11   -1    0    0    0    0 -0.00000000000E+00 -0.00000000000E+00 -0.45593999997E+02  0.45594000000E+02  0.51100000000E-03 0.  1.
    9900012    2    1    2    0    0 -0.69060095977E+01  0.36098219401E+02 -0.17389372536E+02  0.50528872000E+02  0.30000036931E+02 0.  0.
         12    1    1    2    0    0  0.69060095977E+01 -0.36098219401E+02  0.17389372536E+02  0.40659128000E+02  0.00000000000E+00 0. -1.
         11    1    3    3    0    0 -0.28510785698E+01  0.20269717230E+01 -0.65135629536E-01  0.34987864022E+01  0.51100000000E-03 0. -1.
        -11    1    3    3    0    0 -0.12550427840E+02  0.30375566182E+02 -0.78743719282E+01  0.33796360653E+02  0.51100000000E-03 0.  1.
         12    1    3    3    0    0  0.84954968120E+01  0.36956814963E+01 -0.94498649788E+01  0.13233724945E+02  0.00000000000E+00 0. -1.
</event>
<event>
 7    1  0.4520156E-012  0.5052886E+02  0.7816164E-02  0.1300439E+00
        -11   -1    0    0    0    0  0.00000000000E+00  0.00000000000E+00  0.45593999997E+02  0.45594000000E+02  0.51100000000E-03 0.  1.
         11   -1    0    0    0    0 -0.00000000000E+00 -0.00000000000E+00 -0.45593999997E+02  0.45594000000E+02  0.51100000000E-03 0. -1.
    9900012    2    1    2    0    0  0.19942164308E+02 -0.30667419936E+02  0.17747814338E+02  0.50528862324E+02  0.30000007519E+02 0.  0.
         12    1    1    2    0    0 -0.19942164308E+02  0.30667419936E+02 -0.17747814338E+02  0.40659137676E+02  0.00000000000E+00 0. -1.
         11    1    3    3    0    0  0.62504167334E+00 -0.76940817776E+01  0.10505651031E+02  0.13036804645E+02  0.51100000000E-03 0. -1.
        -11    1    3    3    0    0  0.44470097292E+00  0.28247701231E+01  0.46032089902E+01  0.54190975699E+01  0.51100000000E-03 0.  1.
        -12    1    3    3    0    0  0.18872421662E+02 -0.25798108281E+02  0.26389543165E+01  0.32072960109E+02  0.00000000000E+00 0.  1.
</event>
<event>
 7    1  0.4520156E-012  0.5052886E+02  0.7816164E-02  0.1300439E+00
        -11   -1    0    0    0    0  0.00000000000E+00  0.00000000000E+00  0.45593999997E+02  0.45594000000E+02  0.51100000000E-03 0. -1.
         11   -1    0    0    0    0 -0.00000000000E+00 -0.00000000000E+00 -0.45593999997E+02  0.45594000000E+02  0.51100000000E-03 0.  1.
    9900012    2    1    2    0    0 -0.27279615906E+02 -0.37409293848E+01 -0.29916450249E+02  0.50528855984E+02  0.29999988249E+02 0.  0.
         12    1    1    2    0    0  0.27279615906E+02  0.37409293848E+01  0.29916450249E+02  0.40659144016E+02  0.00000000000E+00 0. -1.
         11    1    3    3    0    0 -0.79615848566E+01  0.52283944373E+01 -0.11364686195E+01  0.95924190383E+01  0.51100000000E-03 0. -1.
        -11    1    3    3    0    0 -0.47669540037E+01  0.56864792172E+01 -0.12910472916E+02  0.14890943809E+02  0.51100000000E-03 0.  1.
         12    1    3    3    0    0 -0.14551077046E+02 -0.14655803039E+02 -0.15869508713E+02  0.26045493136E+02  0.00000000000E+00 0. -1.
</event>
<event>
 7    1  0.4520156E-012  0.5052887E+02  0.7816164E-02  0.1300439E+00
        -11   -1    0    0    0    0  0.00000000000E+00  0.00000000000E+00  0.45593999997E+02  0.45594000000E+02  0.51100000000E-03 0. -1.
         11   -1    0    0    0    0 -0.00000000000E+00 -0.00000000000E+00 -0.45593999997E+02  0.45594000000E+02  0.51100000000E-03 0.  1.
    9900012    2    1    2    0    0 -0.39932302160E+01 -0.22965075968E+02  0.33314021695E+02  0.50528872571E+02  0.30000038668E+02 0.  0.
        -12    1    1    2    0    0  0.39932302160E+01  0.22965075968E+02 -0.33314021695E+02  0.40659127429E+02  0.00000000000E+00 0.  1.
         11    1    3    3    0    0 -0.32527133326E+01 -0.31781877519E+01  0.14047864620E+02  0.14765619596E+02  0.51100000000E-03 0. -1.
        -11    1    3    3    0    0 -0.54516561728E+01  0.33891140363E+01  0.32029815812E+01  0.71739626600E+01  0.51100000000E-03 0.  1.
        -12    1    3    3    0    0  0.47111392893E+01 -0.23176002252E+02  0.16063175495E+02  0.28589290316E+02  0.00000000000E+00 0.  1.
</event>
<event>
 7    1  0.4520156E-012  0.5052886E+02  0.7816164E-02  0.1300439E+00
        -11   -1    0    0    0    0  0.00000000000E+00  0.00000000000E+00  0.45593999997E+02  0.45594000000E+02  0.51100000000E-03 0. -1.
         11   -1    0    0    0    0 -0.00000000000E+00 -0.00000000000E+00 -0.45593999997E+02  0.45594000000E+02  0.51100000000E-03 0.  1.
    9900012    2    1    2    0    0 -0.24984324400E+02  0.90139328826E+00 -0.32064569802E+02  0.50528860656E+02  0.30000002450E+02 0.  0.
         12    1    1    2    0    0  0.24984324400E+02 -0.90139328826E+00  0.32064569802E+02  0.40659139344E+02  0.00000000000E+00 0. -1.
         11    1    3    3    0    0 -0.26016498619E+00 -0.10709798235E+01 -0.13460024064E+02  0.13505070591E+02  0.51100000000E-03 0. -1.
        -11    1    3    3    0    0 -0.24118043030E+02  0.13218673173E+01 -0.22510801113E+02  0.33017624079E+02  0.51100000000E-03 0.  1.
         12    1    3    3    0    0 -0.60611638342E+00  0.65050579451E+00  0.39062553745E+01  0.40061659863E+01  0.00000000000E+00 0. -1.
</event>
<event>
 7    1  0.4520156E-012  0.5052886E+02  0.7816164E-02  0.1300439E+00
        -11   -1    0    0    0    0  0.00000000000E+00  0.00000000000E+00  0.45593999997E+02  0.45594000000E+02  0.51100000000E-03 0. -1.
         11   -1    0    0    0    0 -0.00000000000E+00 -0.00000000000E+00 -0.45593999997E+02  0.45594000000E+02  0.51100000000E-03 0.  1.
    9900012    2    1    2    0    0  0.28035982661E+01 -0.22618916326E+02 -0.33670312680E+02  0.50528862098E+02  0.30000006832E+02 0.  0.
         12    1    1    2    0    0 -0.28035982661E+01  0.22618916326E+02  0.33670312680E+02  0.40659137902E+02  0.00000000000E+00 0. -1.
         11    1    3    3    0    0 -0.19274968623E+01 -0.73440993943E+01 -0.18389905860E+02  0.19895720089E+02  0.51100000000E-03 0. -1.
        -11    1    3    3    0    0 -0.55155912440E+01 -0.11534808239E+02 -0.15016173284E+02  0.19722043713E+02  0.51100000000E-03 0.  1.
         12    1    3    3    0    0  0.10246686372E+02 -0.37400086934E+01 -0.26423353518E+00  0.10911098295E+02  0.00000000000E+00 0. -1.
</event>
<event>
 7    1  0.4520156E-012  0.5052887E+02  0.7816164E-02  0.1300439E+00
        -11   -1    0    0    0    0  0.00000000000E+00  0.00000000000E+00  0.45593999997E+02  0.45594000000E+02  0.51100000000E-03 0. -1.
         11   -1    0    0    0    0 -0.00000000000E+00 -0.00000000000E+00 -0.45593999997E+02  0.45594000000E+02  0.51100000000E-03 0.  1.
    9900012    2    1    2    0    0  0.33174864630E+02  0.10708872408E+02  0.20926385848E+02  0.50528865526E+02  0.30000017253E+02 0.  0.
        -12    1    1    2    0    0 -0.33174864630E+02 -0.10708872408E+02 -0.20926385848E+02  0.40659134474E+02  0.00000000000E+00 0.  1.
         11    1    3    3    0    0  0.71223620114E+01  0.92250709414E+01 -0.26536154051E+01  0.11952892933E+02  0.51100000000E-03 0. -1.
        -11    1    3    3    0    0  0.22811371853E+02  0.31080113638E+01  0.11058732618E+02  0.25540438286E+02  0.51100000000E-03 0.  1.
        -12    1    3    3    0    0  0.32411307658E+01 -0.16242098969E+01  0.12521268635E+02  0.13035534307E+02  0.00000000000E+00 0.  1.
</event>
<event>
 7    1  0.4520156E-012  0.5052886E+02  0.7816164E-02  0.1300439E+00
        -11   -1    0    0    0    0  0.00000000000E+00  0.00000000000E+00  0.45593999997E+02  0.45594000000E+02  0.51100000000E-03 0. -1.
         11   -1    0    0    0    0 -0.00000000000E+00 -0.00000000000E+00 -0.45593999997E+02  0.45594000000E+02  0.51100000000E-03 0.  1.
    9900012    2    1    2    0    0 -0.82297150831E+01 -0.19735723362E+01 -0.39768612365E+02  0.50528859237E+02  0.29999998137E+02 0.  0.
         12    1    1    2    0    0  0.82297150831E+01  0.19735723362E+01  0.39768612365E+02  0.40659140763E+02  0.00000000000E+00 0. -1.
         11    1    3    3    0    0  0.41864886707E+01 -0.27948185517E+01 -0.26891393380E+01  0.57069404034E+01  0.51100000000E-03 0. -1.
        -11    1    3    3    0    0 -0.59326262371E+01 -0.66149834787E+01 -0.30552640810E+01  0.93962066472E+01  0.51100000000E-03 0.  1.
        -12    1    3    3    0    0 -0.64835775168E+01  0.74362296942E+01 -0.34024208946E+02  0.35425712186E+02  0.00000000000E+00 0.  1.
</event>
<event>
 7    1  0.4520156E-012  0.5052888E+02  0.7816164E-02  0.1300439E+00
        -11   -1    0    0    0    0  0.00000000000E+00  0.00000000000E+00  0.45593999997E+02  0.45594000000E+02  0.51100000000E-03 0. -1.
         11   -1    0    0    0    0 -0.00000000000E+00 -0.00000000000E+00 -0.45593999997E+02  0.45594000000E+02  0.51100000000E-03 0.  1.
    9900012    2    1    2    0    0  0.37972981607E+02 -0.11654106948E+02  0.86832307729E+01  0.50528880020E+02  0.30000061308E+02 0.  0.
        -12    1    1    2    0    0 -0.37972981607E+02  0.11654106948E+02 -0.86832307729E+01  0.40659119980E+02  0.00000000000E+00 0.  1.
         11    1    3    3    0    0  0.16854466631E+02 -0.73193076883E+01  0.12353214923E+02  0.22141527265E+02  0.51100000000E-03 0. -1.
        -11    1    3    3    0    0  0.21761538024E+02 -0.77308833118E+01 -0.64207656076E+01  0.23969925432E+02  0.51100000000E-03 0.  1.
        -12    1    3    3    0    0 -0.64302304745E+00  0.33960840517E+01  0.27507814575E+01  0.44174273229E+01  0.00000000000E+00 0.  1.
</event>
<event>
 7    1  0.4520156E-012  0.5052886E+02  0.7816164E-02  0.1300439E+00
        -11   -1    0    0    0    0  0.00000000000E+00  0.00000000000E+00  0.45593999997E+02  0.45594000000E+02  0.51100000000E-03 0.  1.
         11   -1    0    0    0    0 -0.00000000000E+00 -0.00000000000E+00 -0.45593999997E+02  0.45594000000E+02  0.51100000000E-03 0. -1.
    9900012    2    1    2    0    0  0.31287776925E+02 -0.11668528639E+02  0.23196679969E+02  0.50528861948E+02  0.30000006379E+02 0.  0.
        -12    1    1    2    0    0 -0.31287776925E+02  0.11668528639E+02 -0.23196679969E+02  0.40659138052E+02  0.00000000000E+00 0.  1.
         11    1    3    3    0    0 -0.42124645198E+00 -0.17514344562E+01  0.59351130313E+01  0.62024622678E+01  0.51100000000E-03 0. -1.
        -11    1    3    3    0    0  0.31162682558E+01 -0.96967720768E+01  0.11122107090E+02  0.15081106821E+02  0.51100000000E-03 0.  1.
         12    1    3    3    0    0  0.28592755121E+02 -0.22032210627E+00  0.61394598475E+01  0.29245292860E+02  0.00000000000E+00 0. -1.
</event>
<event>
 7    1  0.4520156E-012  0.5052886E+02  0.7816164E-02  0.1300439E+00
        -11   -1    0    0    0    0  0.00000000000E+00  0.00000000000E+00  0.45593999997E+02  0.45594000000E+02  0.51100000000E-03 0.  1.
         11   -1    0    0    0    0 -0.00000000000E+00 -0.00000000000E+00 -0.45593999997E+02  0.45594000000E+02  0.51100000000E-03 0. -1.
    9900012    2    1    2    0    0  0.36277240065E+02  0.17221304186E+02  0.63681880833E+01  0.50528864691E+02  0.30000014714E+02 0.  0.
        -12    1    1    2    0    0 -0.36277240065E+02 -0.17221304186E+02 -0.63681880833E+01  0.40659135309E+02  0.00000000000E+00 0.  1.
         11    1    3    3    0    0  0.21412263533E+02  0.16411963864E+02  0.35276199054E+01  0.27208118089E+02  0.51100000000E-03 0. -1.
        -11    1    3    3    0    0  0.10987769109E+02  0.75213931219E+01  0.64204763743E+01  0.14782589138E+02  0.51100000000E-03 0.  1.
        -12    1    3    3    0    0  0.38772074233E+01 -0.67120527997E+01 -0.35799081963E+01  0.85381574642E+01  0.00000000000E+00 0.  1.
</event>
<event>
 7    1  0.4520156E-012  0.5052889E+02  0.7816164E-02  0.1300439E+00
        -11   -1    0    0    0    0  0.00000000000E+00  0.00000000000E+00  0.45593999997E+02  0.45594000000E+02  0.51100000000E-03 0.  1.
         11   -1    0    0    0    0 -0.00000000000E+00 -0.00000000000E+00 -0.45593999997E+02  0.45594000000E+02  0.51100000000E-03 0. -1.
    9900012    2    1    2    0    0  0.32646742945E+02 -0.13474981836E+02 -0.20143942240E+02  0.50528888237E+02  0.30000086284E+02 0.  0.
         12    1    1    2    0    0 -0.32646742945E+02  0.13474981836E+02  0.20143942240E+02  0.40659111763E+02  0.00000000000E+00 0. -1.
         11    1    3    3    0    0  0.76086104847E+01 -0.99592695340E+01  0.16772189767E+01  0.12644803949E+02  0.51100000000E-03 0. -1.
        -11    1    3    3    0    0  0.74916889907E+01 -0.20235641332E+01  0.22310088708E+01  0.80745041072E+01  0.51100000000E-03 0.  1.
         12    1    3    3    0    0  0.17546443470E+02 -0.14921481686E+01 -0.24052170088E+02  0.29809580180E+02  0.00000000000E+00 0. -1.
</event>
<event>
 7    1  0.4520156E-012  0.5052886E+02  0.7816164E-02  0.1300439E+00
        -11   -1    0    0    0    0  0.00000000000E+00  0.00000000000E+00  0.45593999997E+02  0.45594000000E+02  0.51100000000E-03 0. -1.
         11   -1    0    0    0    0 -0.00000000000E+00 -0.00000000000E+00 -0.45593999997E+02  0.45594000000E+02  0.51100000000E-03 0.  1.
    9900012    2    1    2    0    0  0.29478969904E+02  0.25867197227E+02 -0.10725865823E+02  0.50528858880E+02  0.29999997051E+02 0.  0.
         12    1    1    2    0    0 -0.29478969904E+02 -0.25867197227E+02  0.10725865823E+02  0.40659141120E+02  0.00000000000E+00 0. -1.
         11    1    3    3    0    0  0.16609351010E+02  0.26881145383E+02 -0.37299452382E+01  0.31817903920E+02  0.51100000000E-03 0.  1.
        -11    1    3    3    0    0  0.11348758612E+02 -0.12187150103E+01 -0.10104624292E+02  0.15244114295E+02  0.51100000000E-03 0. -1.
        -12    1    3    3    0    0  0.15208602820E+01  0.20476685408E+00  0.31087037067E+01  0.34668406652E+01  0.00000000000E+00 0.  1.
</event>
<event>
 7    1  0.4520156E-012  0.5052887E+02  0.7816164E-02  0.1300439E+00
        -11   -1    0    0    0    0  0.00000000000E+00  0.00000000000E+00  0.45593999997E+02  0.45594000000E+02  0.51100000000E-03 0. -1.
         11   -1    0    0    0    0 -0.00000000000E+00 -0.00000000000E+00 -0.45593999997E+02  0.45594000000E+02  0.51100000000E-03 0.  1.
    9900012    2    1    2    0    0 -0.76563677540E+01 -0.36769915174E+02 -0.15572999909E+02  0.50528868734E+02  0.30000027005E+02 0.  0.
         12    1    1    2    0    0  0.76563677540E+01  0.36769915174E+02  0.15572999909E+02  0.40659131266E+02  0.00000000000E+00 0. -1.
         11    1    3    3    0    0  0.75859917607E+01 -0.14155555421E+02 -0.92550048516E+01  0.18535968692E+02  0.51100000000E-03 0. -1.
        -11    1    3    3    0    0 -0.12548004362E+01 -0.13751055503E+02 -0.68733599726E+01  0.15424303199E+02  0.51100000000E-03 0.  1.
         12    1    3    3    0    0 -0.13987559079E+02 -0.88633042495E+01  0.55536491476E+00  0.16568596844E+02  0.00000000000E+00 0. -1.
</event>
<event>
 7    1  0.4520156E-012  0.5052884E+02  0.7816164E-02  0.1300439E+00
        -11   -1    0    0    0    0  0.00000000000E+00  0.00000000000E+00  0.45593999997E+02  0.45594000000E+02  0.51100000000E-03 0. -1.
         11   -1    0    0    0    0 -0.00000000000E+00 -0.00000000000E+00 -0.45593999997E+02  0.45594000000E+02  0.51100000000E-03 0.  1.
    9900012    2    1    2    0    0  0.16936314373E+02 -0.86735052716E+00  0.36953707513E+02  0.50528836944E+02  0.29999930374E+02 0.  0.
        -12    1    1    2    0    0 -0.16936314373E+02  0.86735052716E+00 -0.36953707513E+02  0.40659163056E+02  0.00000000000E+00 0.  1.
         11    1    3    3    0    0 -0.23113776596E-01 -0.60199746643E+00  0.20118531573E+02  0.20127549481E+02  0.51100000000E-03 0. -1.
        -11    1    3    3    0    0  0.78933393852E+01  0.40847368241E+01  0.18199273207E+02  0.20253479382E+02  0.51100000000E-03 0.  1.
        -12    1    3    3    0    0  0.90660887643E+01 -0.43500898849E+01 -0.13640972666E+01  0.10147808081E+02  0.00000000000E+00 0.  1.
</event>
<event>
 7    1  0.4520156E-012  0.5052887E+02  0.7816164E-02  0.1300439E+00
        -11   -1    0    0    0    0  0.00000000000E+00  0.00000000000E+00  0.45593999997E+02  0.45594000000E+02  0.51100000000E-03 0. -1.
         11   -1    0    0    0    0 -0.00000000000E+00 -0.00000000000E+00 -0.45593999997E+02  0.45594000000E+02  0.51100000000E-03 0.  1.
    9900012    2    1    2    0    0 -0.35613409645E+01  0.25704821721E+02  0.31300866000E+02  0.50528865460E+02  0.30000017053E+02 0.  0.
        -12    1    1    2    0    0  0.35613409645E+01 -0.25704821721E+02 -0.31300866000E+02  0.40659134540E+02  0.00000000000E+00 0.  1.
         11    1    3    3    0    0 -0.72212422678E+01  0.12839777110E+02  0.20725218532E+02  0.25427168533E+02  0.51100000000E-03 0. -1.
        -11    1    3    3    0    0 -0.68234933846E+01  0.13610286143E+01  0.50034097461E+01  0.85700974444E+01  0.51100000000E-03 0.  1.
        -12    1    3    3    0    0  0.10483394688E+02  0.11504015997E+02  0.55722377219E+01  0.16531599483E+02  0.00000000000E+00 0.  1.
</event>
<event>
 7    1  0.4520156E-012  0.5052890E+02  0.7816164E-02  0.1300439E+00
        -11   -1    0    0    0    0  0.00000000000E+00  0.00000000000E+00  0.45593999997E+02  0.45594000000E+02  0.51100000000E-03 0. -1.
         11   -1    0    0    0    0 -0.00000000000E+00 -0.00000000000E+00 -0.45593999997E+02  0.45594000000E+02  0.51100000000E-03 0.  1.
    9900012    2    1    2    0    0 -0.19790234187E+02  0.59862463019E+01 -0.35009625518E+02  0.50528900245E+02  0.30000122785E+02 0.  0.
         12    1    1    2    0    0  0.19790234187E+02 -0.59862463019E+01  0.35009625518E+02  0.40659099755E+02  0.00000000000E+00 0. -1.
         11    1    3    3    0    0 -0.12512654192E+02  0.40355771195E+01 -0.93590156005E+01  0.16138264184E+02  0.51100000000E-03 0. -1.
        -11    1    3    3    0    0 -0.76708601026E+01  0.46603892048E+01 -0.39210750870E+00  0.89841566556E+01  0.51100000000E-03 0.  1.
         12    1    3    3    0    0  0.39328010765E+00 -0.27097200223E+01 -0.25258502409E+02  0.25406479405E+02  0.00000000000E+00 0. -1.
</event>
<event>
 7    1  0.4520156E-012  0.5052881E+02  0.7816164E-02  0.1300439E+00
        -11   -1    0    0    0    0  0.00000000000E+00  0.00000000000E+00  0.45593999997E+02  0.45594000000E+02  0.51100000000E-03 0. -1.
         11   -1    0    0    0    0 -0.00000000000E+00 -0.00000000000E+00 -0.45593999997E+02  0.45594000000E+02  0.51100000000E-03 0.  1.
    9900012    2    1    2    0    0  0.34658008628E+02 -0.27953488342E+01  0.21075527356E+02  0.50528814193E+02  0.29999861221E+02 0.  0.
        -12    1    1    2    0    0 -0.34658008628E+02  0.27953488342E+01 -0.21075527356E+02  0.40659185807E+02  0.00000000000E+00 0.  1.
         11    1    3    3    0    0  0.10523114923E+02  0.27458943203E+01  0.40425515178E+01  0.11602504313E+02  0.51100000000E-03 0. -1.
        -11    1    3    3    0    0  0.18019390771E+02 -0.48289777075E+00 -0.21622737158E+01  0.18155083637E+02  0.51100000000E-03 0.  1.
        -12    1    3    3    0    0  0.61155029338E+01 -0.50583453837E+01  0.19195249554E+02  0.20771226242E+02  0.00000000000E+00 0.  1.
</event>
<event>
 7    1  0.4520156E-012  0.5052886E+02  0.7816164E-02  0.1300439E+00
        -11   -1    0    0    0    0  0.00000000000E+00  0.00000000000E+00  0.45593999997E+02  0.45594000000E+02  0.51100000000E-03 0. -1.
         11   -1    0    0    0    0 -0.00000000000E+00 -0.00000000000E+00 -0.45593999997E+02  0.45594000000E+02  0.51100000000E-03 0.  1.
    9900012    2    1    2    0    0 -0.21217522183E+02 -0.29163625498E+01 -0.34561207689E+02  0.50528862097E+02  0.30000006831E+02 0.  0.
         12    1    1    2    0    0  0.21217522183E+02  0.29163625498E+01  0.34561207689E+02  0.40659137903E+02  0.00000000000E+00 0. -1.
         11    1    3    3    0    0 -0.17504939077E+02 -0.82522366369E+01 -0.20246941289E+02  0.28008229745E+02  0.51100000000E-03 0. -1.
        -11    1    3    3    0    0 -0.10037595710E+02  0.20555615564E+01 -0.89048660956E+01  0.13574803917E+02  0.51100000000E-03 0.  1.
        -12    1    3    3    0    0  0.63250126043E+01  0.32803125307E+01 -0.54094003041E+01  0.89458284353E+01  0.00000000000E+00 0.  1.
</event>
<event>
 7    1  0.4853312E-012  0.5052886E+02  0.7816164E-02  0.1300439E+00
        -11   -1    0    0    0    0  0.00000000000E+00  0.00000000000E+00  0.45593999997E+02  0.45594000000E+02  0.51100000000E-03 0. -1.
         11   -1    0    0    0    0 -0.00000000000E+00 -0.00000000000E+00 -0.45593999997E+02  0.45594000000E+02  0.51100000000E-03 0.  1.
    9900012    2    1    2    0    0  0.13606825222E+02  0.29668472981E+02  0.24244620639E+02  0.50528860663E+02  0.30000002472E+02 0.  0.
        -12    1    1    2    0    0 -0.13606825222E+02 -0.29668472981E+02 -0.24244620639E+02  0.40659139337E+02  0.00000000000E+00 0.  1.
         11    1    3    3    0    0  0.90139366182E+01  0.20061306290E+02  0.15520651803E+02  0.26918352403E+02  0.51100000000E-03 0. -1.
        -11    1    3    3    0    0 -0.61427098221E+01  0.79874462627E+01  0.77458118963E+01  0.12709436807E+02  0.51100000000E-03 0.  1.
         12    1    3    3    0    0  0.10735598426E+02  0.16197204283E+01  0.97815694004E+00  0.10901071454E+02  0.00000000000E+00 0. -1.
</event>
<event>
 7    1  0.4520156E-012  0.5052883E+02  0.7816164E-02  0.1300439E+00
        -11   -1    0    0    0    0  0.00000000000E+00  0.00000000000E+00  0.45593999997E+02  0.45594000000E+02  0.51100000000E-03 0. -1.
         11   -1    0    0    0    0 -0.00000000000E+00 -0.00000000000E+00 -0.45593999997E+02  0.45594000000E+02  0.51100000000E-03 0.  1.
    9900012    2    1    2    0    0  0.37343287332E+02 -0.62563125434E+01 -0.14815719290E+02  0.50528830142E+02  0.29999909701E+02 0.  0.
         12    1    1    2    0    0 -0.37343287332E+02  0.62563125434E+01  0.14815719290E+02  0.40659169858E+02  0.00000000000E+00 0. -1.
         11    1    3    3    0    0  0.41254894679E+01  0.43427072090E+01 -0.78305536270E+01  0.98588203969E+01  0.51100000000E-03 0. -1.
        -11    1    3    3    0    0  0.14722514333E+02  0.10734287902E+01 -0.11031602893E+02  0.18428264712E+02  0.51100000000E-03 0.  1.
         12    1    3    3    0    0  0.18495283531E+02 -0.11672448543E+02  0.40464372295E+01  0.22241745034E+02  0.00000000000E+00 0. -1.
</event>
<event>
 7    1  0.4520156E-012  0.5052883E+02  0.7816164E-02  0.1300439E+00
        -11   -1    0    0    0    0  0.00000000000E+00  0.00000000000E+00  0.45593999997E+02  0.45594000000E+02  0.51100000000E-03 0. -1.
         11   -1    0    0    0    0 -0.00000000000E+00 -0.00000000000E+00 -0.45593999997E+02  0.45594000000E+02  0.51100000000E-03 0.  1.
    9900012    2    1    2    0    0  0.79931983653E+01  0.33614238086E+02 -0.21432673972E+02  0.50528834541E+02  0.29999923070E+02 0.  0.
         12    1    1    2    0    0 -0.79931983653E+01 -0.33614238086E+02  0.21432673972E+02  0.40659165459E+02  0.00000000000E+00 0. -1.
         11    1    3    3    0    0  0.61607292198E+01  0.18332565642E+02 -0.22473845880E+02  0.29649811069E+02  0.51100000000E-03 0. -1.
        -11    1    3    3    0    0  0.17292358589E+01  0.16522508294E+02 -0.27946508747E+01  0.16846174959E+02  0.51100000000E-03 0.  1.
        -12    1    3    3    0    0  0.10323328649E+00 -0.12408358492E+01  0.38358227820E+01  0.40328485132E+01  0.00000000000E+00 0.  1.
</event>
<event>
 7    1  0.4520156E-012  0.5052889E+02  0.7816164E-02  0.1300439E+00
        -11   -1    0    0    0    0  0.00000000000E+00  0.00000000000E+00  0.45593999997E+02  0.45594000000E+02  0.51100000000E-03 0. -1.
         11   -1    0    0    0    0 -0.00000000000E+00 -0.00000000000E+00 -0.45593999997E+02  0.45594000000E+02  0.51100000000E-03 0.  1.
    9900012    2    1    2    0    0  0.11153041086E+01  0.23917831428E+02 -0.32861176547E+02  0.50528886784E+02  0.30000081868E+02 0.  0.
         12    1    1    2    0    0 -0.11153041086E+01 -0.23917831428E+02  0.32861176547E+02  0.40659113216E+02  0.00000000000E+00 0. -1.
         11    1    3    3    0    0  0.19808520904E+01  0.65899453694E+00  0.75013683453E+00  0.22182773351E+01  0.51100000000E-03 0. -1.
        -11    1    3    3    0    0  0.12139545513E+02  0.14164567106E+02 -0.15717321606E+02  0.24393395117E+02  0.51100000000E-03 0.  1.
        -12    1    3    3    0    0 -0.13005093495E+02  0.90942697844E+01 -0.17893991776E+02  0.23917214332E+02  0.00000000000E+00 0.  1.
</event>
<event>
 7    1  0.4520156E-012  0.5052889E+02  0.7816164E-02  0.1300439E+00
        -11   -1    0    0    0    0  0.00000000000E+00  0.00000000000E+00  0.45593999997E+02  0.45594000000E+02  0.51100000000E-03 0. -1.
         11   -1    0    0    0    0 -0.00000000000E+00 -0.00000000000E+00 -0.45593999997E+02  0.45594000000E+02  0.51100000000E-03 0.  1.
    9900012    2    1    2    0    0  0.19282685001E+02 -0.30955487118E+02  0.17974950054E+02  0.50528893357E+02  0.30000101848E+02 0.  0.
        -12    1    1    2    0    0 -0.19282685001E+02  0.30955487118E+02 -0.17974950054E+02  0.40659106643E+02  0.00000000000E+00 0.  1.
         11    1    3    3    0    0  0.20498799512E+01 -0.10174198436E+02 -0.19231026054E+01  0.10555313615E+02  0.51100000000E-03 0. -1.
        -11    1    3    3    0    0  0.10772295631E+02 -0.21813274680E+02  0.66857204748E+01  0.25230143955E+02  0.51100000000E-03 0.  1.
        -12    1    3    3    0    0  0.64605094190E+01  0.10319859980E+01  0.13212332185E+02  0.14743435787E+02  0.00000000000E+00 0.  1.
</event>
<event>
 7    1  0.4520156E-012  0.5052884E+02  0.7816164E-02  0.1300439E+00
        -11   -1    0    0    0    0  0.00000000000E+00  0.00000000000E+00  0.45593999997E+02  0.45594000000E+02  0.51100000000E-03 0. -1.
         11   -1    0    0    0    0 -0.00000000000E+00 -0.00000000000E+00 -0.45593999997E+02  0.45594000000E+02  0.51100000000E-03 0.  1.
    9900012    2    1    2    0    0 -0.33922967165E+02  0.21107076547E+01 -0.22314671752E+02  0.50528839120E+02  0.29999936989E+02 0.  0.
         12    1    1    2    0    0  0.33922967165E+02 -0.21107076547E+01  0.22314671752E+02  0.40659160880E+02  0.00000000000E+00 0. -1.
         11    1    3    3    0    0 -0.58332867906E+01 -0.76562830931E+01 -0.99435784321E+01  0.13839098883E+02  0.51100000000E-03 0. -1.
        -11    1    3    3    0    0  0.30277388693E+00  0.58585440579E+01 -0.25062720880E+01  0.63793111340E+01  0.51100000000E-03 0.  1.
        -12    1    3    3    0    0 -0.28392454261E+02  0.39084466899E+01 -0.98648212320E+01  0.30310429103E+02  0.00000000000E+00 0.  1.
</event>
<event>
 7    1  0.4520156E-012  0.5052886E+02  0.7816164E-02  0.1300439E+00
        -11   -1    0    0    0    0  0.00000000000E+00  0.00000000000E+00  0.45593999997E+02  0.45594000000E+02  0.51100000000E-03 0. -1.
         11   -1    0    0    0    0 -0.00000000000E+00 -0.00000000000E+00 -0.45593999997E+02  0.45594000000E+02  0.51100000000E-03 0.  1.
    9900012    2    1    2    0    0 -0.28996591753E+02  0.77163243891E+01  0.27437598105E+02  0.50528858529E+02  0.29999995985E+02 0.  0.
        -12    1    1    2    0    0  0.28996591753E+02 -0.77163243891E+01 -0.27437598105E+02  0.40659141471E+02  0.00000000000E+00 0.  1.
         11    1    3    3    0    0 -0.11408389547E+02  0.41074189985E+01  0.11669107726E+02  0.16828259513E+02  0.51100000000E-03 0. -1.
        -11    1    3    3    0    0 -0.15851478302E+02  0.12606302538E+02  0.83348626679E+01  0.21901099607E+02  0.51100000000E-03 0.  1.
         12    1    3    3    0    0 -0.17367239048E+01 -0.89973971474E+01  0.74336277113E+01  0.11799499409E+02  0.00000000000E+00 0. -1.
</event>
<event>
 7    1  0.4520156E-012  0.5052887E+02  0.7816164E-02  0.1300439E+00
        -11   -1    0    0    0    0  0.00000000000E+00  0.00000000000E+00  0.45593999997E+02  0.45594000000E+02  0.51100000000E-03 0.  1.
         11   -1    0    0    0    0 -0.00000000000E+00 -0.00000000000E+00 -0.45593999997E+02  0.45594000000E+02  0.51100000000E-03 0. -1.
    9900012    2    1    2    0    0 -0.37961800599E+02 -0.44897560741E+01  0.13853123665E+02  0.50528865115E+02  0.30000016002E+02 0.  0.
        -12    1    1    2    0    0  0.37961800599E+02  0.44897560741E+01 -0.13853123665E+02  0.40659134885E+02  0.00000000000E+00 0.  1.
         11    1    3    3    0    0 -0.24406416955E+02 -0.52358859133E+01  0.81430637722E+00  0.24975003203E+02  0.51100000000E-03 0. -1.
        -11    1    3    3    0    0 -0.13322572203E+02  0.38088671325E+01  0.18839564338E+01  0.13983836778E+02  0.51100000000E-03 0.  1.
        -12    1    3    3    0    0 -0.23281144135E+00 -0.30627372933E+01  0.11154860854E+02  0.11570025133E+02  0.00000000000E+00 0.  1.
</event>
<event>
 7    1  0.4520156E-012  0.5052886E+02  0.7816164E-02  0.1300439E+00
        -11   -1    0    0    0    0  0.00000000000E+00  0.00000000000E+00  0.45593999997E+02  0.45594000000E+02  0.51100000000E-03 0. -1.
         11   -1    0    0    0    0 -0.00000000000E+00 -0.00000000000E+00 -0.45593999997E+02  0.45594000000E+02  0.51100000000E-03 0.  1.
    9900012    2    1    2    0    0 -0.18715018409E+01  0.19321039902E+02 -0.35726191455E+02  0.50528857635E+02  0.29999993266E+02 0.  0.
         12    1    1    2    0    0  0.18715018409E+01 -0.19321039902E+02  0.35726191455E+02  0.40659142365E+02  0.00000000000E+00 0. -1.
         11    1    3    3    0    0 -0.18296629335E+01 -0.37184025355E+00 -0.73487175972E+01  0.75821884841E+01  0.51100000000E-03 0. -1.
        -11    1    3    3    0    0 -0.36827972788E+01 -0.35994003669E+00  0.35114456750E+01  0.51012551021E+01  0.51100000000E-03 0.  1.
        -12    1    3    3    0    0  0.36409583714E+01  0.20052820193E+02 -0.31888919532E+02  0.37845414048E+02  0.00000000000E+00 0.  1.
</event>
<event>
 7    1  0.4520156E-012  0.5052880E+02  0.7816164E-02  0.1300439E+00
        -11   -1    0    0    0    0  0.00000000000E+00  0.00000000000E+00  0.45593999997E+02  0.45594000000E+02  0.51100000000E-03 0. -1.
         11   -1    0    0    0    0 -0.00000000000E+00 -0.00000000000E+00 -0.45593999997E+02  0.45594000000E+02  0.51100000000E-03 0.  1.
    9900012    2    1    2    0    0  0.21829638596E+02 -0.31406840394E+01  0.34158067132E+02  0.50528799717E+02  0.29999817219E+02 0.  0.
        -12    1    1    2    0    0 -0.21829638596E+02  0.31406840394E+01 -0.34158067132E+02  0.40659200283E+02  0.00000000000E+00 0.  1.
         11    1    3    3    0    0  0.11436009790E+02 -0.24681502216E+00  0.10585223518E+02  0.15584934865E+02  0.51100000000E-03 0. -1.
        -11    1    3    3    0    0  0.10423910772E+02  0.76119549559E+01  0.20083751753E+02  0.23873769262E+02  0.51100000000E-03 0.  1.
        -12    1    3    3    0    0 -0.30281965146E-01 -0.10505823973E+02  0.34890918605E+01  0.11070095590E+02  0.00000000000E+00 0.  1.
</event>
<event>
 7    1  0.4520156E-012  0.5052886E+02  0.7816164E-02  0.1300439E+00
        -11   -1    0    0    0    0  0.00000000000E+00  0.00000000000E+00  0.45593999997E+02  0.45594000000E+02  0.51100000000E-03 0.  1.
         11   -1    0    0    0    0 -0.00000000000E+00 -0.00000000000E+00 -0.45593999997E+02  0.45594000000E+02  0.51100000000E-03 0. -1.
    9900012    2    1    2    0    0  0.36649963681E+02 -0.16001398827E+02 -0.73417277443E+01  0.50528861193E+02  0.30000004082E+02 0.  0.
         12    1    1    2    0    0 -0.36649963681E+02  0.16001398827E+02  0.73417277443E+01  0.40659138807E+02  0.00000000000E+00 0. -1.
         11    1    3    3    0    0  0.20714819505E+02 -0.77658769683E+01  0.38034383441E+01  0.22447243388E+02  0.51100000000E-03 0. -1.
        -11    1    3    3    0    0  0.15211218523E+02 -0.10866552698E+02 -0.23117684008E+01  0.18836332178E+02  0.51100000000E-03 0.  1.
         12    1    3    3    0    0  0.72392565282E+00  0.26310308390E+01 -0.88333976876E+01  0.92452856275E+01  0.00000000000E+00 0. -1.
</event>
<event>
 7    1  0.4520156E-012  0.5052886E+02  0.7816164E-02  0.1300439E+00
        -11   -1    0    0    0    0  0.00000000000E+00  0.00000000000E+00  0.45593999997E+02  0.45594000000E+02  0.51100000000E-03 0. -1.
         11   -1    0    0    0    0 -0.00000000000E+00 -0.00000000000E+00 -0.45593999997E+02  0.45594000000E+02  0.51100000000E-03 0.  1.
    9900012    2    1    2    0    0 -0.15624394653E+02  0.15840510075E+02 -0.34031188947E+02  0.50528864632E+02  0.30000014536E+02 0.  0.
         12    1    1    2    0    0  0.15624394653E+02 -0.15840510075E+02  0.34031188947E+02  0.40659135368E+02  0.00000000000E+00 0. -1.
         11    1    3    3    0    0 -0.91753214107E+01  0.11430234205E+02 -0.62613506129E+01  0.15938672741E+02  0.51100000000E-03 0. -1.
        -11    1    3    3    0    0 -0.35143075457E+01  0.11444136532E+02 -0.21943599352E+02  0.24996803221E+02  0.51100000000E-03 0.  1.
         12    1    3    3    0    0 -0.29347656969E+01 -0.70338606620E+01 -0.58262389819E+01  0.95933886704E+01  0.00000000000E+00 0. -1.
</event>
<event>
 7    1  0.4520156E-012  0.5052885E+02  0.7816164E-02  0.1300439E+00
        -11   -1    0    0    0    0  0.00000000000E+00  0.00000000000E+00  0.45593999997E+02  0.45594000000E+02  0.51100000000E-03 0. -1.
         11   -1    0    0    0    0 -0.00000000000E+00 -0.00000000000E+00 -0.45593999997E+02  0.45594000000E+02  0.51100000000E-03 0.  1.
    9900012    2    1    2    0    0 -0.38557063905E+02 -0.79512704349E+01  0.10163473625E+02  0.50528854970E+02  0.29999985166E+02 0.  0.
        -12    1    1    2    0    0  0.38557063905E+02  0.79512704349E+01 -0.10163473625E+02  0.40659145030E+02  0.00000000000E+00 0.  1.
         11    1    3    3    0    0 -0.29911023667E+02 -0.28549530920E+01  0.69687001354E+01  0.30844495065E+02  0.51100000000E-03 0. -1.
        -11    1    3    3    0    0 -0.11837554845E+02 -0.83721043415E+01  0.39998805025E+01  0.15040574461E+02  0.51100000000E-03 0.  1.
         12    1    3    3    0    0  0.31915146071E+01  0.32757869987E+01 -0.80510701325E+00  0.46437854441E+01  0.00000000000E+00 0. -1.
</event>
<event>
 7    1  0.4520156E-012  0.5052886E+02  0.7816164E-02  0.1300439E+00
        -11   -1    0    0    0    0  0.00000000000E+00  0.00000000000E+00  0.45593999997E+02  0.45594000000E+02  0.51100000000E-03 0.  1.
         11   -1    0    0    0    0 -0.00000000000E+00 -0.00000000000E+00 -0.45593999997E+02  0.45594000000E+02  0.51100000000E-03 0. -1.
    9900012    2    1    2    0    0  0.23070679418E+02 -0.27820817970E+02 -0.18625561076E+02  0.50528859739E+02  0.29999999664E+02 0.  0.
         12    1    1    2    0    0 -0.23070679418E+02  0.27820817970E+02  0.18625561076E+02  0.40659140261E+02  0.00000000000E+00 0. -1.
         11    1    3    3    0    0  0.56738877607E+01 -0.39418669044E+01 -0.53418945842E+01  0.87331068368E+01  0.51100000000E-03 0. -1.
        -11    1    3    3    0    0  0.15273238651E+02 -0.28336973634E+02 -0.16224465500E+02  0.36048428186E+02  0.51100000000E-03 0.  1.
         12    1    3    3    0    0  0.21235530066E+01  0.44580225687E+01  0.29407990083E+01  0.57473247170E+01  0.00000000000E+00 0. -1.
</event>
<event>
 7    1  0.4520156E-012  0.5052889E+02  0.7816164E-02  0.1300439E+00
        -11   -1    0    0    0    0  0.00000000000E+00  0.00000000000E+00  0.45593999997E+02  0.45594000000E+02  0.51100000000E-03 0. -1.
         11   -1    0    0    0    0 -0.00000000000E+00 -0.00000000000E+00 -0.45593999997E+02  0.45594000000E+02  0.51100000000E-03 0.  1.
    9900012    2    1    2    0    0  0.36521932138E+02 -0.15330550679E+01 -0.17803403146E+02  0.50528893413E+02  0.30000102017E+02 0.  0.
         12    1    1    2    0    0 -0.36521932138E+02  0.15330550679E+01  0.17803403146E+02  0.40659106587E+02  0.00000000000E+00 0. -1.
         11    1    3    3    0    0  0.52996238322E+01 -0.36200085004E+01 -0.30144752307E+01  0.70906653767E+01  0.51100000000E-03 0. -1.
        -11    1    3    3    0    0  0.39574723834E+01 -0.94443481923E+01 -0.81807396680E+01  0.13106555696E+02  0.51100000000E-03 0.  1.
         12    1    3    3    0    0  0.27264835922E+02  0.11531301625E+02 -0.66081882468E+01  0.30331672340E+02  0.00000000000E+00 0. -1.
</event>
<event>
 7    1  0.4520156E-012  0.5052886E+02  0.7816164E-02  0.1300439E+00
        -11   -1    0    0    0    0  0.00000000000E+00  0.00000000000E+00  0.45593999997E+02  0.45594000000E+02  0.51100000000E-03 0. -1.
         11   -1    0    0    0    0 -0.00000000000E+00 -0.00000000000E+00 -0.45593999997E+02  0.45594000000E+02  0.51100000000E-03 0.  1.
    9900012    2    1    2    0    0  0.22162043369E+02  0.29113607401E+02 -0.17731527463E+02  0.50528863654E+02  0.30000011564E+02 0.  0.
         12    1    1    2    0    0 -0.22162043369E+02 -0.29113607401E+02  0.17731527463E+02  0.40659136346E+02  0.00000000000E+00 0. -1.
         11    1    3    3    0    0  0.47266448046E+01  0.83233460034E+01 -0.13292223613E+02  0.16379941045E+02  0.51100000000E-03 0.  1.
        -11    1    3    3    0    0 -0.13834605935E+01 -0.17886062962E+01 -0.41825885026E+01  0.47546947893E+01  0.51100000000E-03 0. -1.
         12    1    3    3    0    0  0.18818859158E+02  0.22578867694E+02 -0.25671534711E+00  0.29394227820E+02  0.00000000000E+00 0. -1.
</event>
<event>
 7    1  0.4520156E-012  0.5052886E+02  0.7816164E-02  0.1300439E+00
        -11   -1    0    0    0    0  0.00000000000E+00  0.00000000000E+00  0.45593999997E+02  0.45594000000E+02  0.51100000000E-03 0. -1.
         11   -1    0    0    0    0 -0.00000000000E+00 -0.00000000000E+00 -0.45593999997E+02  0.45594000000E+02  0.51100000000E-03 0.  1.
    9900012    2    1    2    0    0 -0.18922910792E+02 -0.11449358056E+02 -0.34117459641E+02  0.50528863203E+02  0.30000010191E+02 0.  0.
         12    1    1    2    0    0  0.18922910792E+02  0.11449358056E+02  0.34117459641E+02  0.40659136797E+02  0.00000000000E+00 0. -1.
         11    1    3    3    0    0  0.60003181468E+01 -0.55305312898E+01 -0.11794105435E+02  0.14341949570E+02  0.51100000000E-03 0. -1.
        -11    1    3    3    0    0 -0.61915150156E+01  0.30348763732E+01 -0.96585644498E+01  0.11867316473E+02  0.51100000000E-03 0.  1.
        -12    1    3    3    0    0 -0.18731713923E+02 -0.89537031392E+01 -0.12664789757E+02  0.24319597159E+02  0.00000000000E+00 0.  1.
</event>
<event>
 7    1  0.4520156E-012  0.5052887E+02  0.7816164E-02  0.1300439E+00
        -11   -1    0    0    0    0  0.00000000000E+00  0.00000000000E+00  0.45593999997E+02  0.45594000000E+02  0.51100000000E-03 0. -1.
         11   -1    0    0    0    0 -0.00000000000E+00 -0.00000000000E+00 -0.45593999997E+02  0.45594000000E+02  0.51100000000E-03 0.  1.
    9900012    2    1    2    0    0 -0.30235370323E+02 -0.18045086081E+02  0.20331316216E+02  0.50528866102E+02  0.30000019003E+02 0.  0.
        -12    1    1    2    0    0  0.30235370323E+02  0.18045086081E+02 -0.20331316216E+02  0.40659133898E+02  0.00000000000E+00 0.  1.
         11    1    3    3    0    0 -0.90107481328E+01 -0.51974569109E+01 -0.14757721491E+01  0.10506428696E+02  0.51100000000E-03 0. -1.
        -11    1    3    3    0    0 -0.14103400570E+02  0.45016652770E+01  0.94492161338E+01  0.17562989031E+02  0.51100000000E-03 0.  1.
         12    1    3    3    0    0 -0.71212216205E+01 -0.17349294447E+02  0.12357872231E+02  0.22459448374E+02  0.00000000000E+00 0. -1.
</event>
<event>
 7    1  0.4520156E-012  0.5052886E+02  0.7816164E-02  0.1300439E+00
        -11   -1    0    0    0    0  0.00000000000E+00  0.00000000000E+00  0.45593999997E+02  0.45594000000E+02  0.51100000000E-03 0. -1.
         11   -1    0    0    0    0 -0.00000000000E+00 -0.00000000000E+00 -0.45593999997E+02  0.45594000000E+02  0.51100000000E-03 0.  1.
    9900012    2    1    2    0    0  0.36003145195E+02  0.14414708359E+02  0.12212906538E+02  0.50528863670E+02  0.30000011612E+02 0.  0.
        -12    1    1    2    0    0 -0.36003145195E+02 -0.14414708359E+02 -0.12212906538E+02  0.40659136330E+02  0.00000000000E+00 0.  1.
         11    1    3    3    0    0  0.13542611647E+02  0.15944806082E+02  0.55654676073E+01  0.21647484869E+02  0.51100000000E-03 0. -1.
        -11    1    3    3    0    0 -0.23206222256E+01  0.24476291744E-01  0.29878523269E+01  0.37832721805E+01  0.51100000000E-03 0.  1.
        -12    1    3    3    0    0  0.24781155773E+02 -0.15545740145E+01  0.36595866037E+01  0.25098106621E+02  0.00000000000E+00 0.  1.
</event>
<event>
 7    1  0.4520156E-012  0.5052885E+02  0.7816164E-02  0.1300439E+00
        -11   -1    0    0    0    0  0.00000000000E+00  0.00000000000E+00  0.45593999997E+02  0.45594000000E+02  0.51100000000E-03 0. -1.
         11   -1    0    0    0    0 -0.00000000000E+00 -0.00000000000E+00 -0.45593999997E+02  0.45594000000E+02  0.51100000000E-03 0.  1.
    9900012    2    1    2    0    0 -0.20164918431E+02 -0.23814375208E+02 -0.26065653632E+02  0.50528847265E+02  0.29999961746E+02 0.  0.
         12    1    1    2    0    0  0.20164918431E+02  0.23814375208E+02  0.26065653632E+02  0.40659152735E+02  0.00000000000E+00 0. -1.
         11    1    3    3    0    0 -0.12192150915E+02 -0.13700258558E+01 -0.53913901987E+01  0.13401216486E+02  0.51100000000E-03 0. -1.
        -11    1    3    3    0    0 -0.75359549521E+01 -0.63340787678E+01  0.12434046103E+01  0.99225614719E+01  0.51100000000E-03 0.  1.
         12    1    3    3    0    0 -0.43681256409E+00 -0.16110270584E+02 -0.21917668044E+02  0.27205069307E+02  0.00000000000E+00 0. -1.
</event>
<event>
 7    1  0.4520156E-012  0.5052891E+02  0.7816164E-02  0.1300439E+00
        -11   -1    0    0    0    0  0.00000000000E+00  0.00000000000E+00  0.45593999997E+02  0.45594000000E+02  0.51100000000E-03 0. -1.
         11   -1    0    0    0    0 -0.00000000000E+00 -0.00000000000E+00 -0.45593999997E+02  0.45594000000E+02  0.51100000000E-03 0.  1.
    9900012    2    1    2    0    0 -0.30400934219E+02 -0.26607482364E+02  0.45811591090E+01  0.50528905841E+02  0.30000139793E+02 0.  0.
        -12    1    1    2    0    0  0.30400934219E+02  0.26607482364E+02 -0.45811591090E+01  0.40659094159E+02  0.00000000000E+00 0.  1.
         11    1    3    3    0    0 -0.44775199871E+01  0.22310926848E+01  0.24697626163E+01  0.55790400111E+01  0.51100000000E-03 0. -1.
        -11    1    3    3    0    0 -0.74860160356E+00  0.38340056969E+00 -0.55603964993E+01  0.56236473794E+01  0.51100000000E-03 0.  1.
         12    1    3    3    0    0 -0.25174812628E+02 -0.29221975618E+02  0.76717929920E+01  0.39326218450E+02  0.00000000000E+00 0. -1.
</event>
<event>
 7    1  0.4520156E-012  0.5052886E+02  0.7816164E-02  0.1300439E+00
        -11   -1    0    0    0    0  0.00000000000E+00  0.00000000000E+00  0.45593999997E+02  0.45594000000E+02  0.51100000000E-03 0. -1.
         11   -1    0    0    0    0 -0.00000000000E+00 -0.00000000000E+00 -0.45593999997E+02  0.45594000000E+02  0.51100000000E-03 0.  1.
    9900012    2    1    2    0    0 -0.44523393061E+00  0.10612614214E+02 -0.39247162157E+02  0.50528861408E+02  0.30000004734E+02 0.  0.
         12    1    1    2    0    0  0.44523393061E+00 -0.10612614214E+02  0.39247162157E+02  0.40659138592E+02  0.00000000000E+00 0. -1.
         11    1    3    3    0    0  0.15200817615E+01  0.48034307372E+01  0.67551848241E-01  0.50386663833E+01  0.51100000000E-03 0. -1.
        -11    1    3    3    0    0  0.71836070689E+01 -0.61088502014E+00 -0.35821266070E+01  0.80504051027E+01  0.51100000000E-03 0.  1.
        -12    1    3    3    0    0 -0.91489227610E+01  0.64200684966E+01 -0.35732587398E+02  0.37439789922E+02  0.00000000000E+00 0.  1.
</event>
<event>
 7    1  0.4520156E-012  0.5052886E+02  0.7816164E-02  0.1300439E+00
        -11   -1    0    0    0    0  0.00000000000E+00  0.00000000000E+00  0.45593999997E+02  0.45594000000E+02  0.51100000000E-03 0. -1.
         11   -1    0    0    0    0 -0.00000000000E+00 -0.00000000000E+00 -0.45593999997E+02  0.45594000000E+02  0.51100000000E-03 0.  1.
    9900012    2    1    2    0    0 -0.37488770325E-01  0.21177455920E+02  0.34708495097E+02  0.50528859865E+02  0.30000000044E+02 0.  0.
        -12    1    1    2    0    0  0.37488770325E-01 -0.21177455920E+02 -0.34708495097E+02  0.40659140135E+02  0.00000000000E+00 0.  1.
         11    1    3    3    0    0  0.67045783768E+01  0.40048751777E+01 -0.14669717343E+01  0.79462193986E+01  0.51100000000E-03 0. -1.
        -11    1    3    3    0    0  0.37560899736E+01  0.43511598237E+01  0.11541967927E+02  0.12894100495E+02  0.51100000000E-03 0.  1.
         12    1    3    3    0    0 -0.10498157121E+02  0.12821420919E+02  0.24633498905E+02  0.29688539971E+02  0.00000000000E+00 0. -1.
</event>
<event>
 7    1  0.4520156E-012  0.5052886E+02  0.7816164E-02  0.1300439E+00
        -11   -1    0    0    0    0  0.00000000000E+00  0.00000000000E+00  0.45593999997E+02  0.45594000000E+02  0.51100000000E-03 0. -1.
         11   -1    0    0    0    0 -0.00000000000E+00 -0.00000000000E+00 -0.45593999997E+02  0.45594000000E+02  0.51100000000E-03 0.  1.
    9900012    2    1    2    0    0  0.77722188975E+01 -0.15150900850E+02  0.36921648540E+02  0.50528864323E+02  0.30000013595E+02 0.  0.
        -12    1    1    2    0    0 -0.77722188975E+01  0.15150900850E+02 -0.36921648540E+02  0.40659135677E+02  0.00000000000E+00 0.  1.
         11    1    3    3    0    0  0.47164428813E+01 -0.14528716552E+02  0.22477816359E+02  0.27176840630E+02  0.51100000000E-03 0. -1.
        -11    1    3    3    0    0  0.26124199886E+01  0.33116355449E+01  0.17718981667E+02  0.18214114850E+02  0.51100000000E-03 0.  1.
         12    1    3    3    0    0  0.44335602756E+00 -0.39338198429E+01 -0.32751494861E+01  0.51379088431E+01  0.00000000000E+00 0. -1.
</event>
<event>
 7    1  0.4520156E-012  0.5052887E+02  0.7816164E-02  0.1300439E+00
        -11   -1    0    0    0    0  0.00000000000E+00  0.00000000000E+00  0.45593999997E+02  0.45594000000E+02  0.51100000000E-03 0. -1.
         11   -1    0    0    0    0 -0.00000000000E+00 -0.00000000000E+00 -0.45593999997E+02  0.45594000000E+02  0.51100000000E-03 0.  1.
    9900012    2    1    2    0    0  0.11212719701E+02 -0.53417885453E+01 -0.38715699844E+02  0.50528865696E+02  0.30000017769E+02 0.  0.
         12    1    1    2    0    0 -0.11212719701E+02  0.53417885453E+01  0.38715699844E+02  0.40659134304E+02  0.00000000000E+00 0. -1.
         11    1    3    3    0    0 -0.14608847470E+00 -0.12156901927E+02 -0.10445246103E+02  0.16028561155E+02  0.51100000000E-03 0. -1.
        -11    1    3    3    0    0 -0.91195492641E+00 -0.25459760210E+01 -0.11048297995E+02  0.11374468979E+02  0.51100000000E-03 0.  1.
         12    1    3    3    0    0  0.12270763102E+02  0.93610894024E+01 -0.17222155746E+02  0.23125835562E+02  0.00000000000E+00 0. -1.
</event>
<event>
 7    1  0.4520156E-012  0.5052887E+02  0.7816164E-02  0.1300439E+00
        -11   -1    0    0    0    0  0.00000000000E+00  0.00000000000E+00  0.45593999997E+02  0.45594000000E+02  0.51100000000E-03 0.  1.
         11   -1    0    0    0    0 -0.00000000000E+00 -0.00000000000E+00 -0.45593999997E+02  0.45594000000E+02  0.51100000000E-03 0. -1.
    9900012    2    1    2    0    0  0.37737897497E+02 -0.61664916949E+01 -0.13819911924E+02  0.50528874420E+02  0.30000044288E+02 0.  0.
         12    1    1    2    0    0 -0.37737897497E+02  0.61664916949E+01  0.13819911924E+02  0.40659125580E+02  0.00000000000E+00 0. -1.
         11    1    3    3    0    0  0.10333386256E+02 -0.68768109767E+01  0.16064309252E+01  0.12515990624E+02  0.51100000000E-03 0. -1.
        -11    1    3    3    0    0  0.49727088474E+01 -0.84641978313E+01 -0.11470944563E+01  0.98836382047E+01  0.51100000000E-03 0.  1.
         12    1    3    3    0    0  0.22431802393E+02  0.91745171131E+01 -0.14279248393E+02  0.28129245591E+02  0.00000000000E+00 0. -1.
</event>
<event>
 7    1  0.4700932E-012  0.5052886E+02  0.7816164E-02  0.1300439E+00
        -11   -1    0    0    0    0  0.00000000000E+00  0.00000000000E+00  0.45593999997E+02  0.45594000000E+02  0.51100000000E-03 0. -1.
         11   -1    0    0    0    0 -0.00000000000E+00 -0.00000000000E+00 -0.45593999997E+02  0.45594000000E+02  0.51100000000E-03 0.  1.
    9900012    2    1    2    0    0  0.29600431373E+02  0.10098073965E+02  0.25980941372E+02  0.50528856504E+02  0.29999989830E+02 0.  0.
        -12    1    1    2    0    0 -0.29600431373E+02 -0.10098073965E+02 -0.25980941372E+02  0.40659143496E+02  0.00000000000E+00 0.  1.
         11    1    3    3    0    0  0.75404252406E+00 -0.23995792143E+01  0.48824832434E+00  0.25622152956E+01  0.51100000000E-03 0. -1.
        -11    1    3    3    0    0  0.18221696065E+01  0.51338511986E+01 -0.43994937664E+01  0.70023050395E+01  0.51100000000E-03 0.  1.
         12    1    3    3    0    0  0.27024219242E+02  0.73638019811E+01  0.29892186814E+02  0.40964336169E+02  0.00000000000E+00 0. -1.
</event>
<event>
 7    1  0.4520156E-012  0.5052886E+02  0.7816164E-02  0.1300439E+00
        -11   -1    0    0    0    0  0.00000000000E+00  0.00000000000E+00  0.45593999997E+02  0.45594000000E+02  0.51100000000E-03 0. -1.
         11   -1    0    0    0    0 -0.00000000000E+00 -0.00000000000E+00 -0.45593999997E+02  0.45594000000E+02  0.51100000000E-03 0.  1.
    9900012    2    1    2    0    0  0.38273633212E+02 -0.72807475621E+01  0.11631207471E+02  0.50528864845E+02  0.30000015182E+02 0.  0.
        -12    1    1    2    0    0 -0.38273633212E+02  0.72807475621E+01 -0.11631207471E+02  0.40659135155E+02  0.00000000000E+00 0.  1.
         11    1    3    3    0    0  0.32190397942E+01  0.57754306199E+00 -0.49923041503E+01  0.59681550060E+01  0.51100000000E-03 0. -1.
        -11    1    3    3    0    0  0.31251616897E+02  0.35045474689E+00  0.84679716433E+01  0.32380440412E+02  0.51100000000E-03 0.  1.
         12    1    3    3    0    0  0.38029765206E+01 -0.82087453709E+01  0.81555399784E+01  0.12180269427E+02  0.00000000000E+00 0. -1.
</event>
<event>
 7    1  0.4520156E-012  0.5052886E+02  0.7816164E-02  0.1300439E+00
        -11   -1    0    0    0    0  0.00000000000E+00  0.00000000000E+00  0.45593999997E+02  0.45594000000E+02  0.51100000000E-03 0. -1.
         11   -1    0    0    0    0 -0.00000000000E+00 -0.00000000000E+00 -0.45593999997E+02  0.45594000000E+02  0.51100000000E-03 0.  1.
    9900012    2    1    2    0    0 -0.76981853406E+00  0.23114668188E+02  0.33440771239E+02  0.50528859735E+02  0.29999999650E+02 0.  0.
        -12    1    1    2    0    0  0.76981853406E+00 -0.23114668188E+02 -0.33440771239E+02  0.40659140265E+02  0.00000000000E+00 0.  1.
         11    1    3    3    0    0 -0.45945918069E+01  0.24126694044E+01  0.14599810945E+02  0.15494699979E+02  0.51100000000E-03 0. -1.
        -11    1    3    3    0    0 -0.77865483545E+00  0.13275911877E+02  0.22030313220E+02  0.25733069003E+02  0.51100000000E-03 0.  1.
        -12    1    3    3    0    0  0.46034281083E+01  0.74260869074E+01 -0.31893529260E+01  0.93010907528E+01  0.00000000000E+00 0.  1.
</event>
<event>
 7    1  0.4520156E-012  0.5052886E+02  0.7816164E-02  0.1300439E+00
        -11   -1    0    0    0    0  0.00000000000E+00  0.00000000000E+00  0.45593999997E+02  0.45594000000E+02  0.51100000000E-03 0.  1.
         11   -1    0    0    0    0 -0.00000000000E+00 -0.00000000000E+00 -0.45593999997E+02  0.45594000000E+02  0.51100000000E-03 0. -1.
    9900012    2    1    2    0    0 -0.82647947567E+01  0.39196820112E+02 -0.69619010738E+01  0.50528860734E+02  0.30000002687E+02 0.  0.
         12    1    1    2    0    0  0.82647947567E+01 -0.39196820112E+02  0.69619010738E+01  0.40659139266E+02  0.00000000000E+00 0. -1.
         11    1    3    3    0    0 -0.34094324842E+01  0.17905462245E+02 -0.85685896798E+01  0.20140768045E+02  0.51100000000E-03 0. -1.
        -11    1    3    3    0    0  0.73496442833E+01  0.33679343093E+01 -0.21852206481E+01  0.83746905701E+01  0.51100000000E-03 0.  1.
         12    1    3    3    0    0 -0.12205006556E+02  0.17923423558E+02  0.37919092541E+01  0.22013402119E+02  0.00000000000E+00 0. -1.
</event>
<event>
 7    1  0.4520156E-012  0.5052886E+02  0.7816164E-02  0.1300439E+00
        -11   -1    0    0    0    0  0.00000000000E+00  0.00000000000E+00  0.45593999997E+02  0.45594000000E+02  0.51100000000E-03 0. -1.
         11   -1    0    0    0    0 -0.00000000000E+00 -0.00000000000E+00 -0.45593999997E+02  0.45594000000E+02  0.51100000000E-03 0.  1.
    9900012    2    1    2    0    0 -0.40671574549E+01 -0.32865820168E+02  0.23589435540E+02  0.50528863583E+02  0.30000011348E+02 0.  0.
        -12    1    1    2    0    0  0.40671574549E+01  0.32865820168E+02 -0.23589435540E+02  0.40659136417E+02  0.00000000000E+00 0.  1.
         11    1    3    3    0    0 -0.76911311289E+01 -0.13447323483E+02  0.15633851755E+01  0.15570105342E+02  0.51100000000E-03 0.  1.
        -11    1    3    3    0    0  0.19890309209E+01 -0.16091875970E+02  0.25275616547E+02  0.30029344121E+02  0.51100000000E-03 0. -1.
         12    1    3    3    0    0  0.16349427531E+01 -0.33266207148E+01 -0.32495661832E+01  0.49294141199E+01  0.00000000000E+00 0. -1.
</event>
<event>
 7    1  0.4520156E-012  0.5052887E+02  0.7816164E-02  0.1300439E+00
        -11   -1    0    0    0    0  0.00000000000E+00  0.00000000000E+00  0.45593999997E+02  0.45594000000E+02  0.51100000000E-03 0. -1.
         11   -1    0    0    0    0 -0.00000000000E+00 -0.00000000000E+00 -0.45593999997E+02  0.45594000000E+02  0.51100000000E-03 0.  1.
    9900012    2    1    2    0    0  0.64205194768E+01  0.10321522395E+02 -0.38799582466E+02  0.50528874402E+02  0.30000044231E+02 0.  0.
         12    1    1    2    0    0 -0.64205194768E+01 -0.10321522395E+02  0.38799582466E+02  0.40659125598E+02  0.00000000000E+00 0. -1.
         11    1    3    3    0    0  0.25856989304E+01  0.28010998872E+01  0.22078649152E+01  0.44052999083E+01  0.51100000000E-03 0.  1.
        -11    1    3    3    0    0 -0.62194636659E+00 -0.14564132435E+01  0.16603546865E+01  0.22945009838E+01  0.51100000000E-03 0. -1.
         12    1    3    3    0    0  0.44567669130E+01  0.89768357512E+01 -0.42667802068E+02  0.43829073509E+02  0.00000000000E+00 0. -1.
</event>
<event>
 7    1  0.4520156E-012  0.5052885E+02  0.7816164E-02  0.1300439E+00
        -11   -1    0    0    0    0  0.00000000000E+00  0.00000000000E+00  0.45593999997E+02  0.45594000000E+02  0.51100000000E-03 0. -1.
         11   -1    0    0    0    0 -0.00000000000E+00 -0.00000000000E+00 -0.45593999997E+02  0.45594000000E+02  0.51100000000E-03 0.  1.
    9900012    2    1    2    0    0  0.38255731313E+02  0.91846224227E+01 -0.10261980814E+02  0.50528849522E+02  0.29999968607E+02 0.  0.
        -12    1    1    2    0    0 -0.38255731313E+02 -0.91846224227E+01  0.10261980814E+02  0.40659150478E+02  0.00000000000E+00 0.  1.
         11    1    3    3    0    0  0.25473446921E+01  0.22471456930E+00 -0.50598050909E+01  0.56693111960E+01  0.51100000000E-03 0. -1.
        -11    1    3    3    0    0  0.29014185181E+01  0.63773613760E+01 -0.93574531899E+01  0.11689777500E+02  0.51100000000E-03 0.  1.
         12    1    3    3    0    0  0.32806968103E+02  0.25825464774E+01  0.41552774667E+01  0.33169760826E+02  0.00000000000E+00 0. -1.
</event>
<event>
 7    1  0.4520156E-012  0.5052882E+02  0.7816164E-02  0.1300439E+00
        -11   -1    0    0    0    0  0.00000000000E+00  0.00000000000E+00  0.45593999997E+02  0.45594000000E+02  0.51100000000E-03 0. -1.
         11   -1    0    0    0    0 -0.00000000000E+00 -0.00000000000E+00 -0.45593999997E+02  0.45594000000E+02  0.51100000000E-03 0.  1.
    9900012    2    1    2    0    0 -0.25552878277E+02 -0.16918437417E+02  0.26720506471E+02  0.50528824173E+02  0.29999891556E+02 0.  0.
        -12    1    1    2    0    0  0.25552878277E+02  0.16918437417E+02 -0.26720506471E+02  0.40659175827E+02  0.00000000000E+00 0.  1.
         11    1    3    3    0    0 -0.63413391229E+01  0.33511500388E+01  0.12351174780E+02  0.14282657567E+02  0.51100000000E-03 0. -1.
        -11    1    3    3    0    0  0.33173226590E+01 -0.15817571859E+01  0.33405776920E+01  0.49664922225E+01  0.51100000000E-03 0.  1.
        -12    1    3    3    0    0 -0.22528861813E+02 -0.18687830270E+02  0.11028753998E+02  0.31279674384E+02  0.00000000000E+00 0.  1.
</event>
<event>
 7    1  0.4520156E-012  0.5052882E+02  0.7816164E-02  0.1300439E+00
        -11   -1    0    0    0    0  0.00000000000E+00  0.00000000000E+00  0.45593999997E+02  0.45594000000E+02  0.51100000000E-03 0. -1.
         11   -1    0    0    0    0 -0.00000000000E+00 -0.00000000000E+00 -0.45593999997E+02  0.45594000000E+02  0.51100000000E-03 0.  1.
    9900012    2    1    2    0    0  0.34193353709E+02 -0.17843282138E+02  0.12868583026E+02  0.50528824106E+02  0.29999891351E+02 0.  0.
        -12    1    1    2    0    0 -0.34193353709E+02  0.17843282138E+02 -0.12868583026E+02  0.40659175894E+02  0.00000000000E+00 0.  1.
         11    1    3    3    0    0  0.24637595938E+01 -0.16103208409E+01 -0.34194487905E+01  0.45117485345E+01  0.51100000000E-03 0. -1.
        -11    1    3    3    0    0  0.12073864108E+02 -0.36659082375E+01 -0.58022928403E+01  0.13888256916E+02  0.51100000000E-03 0.  1.
         12    1    3    3    0    0  0.19655730007E+02 -0.12567053059E+02  0.22090324657E+02  0.32128818655E+02  0.00000000000E+00 0. -1.
</event>
<event>
 7    1  0.4520156E-012  0.5052886E+02  0.7816164E-02  0.1300439E+00
        -11   -1    0    0    0    0  0.00000000000E+00  0.00000000000E+00  0.45593999997E+02  0.45594000000E+02  0.51100000000E-03 0. -1.
         11   -1    0    0    0    0 -0.00000000000E+00 -0.00000000000E+00 -0.45593999997E+02  0.45594000000E+02  0.51100000000E-03 0.  1.
    9900012    2    1    2    0    0 -0.20695571179E+02 -0.21181178683E+02 -0.27860667300E+02  0.50528858602E+02  0.29999996207E+02 0.  0.
         12    1    1    2    0    0  0.20695571179E+02  0.21181178683E+02  0.27860667300E+02  0.40659141398E+02  0.00000000000E+00 0. -1.
         11    1    3    3    0    0 -0.10322154610E+02 -0.96220271735E+01 -0.58015883226E+01  0.15257414920E+02  0.51100000000E-03 0.  1.
        -11    1    3    3    0    0 -0.16050356256E+01 -0.14218513763E+02 -0.37413749859E+01  0.14789866803E+02  0.51100000000E-03 0. -1.
        -12    1    3    3    0    0 -0.87683809429E+01  0.26593622532E+01 -0.18317703991E+02  0.20481576879E+02  0.00000000000E+00 0.  1.
</event>
<event>
 7    1  0.4520156E-012  0.5052884E+02  0.7816164E-02  0.1300439E+00
        -11   -1    0    0    0    0  0.00000000000E+00  0.00000000000E+00  0.45593999997E+02  0.45594000000E+02  0.51100000000E-03 0. -1.
         11   -1    0    0    0    0 -0.00000000000E+00 -0.00000000000E+00 -0.45593999997E+02  0.45594000000E+02  0.51100000000E-03 0.  1.
    9900012    2    1    2    0    0  0.85319152299E+01  0.13007421339E+02 -0.37565683425E+02  0.50528841640E+02  0.29999944648E+02 0.  0.
         12    1    1    2    0    0 -0.85319152299E+01 -0.13007421339E+02  0.37565683425E+02  0.40659158360E+02  0.00000000000E+00 0. -1.
         11    1    3    3    0    0  0.52028241005E+01  0.11561265694E+02 -0.21534076316E+02  0.24988971290E+02  0.51100000000E-03 0. -1.
        -11    1    3    3    0    0 -0.35337412485E+01  0.85124215836E+01 -0.11386190204E+02  0.14649026454E+02  0.51100000000E-03 0.  1.
         12    1    3    3    0    0  0.68628323779E+01 -0.70662659377E+01 -0.46454169039E+01  0.10890843896E+02  0.00000000000E+00 0. -1.
</event>
<event>
 7    1  0.4520156E-012  0.5052887E+02  0.7816164E-02  0.1300439E+00
        -11   -1    0    0    0    0  0.00000000000E+00  0.00000000000E+00  0.45593999997E+02  0.45594000000E+02  0.51100000000E-03 0. -1.
         11   -1    0    0    0    0 -0.00000000000E+00 -0.00000000000E+00 -0.45593999997E+02  0.45594000000E+02  0.51100000000E-03 0.  1.
    9900012    2    1    2    0    0 -0.44615649990E+01  0.36413619931E+01  0.40249218570E+02  0.50528872182E+02  0.30000037484E+02 0.  0.
        -12    1    1    2    0    0  0.44615649990E+01 -0.36413619931E+01 -0.40249218570E+02  0.40659127818E+02  0.00000000000E+00 0.  1.
         11    1    3    3    0    0  0.65382500349E+01 -0.30483079883E+01  0.17812739042E+02  0.19218079184E+02  0.51100000000E-03 0. -1.
        -11    1    3    3    0    0 -0.44659819987E+01 -0.22817420646E+01 -0.12364981078E+01  0.51652947538E+01  0.51100000000E-03 0.  1.
        -12    1    3    3    0    0 -0.65338330353E+01  0.89714120460E+01  0.23672977637E+02  0.26145498244E+02  0.00000000000E+00 0.  1.
</event>
<event>
 7    1  0.4520156E-012  0.5052886E+02  0.7816164E-02  0.1300439E+00
        -11   -1    0    0    0    0  0.00000000000E+00  0.00000000000E+00  0.45593999997E+02  0.45594000000E+02  0.51100000000E-03 0. -1.
         11   -1    0    0    0    0 -0.00000000000E+00 -0.00000000000E+00 -0.45593999997E+02  0.45594000000E+02  0.51100000000E-03 0.  1.
    9900012    2    1    2    0    0  0.19846898730E+02  0.33993185791E+02 -0.10184774026E+02  0.50528859683E+02  0.29999999491E+02 0.  0.
         12    1    1    2    0    0 -0.19846898730E+02 -0.33993185791E+02  0.10184774026E+02  0.40659140317E+02  0.00000000000E+00 0. -1.
         11    1    3    3    0    0  0.89844452105E+01  0.10194580518E+02  0.68351155363E+01  0.15210803146E+02  0.51100000000E-03 0. -1.
        -11    1    3    3    0    0  0.89366804594E+01  0.34054965961E+01 -0.95482431242E+01  0.13514089378E+02  0.51100000000E-03 0.  1.
        -12    1    3    3    0    0  0.19257730600E+01  0.20393108676E+02 -0.74716464384E+01  0.21803967159E+02  0.00000000000E+00 0.  1.
</event>
<event>
 7    1  0.4520156E-012  0.5052884E+02  0.7816164E-02  0.1300439E+00
        -11   -1    0    0    0    0  0.00000000000E+00  0.00000000000E+00  0.45593999997E+02  0.45594000000E+02  0.51100000000E-03 0. -1.
         11   -1    0    0    0    0 -0.00000000000E+00 -0.00000000000E+00 -0.45593999997E+02  0.45594000000E+02  0.51100000000E-03 0.  1.
    9900012    2    1    2    0    0 -0.40383495998E+02  0.42370433669E+01 -0.20946809362E+01  0.50528843912E+02  0.29999951555E+02 0.  0.
        -12    1    1    2    0    0  0.40383495998E+02 -0.42370433669E+01  0.20946809362E+01  0.40659156088E+02  0.00000000000E+00 0.  1.
         11    1    3    3    0    0 -0.48423198698E+01  0.55445206418E+01  0.82848285203E+01  0.11082786416E+02  0.51100000000E-03 0. -1.
        -11    1    3    3    0    0 -0.68156242860E+00  0.20996656711E+00  0.22328228036E+01  0.23439520551E+01  0.51100000000E-03 0.  1.
         12    1    3    3    0    0 -0.34859613700E+02 -0.15174438420E+01 -0.12612332260E+02  0.37102105441E+02  0.00000000000E+00 0. -1.
</event>
<event>
 7    1  0.4520156E-012  0.5052888E+02  0.7816164E-02  0.1300439E+00
        -11   -1    0    0    0    0  0.00000000000E+00  0.00000000000E+00  0.45593999997E+02  0.45594000000E+02  0.51100000000E-03 0. -1.
         11   -1    0    0    0    0 -0.00000000000E+00 -0.00000000000E+00 -0.45593999997E+02  0.45594000000E+02  0.51100000000E-03 0.  1.
    9900012    2    1    2    0    0  0.24713604333E+02  0.18406486085E+02 -0.26525515175E+02  0.50528881411E+02  0.30000065537E+02 0.  0.
         12    1    1    2    0    0 -0.24713604333E+02 -0.18406486085E+02  0.26525515175E+02  0.40659118589E+02  0.00000000000E+00 0. -1.
         11    1    3    3    0    0  0.10482357495E+02  0.12869403871E+02  0.26600549258E+00  0.16600365472E+02  0.51100000000E-03 0.  1.
        -11    1    3    3    0    0  0.85931672928E+01  0.36425665522E+01 -0.36281737673E+01  0.10013713615E+02  0.51100000000E-03 0. -1.
         12    1    3    3    0    0  0.56380795456E+01  0.18945156619E+01 -0.23163346901E+02  0.23914802324E+02  0.00000000000E+00 0. -1.
</event>
<event>
 7    1  0.4520156E-012  0.5052895E+02  0.7816164E-02  0.1300438E+00
        -11   -1    0    0    0    0  0.00000000000E+00  0.00000000000E+00  0.45593999997E+02  0.45594000000E+02  0.51100000000E-03 0. -1.
         11   -1    0    0    0    0 -0.00000000000E+00 -0.00000000000E+00 -0.45593999997E+02  0.45594000000E+02  0.51100000000E-03 0.  1.
    9900012    2    1    2    0    0 -0.29282665021E+02 -0.18245740176E+01 -0.28148790413E+02  0.50528954970E+02  0.30000289125E+02 0.  0.
         12    1    1    2    0    0  0.29282665021E+02  0.18245740176E+01  0.28148790413E+02  0.40659045030E+02  0.00000000000E+00 0. -1.
         11    1    3    3    0    0 -0.16949106881E+02 -0.62885780046E+01 -0.11377529953E+02  0.21360398532E+02  0.51100000000E-03 0. -1.
        -11    1    3    3    0    0 -0.15803947102E+02 -0.85417692932E-01 -0.58741870493E+01  0.16860549041E+02  0.51100000000E-03 0.  1.
         12    1    3    3    0    0  0.34703889624E+01  0.45494216800E+01 -0.10897073410E+02  0.12308007397E+02  0.00000000000E+00 0. -1.
</event>
<event>
 7    1  0.4520156E-012  0.5052886E+02  0.7816164E-02  0.1300439E+00
        -11   -1    0    0    0    0  0.00000000000E+00  0.00000000000E+00  0.45593999997E+02  0.45594000000E+02  0.51100000000E-03 0. -1.
         11   -1    0    0    0    0 -0.00000000000E+00 -0.00000000000E+00 -0.45593999997E+02  0.45594000000E+02  0.51100000000E-03 0.  1.
    9900012    2    1    2    0    0 -0.11146771915E+01 -0.82095714354E+01 -0.39806106279E+02  0.50528860001E+02  0.30000000458E+02 0.  0.
         12    1    1    2    0    0  0.11146771915E+01  0.82095714354E+01  0.39806106279E+02  0.40659139999E+02  0.00000000000E+00 0. -1.
         11    1    3    3    0    0  0.28435248125E+01  0.24688851537E+01 -0.17646804690E+02  0.18044133210E+02  0.51100000000E-03 0. -1.
        -11    1    3    3    0    0  0.77797310229E+01 -0.31523883540E+01 -0.14016230757E+02  0.16337579136E+02  0.51100000000E-03 0.  1.
         12    1    3    3    0    0 -0.11737933027E+02 -0.75260682351E+01 -0.81430708314E+01  0.16147147655E+02  0.00000000000E+00 0. -1.
</event>
<event>
 7    1  0.4520156E-012  0.5052894E+02  0.7816164E-02  0.1300439E+00
        -11   -1    0    0    0    0  0.00000000000E+00  0.00000000000E+00  0.45593999997E+02  0.45594000000E+02  0.51100000000E-03 0.  1.
         11   -1    0    0    0    0 -0.00000000000E+00 -0.00000000000E+00 -0.45593999997E+02  0.45594000000E+02  0.51100000000E-03 0. -1.
    9900012    2    1    2    0    0  0.30560235070E+02  0.20071892456E+02  0.17786248386E+02  0.50528936239E+02  0.30000232191E+02 0.  0.
        -12    1    1    2    0    0 -0.30560235070E+02 -0.20071892456E+02 -0.17786248386E+02  0.40659063761E+02  0.00000000000E+00 0.  1.
         11    1    3    3    0    0  0.50186512878E+01  0.93539505457E+01  0.65411820609E+01  0.12468773579E+02  0.51100000000E-03 0. -1.
        -11    1    3    3    0    0  0.19681561420E+02  0.96776767275E+01  0.18488457611E+02  0.28685263670E+02  0.51100000000E-03 0.  1.
        -12    1    3    3    0    0  0.58600223624E+01  0.10402651827E+01 -0.72433912858E+01  0.93748989892E+01  0.00000000000E+00 0.  1.
</event>
<event>
 7    1  0.4520156E-012  0.5052879E+02  0.7816164E-02  0.1300439E+00
        -11   -1    0    0    0    0  0.00000000000E+00  0.00000000000E+00  0.45593999997E+02  0.45594000000E+02  0.51100000000E-03 0. -1.
         11   -1    0    0    0    0 -0.00000000000E+00 -0.00000000000E+00 -0.45593999997E+02  0.45594000000E+02  0.51100000000E-03 0.  1.
    9900012    2    1    2    0    0  0.38143380632E+02  0.98085061736E+01  0.10101828692E+02  0.50528791666E+02  0.29999792747E+02 0.  0.
        -12    1    1    2    0    0 -0.38143380632E+02 -0.98085061736E+01 -0.10101828692E+02  0.40659208334E+02  0.00000000000E+00 0.  1.
         11    1    3    3    0    0  0.17795720150E+02  0.15950034408E+01  0.73707218161E+01  0.19327680460E+02  0.51100000000E-03 0. -1.
        -11    1    3    3    0    0  0.22472199315E+02 -0.11393341884E+00  0.15459258165E+01  0.22525598988E+02  0.51100000000E-03 0.  1.
        -12    1    3    3    0    0 -0.21245388317E+01  0.83274361517E+01  0.11851810592E+01  0.86755122184E+01  0.00000000000E+00 0.  1.
</event>
<event>
 7    1  0.4520156E-012  0.5052886E+02  0.7816164E-02  0.1300439E+00
        -11   -1    0    0    0    0  0.00000000000E+00  0.00000000000E+00  0.45593999997E+02  0.45594000000E+02  0.51100000000E-03 0. -1.
         11   -1    0    0    0    0 -0.00000000000E+00 -0.00000000000E+00 -0.45593999997E+02  0.45594000000E+02  0.51100000000E-03 0.  1.
    9900012    2    1    2    0    0  0.13259332903E+02 -0.12312236996E+02  0.36411051566E+02  0.50528858776E+02  0.29999996737E+02 0.  0.
        -12    1    1    2    0    0 -0.13259332903E+02  0.12312236996E+02 -0.36411051566E+02  0.40659141224E+02  0.00000000000E+00 0.  1.
         11    1    3    3    0    0 -0.35354024948E+01 -0.52703451717E+01  0.74127330393E+01  0.97582898298E+01  0.51100000000E-03 0. -1.
        -11    1    3    3    0    0 -0.51221611084E+01 -0.29666140653E+01  0.92888435913E+01  0.11014533533E+02  0.51100000000E-03 0.  1.
         12    1    3    3    0    0  0.21916896507E+02 -0.40752777593E+01  0.19709474935E+02  0.29756035413E+02  0.00000000000E+00 0. -1.
</event>
<event>
 7    1  0.4520156E-012  0.5052886E+02  0.7816164E-02  0.1300439E+00
        -11   -1    0    0    0    0  0.00000000000E+00  0.00000000000E+00  0.45593999997E+02  0.45594000000E+02  0.51100000000E-03 0. -1.
         11   -1    0    0    0    0 -0.00000000000E+00 -0.00000000000E+00 -0.45593999997E+02  0.45594000000E+02  0.51100000000E-03 0.  1.
    9900012    2    1    2    0    0  0.53506522889E+01 -0.41571643858E+01 -0.40090571079E+02  0.50528863449E+02  0.30000010939E+02 0.  0.
         12    1    1    2    0    0 -0.53506522889E+01  0.41571643858E+01  0.40090571079E+02  0.40659136551E+02  0.00000000000E+00 0. -1.
         11    1    3    3    0    0  0.23574777791E+01  0.84396618876E+00  0.14423350153E+01  0.28896904617E+01  0.51100000000E-03 0. -1.
        -11    1    3    3    0    0 -0.86658493118E+01 -0.20220396155E+01 -0.28695212846E+02  0.30043315880E+02  0.51100000000E-03 0.  1.
         12    1    3    3    0    0  0.11659023822E+02 -0.29790909590E+01 -0.12837693248E+02  0.17595857107E+02  0.00000000000E+00 0. -1.
</event>
<event>
 7    1  0.4520156E-012  0.5052886E+02  0.7816164E-02  0.1300439E+00
        -11   -1    0    0    0    0  0.00000000000E+00  0.00000000000E+00  0.45593999997E+02  0.45594000000E+02  0.51100000000E-03 0. -1.
         11   -1    0    0    0    0 -0.00000000000E+00 -0.00000000000E+00 -0.45593999997E+02  0.45594000000E+02  0.51100000000E-03 0.  1.
    9900012    2    1    2    0    0 -0.30803069835E+02 -0.59091165784E+00  0.26532753172E+02  0.50528864757E+02  0.30000014916E+02 0.  0.
        -12    1    1    2    0    0  0.30803069835E+02  0.59091165784E+00 -0.26532753172E+02  0.40659135243E+02  0.00000000000E+00 0.  1.
         11    1    3    3    0    0 -0.81371965885E+01  0.58524319874E+01  0.10252369921E+02  0.14337922365E+02  0.51100000000E-03 0. -1.
        -11    1    3    3    0    0 -0.19735678907E+02  0.41525076663E+01  0.14976318478E+02  0.25120319609E+02  0.51100000000E-03 0.  1.
        -12    1    3    3    0    0 -0.29301943391E+01 -0.10595851312E+02  0.13040647728E+01  0.11070622783E+02  0.00000000000E+00 0.  1.
</event>
<event>
 7    1  0.4520156E-012  0.5052886E+02  0.7816164E-02  0.1300439E+00
        -11   -1    0    0    0    0  0.00000000000E+00  0.00000000000E+00  0.45593999997E+02  0.45594000000E+02  0.51100000000E-03 0. -1.
         11   -1    0    0    0    0 -0.00000000000E+00 -0.00000000000E+00 -0.45593999997E+02  0.45594000000E+02  0.51100000000E-03 0.  1.
    9900012    2    1    2    0    0  0.36059099851E+02 -0.74801982717E+01 -0.17232350653E+02  0.50528856412E+02  0.29999989551E+02 0.  0.
         12    1    1    2    0    0 -0.36059099851E+02  0.74801982717E+01  0.17232350653E+02  0.40659143588E+02  0.00000000000E+00 0. -1.
         11    1    3    3    0    0  0.16170233561E+00 -0.67886376636E+01 -0.14184359548E+01  0.69371254704E+01  0.51100000000E-03 0. -1.
        -11    1    3    3    0    0 -0.95366167299E-01 -0.40445826662E+01  0.20915975890E+00  0.40511099362E+01  0.51100000000E-03 0.  1.
        -12    1    3    3    0    0  0.35992763683E+02  0.33530220582E+01 -0.16023074457E+02  0.39540621006E+02  0.00000000000E+00 0.  1.
</event>
<event>
 7    1  0.4520156E-012  0.5052887E+02  0.7816164E-02  0.1300439E+00
        -11   -1    0    0    0    0  0.00000000000E+00  0.00000000000E+00  0.45593999997E+02  0.45594000000E+02  0.51100000000E-03 0. -1.
         11   -1    0    0    0    0 -0.00000000000E+00 -0.00000000000E+00 -0.45593999997E+02  0.45594000000E+02  0.51100000000E-03 0.  1.
    9900012    2    1    2    0    0  0.20173907455E+02 -0.36419511835E+01 -0.35112879486E+02  0.50528872412E+02  0.30000038184E+02 0.  0.
         12    1    1    2    0    0 -0.20173907455E+02  0.36419511835E+01  0.35112879486E+02  0.40659127588E+02  0.00000000000E+00 0. -1.
         11    1    3    3    0    0  0.76130093997E+01  0.74021382982E+01 -0.22895023492E+02  0.25237505116E+02  0.51100000000E-03 0. -1.
        -11    1    3    3    0    0  0.30765429952E+01  0.12383214389E+01 -0.87960886918E+01  0.94005177157E+01  0.51100000000E-03 0.  1.
         12    1    3    3    0    0  0.94843550599E+01 -0.12282410921E+02 -0.34217673015E+01  0.15890849581E+02  0.00000000000E+00 0. -1.
</event>
<event>
 7    1  0.4520156E-012  0.5052886E+02  0.7816164E-02  0.1300439E+00
        -11   -1    0    0    0    0  0.00000000000E+00  0.00000000000E+00  0.45593999997E+02  0.45594000000E+02  0.51100000000E-03 0. -1.
         11   -1    0    0    0    0 -0.00000000000E+00 -0.00000000000E+00 -0.45593999997E+02  0.45594000000E+02  0.51100000000E-03 0.  1.
    9900012    2    1    2    0    0  0.15610173901E+02 -0.57168733633E+01  0.37105331352E+02  0.50528858531E+02  0.29999995990E+02 0.  0.
        -12    1    1    2    0    0 -0.15610173901E+02  0.57168733633E+01 -0.37105331352E+02  0.40659141469E+02  0.00000000000E+00 0.  1.
         11    1    3    3    0    0  0.15922676305E+02 -0.29695194514E+01  0.12886941941E+02  0.20698380113E+02  0.51100000000E-03 0. -1.
        -11    1    3    3    0    0  0.76702608925E+01 -0.34183327601E+01  0.73633533817E+01  0.11168566349E+02  0.51100000000E-03 0.  1.
         12    1    3    3    0    0 -0.79827632960E+01  0.67097884833E+00  0.16855036030E+02  0.18661912068E+02  0.00000000000E+00 0. -1.
</event>
<event>
 7    1  0.4520156E-012  0.5052886E+02  0.7816164E-02  0.1300439E+00
        -11   -1    0    0    0    0  0.00000000000E+00  0.00000000000E+00  0.45593999997E+02  0.45594000000E+02  0.51100000000E-03 0.  1.
         11   -1    0    0    0    0 -0.00000000000E+00 -0.00000000000E+00 -0.45593999997E+02  0.45594000000E+02  0.51100000000E-03 0. -1.
    9900012    2    1    2    0    0 -0.22562822470E+02 -0.28711482870E+02  0.17881152916E+02  0.50528857904E+02  0.29999994085E+02 0.  0.
        -12    1    1    2    0    0  0.22562822470E+02  0.28711482870E+02 -0.17881152916E+02  0.40659142096E+02  0.00000000000E+00 0.  1.
         11    1    3    3    0    0 -0.35721491831E+01  0.16556093550E+01 -0.13203919709E+01  0.41526771294E+01  0.51100000000E-03 0.  1.
        -11    1    3    3    0    0 -0.17683514291E+02 -0.27776218323E+02  0.24015643233E+02  0.40755074557E+02  0.51100000000E-03 0. -1.
         12    1    3    3    0    0 -0.13071589957E+01 -0.25908739017E+01 -0.48140983469E+01  0.56211062175E+01  0.00000000000E+00 0. -1.
</event>
<event>
 7    1  0.4520156E-012  0.5052885E+02  0.7816164E-02  0.1300439E+00
        -11   -1    0    0    0    0  0.00000000000E+00  0.00000000000E+00  0.45593999997E+02  0.45594000000E+02  0.51100000000E-03 0. -1.
         11   -1    0    0    0    0 -0.00000000000E+00 -0.00000000000E+00 -0.45593999997E+02  0.45594000000E+02  0.51100000000E-03 0.  1.
    9900012    2    1    2    0    0  0.37612545759E+02  0.71371915370E+01 -0.13693906870E+02  0.50528853589E+02  0.29999980969E+02 0.  0.
         12    1    1    2    0    0 -0.37612545759E+02 -0.71371915370E+01  0.13693906870E+02  0.40659146411E+02  0.00000000000E+00 0. -1.
         11    1    3    3    0    0  0.72828656691E+00 -0.38817242890E+00  0.38135088576E+01  0.39017853896E+01  0.51100000000E-03 0. -1.
        -11    1    3    3    0    0  0.57089386417E+00  0.67904070513E+01 -0.17502831927E+01  0.70355553613E+01  0.51100000000E-03 0.  1.
        -12    1    3    3    0    0  0.36313365328E+02  0.73495691459E+00 -0.15757132535E+02  0.39591512838E+02  0.00000000000E+00 0.  1.
</event>
<event>
 7    1  0.4520156E-012  0.5052885E+02  0.7816164E-02  0.1300439E+00
        -11   -1    0    0    0    0  0.00000000000E+00  0.00000000000E+00  0.45593999997E+02  0.45594000000E+02  0.51100000000E-03 0. -1.
         11   -1    0    0    0    0 -0.00000000000E+00 -0.00000000000E+00 -0.45593999997E+02  0.45594000000E+02  0.51100000000E-03 0.  1.
    9900012    2    1    2    0    0  0.24954515714E+02 -0.32820677893E+00  0.32098762972E+02  0.50528853937E+02  0.29999982027E+02 0.  0.
        -12    1    1    2    0    0 -0.24954515714E+02  0.32820677893E+00 -0.32098762972E+02  0.40659146063E+02  0.00000000000E+00 0.  1.
         11    1    3    3    0    0  0.22379555335E+02 -0.60574263773E+01  0.32726100468E+02  0.40106540158E+02  0.51100000000E-03 0. -1.
        -11    1    3    3    0    0  0.40066619571E+01 -0.33896465409E+00  0.60693986483E+00  0.40665234951E+01  0.51100000000E-03 0.  1.
        -12    1    3    3    0    0 -0.14317015777E+01  0.60681842524E+01 -0.12342773613E+01  0.63557902840E+01  0.00000000000E+00 0.  1.
</event>
<event>
 7    1  0.4520156E-012  0.5052886E+02  0.7816164E-02  0.1300439E+00
        -11   -1    0    0    0    0  0.00000000000E+00  0.00000000000E+00  0.45593999997E+02  0.45594000000E+02  0.51100000000E-03 0. -1.
         11   -1    0    0    0    0 -0.00000000000E+00 -0.00000000000E+00 -0.45593999997E+02  0.45594000000E+02  0.51100000000E-03 0.  1.
    9900012    2    1    2    0    0  0.12627403027E+02  0.31446703418E+02 -0.22468176447E+02  0.50528863070E+02  0.30000009787E+02 0.  0.
         12    1    1    2    0    0 -0.12627403027E+02 -0.31446703418E+02  0.22468176447E+02  0.40659136930E+02  0.00000000000E+00 0. -1.
         11    1    3    3    0    0  0.61450875007E+01  0.28527550922E+01 -0.14564731666E+01  0.69297638022E+01  0.51100000000E-03 0. -1.
        -11    1    3    3    0    0  0.78917345075E+01  0.32278738104E+02 -0.15117986777E+02  0.36506847735E+02  0.51100000000E-03 0.  1.
         12    1    3    3    0    0 -0.14094189814E+01 -0.36847897782E+01 -0.58937165035E+01  0.70922515323E+01  0.00000000000E+00 0. -1.
</event>
<event>
 7    1  0.4520156E-012  0.5052886E+02  0.7816164E-02  0.1300439E+00
        -11   -1    0    0    0    0  0.00000000000E+00  0.00000000000E+00  0.45593999997E+02  0.45594000000E+02  0.51100000000E-03 0. -1.
         11   -1    0    0    0    0 -0.00000000000E+00 -0.00000000000E+00 -0.45593999997E+02  0.45594000000E+02  0.51100000000E-03 0.  1.
    9900012    2    1    2    0    0  0.14686319207E+02  0.16255396911E+02 -0.34252584729E+02  0.50528862513E+02  0.30000008094E+02 0.  0.
         12    1    1    2    0    0 -0.14686319207E+02 -0.16255396911E+02  0.34252584729E+02  0.40659137487E+02  0.00000000000E+00 0. -1.
         11    1    3    3    0    0 -0.35152498789E+01  0.54048410762E+01 -0.39721461628E+01  0.75727956641E+01  0.51100000000E-03 0. -1.
        -11    1    3    3    0    0 -0.38069182916E+01  0.69779311781E+01 -0.60127978558E+01  0.99668394549E+01  0.51100000000E-03 0.  1.
         12    1    3    3    0    0  0.22008487378E+02  0.38726246571E+01 -0.24267640710E+02  0.32989227394E+02  0.00000000000E+00 0. -1.
</event>
<event>
 7    1  0.4520156E-012  0.5052886E+02  0.7816164E-02  0.1300439E+00
        -11   -1    0    0    0    0  0.00000000000E+00  0.00000000000E+00  0.45593999997E+02  0.45594000000E+02  0.51100000000E-03 0. -1.
         11   -1    0    0    0    0 -0.00000000000E+00 -0.00000000000E+00 -0.45593999997E+02  0.45594000000E+02  0.51100000000E-03 0.  1.
    9900012    2    1    2    0    0 -0.10373210677E+02  0.31286817378E+02 -0.23805404162E+02  0.50528859470E+02  0.29999998844E+02 0.  0.
         12    1    1    2    0    0  0.10373210677E+02 -0.31286817378E+02  0.23805404162E+02  0.40659140530E+02  0.00000000000E+00 0. -1.
         11    1    3    3    0    0  0.43368967879E+01  0.38713820607E+01 -0.17969457098E+01  0.60848407501E+01  0.51100000000E-03 0. -1.
        -11    1    3    3    0    0  0.14361265153E+01  0.89560076349E+01  0.28663568288E+01  0.95125461289E+01  0.51100000000E-03 0.  1.
        -12    1    3    3    0    0 -0.16146233980E+02  0.18459427682E+02 -0.24874815281E+02  0.34931472591E+02  0.00000000000E+00 0.  1.
</event>
<event>
 7    1  0.4520156E-012  0.5052885E+02  0.7816164E-02  0.1300439E+00
        -11   -1    0    0    0    0  0.00000000000E+00  0.00000000000E+00  0.45593999997E+02  0.45594000000E+02  0.51100000000E-03 0. -1.
         11   -1    0    0    0    0 -0.00000000000E+00 -0.00000000000E+00 -0.45593999997E+02  0.45594000000E+02  0.51100000000E-03 0.  1.
    9900012    2    1    2    0    0 -0.16660633418E+01  0.11684184147E+02 -0.38908488462E+02  0.50528850960E+02  0.29999972979E+02 0.  0.
         12    1    1    2    0    0  0.16660633418E+01 -0.11684184147E+02  0.38908488462E+02  0.40659149040E+02  0.00000000000E+00 0. -1.
         11    1    3    3    0    0 -0.23300674423E+01 -0.13540258852E+01  0.31828156597E+01  0.41704815271E+01  0.51100000000E-03 0. -1.
        -11    1    3    3    0    0  0.56361424420E+00  0.15708365678E+01 -0.28612906824E+02  0.28661535649E+02  0.51100000000E-03 0.  1.
        -12    1    3    3    0    0  0.10038985631E+00  0.11467373464E+02 -0.13478397297E+02  0.17696833784E+02  0.00000000000E+00 0.  1.
</event>
<event>
 7    1  0.4520156E-012  0.5052886E+02  0.7816164E-02  0.1300439E+00
        -11   -1    0    0    0    0  0.00000000000E+00  0.00000000000E+00  0.45593999997E+02  0.45594000000E+02  0.51100000000E-03 0. -1.
         11   -1    0    0    0    0 -0.00000000000E+00 -0.00000000000E+00 -0.45593999997E+02  0.45594000000E+02  0.51100000000E-03 0.  1.
    9900012    2    1    2    0    0 -0.37851747946E+00 -0.21448936173E+02 -0.34539335795E+02  0.50528857663E+02  0.29999993354E+02 0.  0.
         12    1    1    2    0    0  0.37851747946E+00  0.21448936173E+02  0.34539335795E+02  0.40659142337E+02  0.00000000000E+00 0. -1.
         11    1    3    3    0    0  0.44707509195E+01  0.12873504782E-01 -0.16948888064E+02  0.17528621919E+02  0.51100000000E-03 0. -1.
        -11    1    3    3    0    0 -0.44097813371E+01  0.12997480078E+01 -0.69412364267E+00  0.46494434309E+01  0.51100000000E-03 0.  1.
        -12    1    3    3    0    0 -0.43948706191E+00 -0.22761557685E+02 -0.16896324088E+02  0.28350792314E+02  0.00000000000E+00 0.  1.
</event>
<event>
 7    1  0.4520156E-012  0.5052886E+02  0.7816164E-02  0.1300439E+00
        -11   -1    0    0    0    0  0.00000000000E+00  0.00000000000E+00  0.45593999997E+02  0.45594000000E+02  0.51100000000E-03 0.  1.
         11   -1    0    0    0    0 -0.00000000000E+00 -0.00000000000E+00 -0.45593999997E+02  0.45594000000E+02  0.51100000000E-03 0. -1.
    9900012    2    1    2    0    0  0.27269914067E+01 -0.37056851832E+02  0.16508144075E+02  0.50528861167E+02  0.30000004004E+02 0.  0.
        -12    1    1    2    0    0 -0.27269914067E+01  0.37056851832E+02 -0.16508144075E+02  0.40659138833E+02  0.00000000000E+00 0.  1.
         11    1    3    3    0    0  0.36699648130E+00 -0.15427671499E+02  0.37458719628E+01  0.15880154008E+02  0.51100000000E-03 0. -1.
        -11    1    3    3    0    0  0.95653323103E+01 -0.19752477241E+02  0.26720716092E+01  0.22108729188E+02  0.51100000000E-03 0.  1.
        -12    1    3    3    0    0 -0.72053373848E+01 -0.18767030911E+01  0.10090200503E+02  0.12539977971E+02  0.00000000000E+00 0.  1.
</event>
<event>
 7    1  0.4520156E-012  0.5052886E+02  0.7816164E-02  0.1300439E+00
        -11   -1    0    0    0    0  0.00000000000E+00  0.00000000000E+00  0.45593999997E+02  0.45594000000E+02  0.51100000000E-03 0. -1.
         11   -1    0    0    0    0 -0.00000000000E+00 -0.00000000000E+00 -0.45593999997E+02  0.45594000000E+02  0.51100000000E-03 0.  1.
    9900012    2    1    2    0    0  0.23348243752E+02  0.30803591122E+02 -0.12616005963E+02  0.50528864265E+02  0.30000013419E+02 0.  0.
         12    1    1    2    0    0 -0.23348243752E+02 -0.30803591122E+02  0.12616005963E+02  0.40659135735E+02  0.00000000000E+00 0. -1.
         11    1    3    3    0    0  0.83448819578E+01  0.90751692345E+01  0.69665192817E+01  0.14160795977E+02  0.51100000000E-03 0. -1.
        -11    1    3    3    0    0  0.82789325566E+01  0.30034124643E+01 -0.53292697710E+00  0.88229939438E+01  0.51100000000E-03 0.  1.
        -12    1    3    3    0    0  0.67244292371E+01  0.18725009423E+02 -0.19049598268E+02  0.27545074344E+02  0.00000000000E+00 0.  1.
</event>
<event>
 7    1  0.4520156E-012  0.5052886E+02  0.7816164E-02  0.1300439E+00
        -11   -1    0    0    0    0  0.00000000000E+00  0.00000000000E+00  0.45593999997E+02  0.45594000000E+02  0.51100000000E-03 0. -1.
         11   -1    0    0    0    0 -0.00000000000E+00 -0.00000000000E+00 -0.45593999997E+02  0.45594000000E+02  0.51100000000E-03 0.  1.
    9900012    2    1    2    0    0 -0.86479699266E+01  0.18905231648E+02 -0.34942382822E+02  0.50528864682E+02  0.30000014686E+02 0.  0.
         12    1    1    2    0    0  0.86479699266E+01 -0.18905231648E+02  0.34942382822E+02  0.40659135318E+02  0.00000000000E+00 0. -1.
         11    1    3    3    0    0  0.23591834351E+01 -0.20841669224E+00 -0.29243653612E+01  0.37631233072E+01  0.51100000000E-03 0. -1.
        -11    1    3    3    0    0  0.78753791071E+01  0.10944203272E+01 -0.66007957212E+01  0.10333917764E+02  0.51100000000E-03 0.  1.
        -12    1    3    3    0    0 -0.18882532469E+02  0.18019228013E+02 -0.25417221740E+02  0.36431823611E+02  0.00000000000E+00 0.  1.
</event>
<event>
 7    1  0.4520156E-012  0.5052888E+02  0.7816164E-02  0.1300439E+00
        -11   -1    0    0    0    0  0.00000000000E+00  0.00000000000E+00  0.45593999997E+02  0.45594000000E+02  0.51100000000E-03 0. -1.
         11   -1    0    0    0    0 -0.00000000000E+00 -0.00000000000E+00 -0.45593999997E+02  0.45594000000E+02  0.51100000000E-03 0.  1.
    9900012    2    1    2    0    0 -0.18920822936E+02  0.24329122644E+02 -0.26519059049E+02  0.50528877505E+02  0.30000053665E+02 0.  0.
         12    1    1    2    0    0  0.18920822936E+02 -0.24329122644E+02  0.26519059049E+02  0.40659122495E+02  0.00000000000E+00 0. -1.
         11    1    3    3    0    0 -0.43477294244E+01  0.14311351393E+01 -0.64601073465E+01  0.79173155882E+01  0.51100000000E-03 0. -1.
        -11    1    3    3    0    0 -0.17002377433E+02  0.41732534997E+01 -0.43243345670E+01  0.18033212494E+02  0.51100000000E-03 0.  1.
        -12    1    3    3    0    0  0.24292839219E+01  0.18724734005E+02 -0.15734617135E+02  0.24578349423E+02  0.00000000000E+00 0.  1.
</event>
<event>
 7    1  0.4520156E-012  0.5052886E+02  0.7816164E-02  0.1300439E+00
        -11   -1    0    0    0    0  0.00000000000E+00  0.00000000000E+00  0.45593999997E+02  0.45594000000E+02  0.51100000000E-03 0. -1.
         11   -1    0    0    0    0 -0.00000000000E+00 -0.00000000000E+00 -0.45593999997E+02  0.45594000000E+02  0.51100000000E-03 0.  1.
    9900012    2    1    2    0    0  0.19363675585E+02  0.52185604131E+01 -0.35369202491E+02  0.50528858472E+02  0.29999995810E+02 0.  0.
         12    1    1    2    0    0 -0.19363675585E+02 -0.52185604131E+01  0.35369202491E+02  0.40659141528E+02  0.00000000000E+00 0. -1.
         11    1    3    3    0    0 -0.62247441191E+01  0.31901851805E+01 -0.85501379978E+00  0.70466850145E+01  0.51100000000E-03 0. -1.
        -11    1    3    3    0    0  0.81909167653E-01 -0.43924612522E+00 -0.21773402880E+01  0.22227139405E+01  0.51100000000E-03 0.  1.
        -12    1    3    3    0    0  0.25506510537E+02  0.24676213578E+01 -0.32336848403E+02  0.41259459517E+02  0.00000000000E+00 0.  1.
</event>
<event>
 7    1  0.4520156E-012  0.5052887E+02  0.7816164E-02  0.1300439E+00
        -11   -1    0    0    0    0  0.00000000000E+00  0.00000000000E+00  0.45593999997E+02  0.45594000000E+02  0.51100000000E-03 0. -1.
         11   -1    0    0    0    0 -0.00000000000E+00 -0.00000000000E+00 -0.45593999997E+02  0.45594000000E+02  0.51100000000E-03 0.  1.
    9900012    2    1    2    0    0 -0.16801686721E+02 -0.62529408735E+01 -0.36493414255E+02  0.50528865353E+02  0.30000016726E+02 0.  0.
         12    1    1    2    0    0  0.16801686721E+02  0.62529408735E+01  0.36493414255E+02  0.40659134647E+02  0.00000000000E+00 0. -1.
         11    1    3    3    0    0  0.42356580824E+01  0.55560771798E+01 -0.56448968697E+01  0.89819627002E+01  0.51100000000E-03 0. -1.
        -11    1    3    3    0    0 -0.86842127465E+01 -0.25223769083E+01 -0.21888210058E+02  0.23682729490E+02  0.51100000000E-03 0.  1.
        -12    1    3    3    0    0 -0.12353132057E+02 -0.92866411450E+01 -0.89603073282E+01  0.17864173163E+02  0.00000000000E+00 0.  1.
</event>
<event>
 7    1  0.4520156E-012  0.5052886E+02  0.7816164E-02  0.1300439E+00
        -11   -1    0    0    0    0  0.00000000000E+00  0.00000000000E+00  0.45593999997E+02  0.45594000000E+02  0.51100000000E-03 0. -1.
         11   -1    0    0    0    0 -0.00000000000E+00 -0.00000000000E+00 -0.45593999997E+02  0.45594000000E+02  0.51100000000E-03 0.  1.
    9900012    2    1    2    0    0  0.14840173757E+02  0.12579347806E+02  0.35702866051E+02  0.50528863356E+02  0.30000010657E+02 0.  0.
        -12    1    1    2    0    0 -0.14840173757E+02 -0.12579347806E+02 -0.35702866051E+02  0.40659136644E+02  0.00000000000E+00 0.  1.
         11    1    3    3    0    0  0.31693139927E+00 -0.49665387233E-01 -0.84683501721E+00  0.90556168758E+00  0.51100000000E-03 0.  1.
        -11    1    3    3    0    0  0.92862973524E+01 -0.30909479797E+01  0.30421344412E+02  0.31956962841E+02  0.51100000000E-03 0. -1.
         12    1    3    3    0    0  0.52369450049E+01  0.15719961173E+02  0.61283566569E+01  0.17666338828E+02  0.00000000000E+00 0. -1.
</event>
<event>
 7    1  0.4520156E-012  0.5052886E+02  0.7816164E-02  0.1300439E+00
        -11   -1    0    0    0    0  0.00000000000E+00  0.00000000000E+00  0.45593999997E+02  0.45594000000E+02  0.51100000000E-03 0. -1.
         11   -1    0    0    0    0 -0.00000000000E+00 -0.00000000000E+00 -0.45593999997E+02  0.45594000000E+02  0.51100000000E-03 0.  1.
    9900012    2    1    2    0    0 -0.25942393494E+01 -0.29334852292E+02  0.28033943170E+02  0.50528860727E+02  0.30000002665E+02 0.  0.
        -12    1    1    2    0    0  0.25942393494E+01  0.29334852292E+02 -0.28033943170E+02  0.40659139273E+02  0.00000000000E+00 0.  1.
         11    1    3    3    0    0 -0.20176978714E+01  0.10996451417E+01  0.24211709058E+01  0.33380223118E+01  0.51100000000E-03 0. -1.
        -11    1    3    3    0    0 -0.79750949431E+01  0.34158245500E+00  0.51278651805E+01  0.94875613039E+01  0.51100000000E-03 0.  1.
         12    1    3    3    0    0  0.73985534651E+01 -0.30776079889E+02  0.20484907083E+02  0.37703277111E+02  0.00000000000E+00 0. -1.
</event>
<event>
 7    1  0.4520156E-012  0.5052886E+02  0.7816164E-02  0.1300439E+00
        -11   -1    0    0    0    0  0.00000000000E+00  0.00000000000E+00  0.45593999997E+02  0.45594000000E+02  0.51100000000E-03 0. -1.
         11   -1    0    0    0    0 -0.00000000000E+00 -0.00000000000E+00 -0.45593999997E+02  0.45594000000E+02  0.51100000000E-03 0.  1.
    9900012    2    1    2    0    0  0.10530772511E+02  0.73702808992E+01  0.38573925249E+02  0.50528856879E+02  0.29999990969E+02 0.  0.
        -12    1    1    2    0    0 -0.10530772511E+02 -0.73702808992E+01 -0.38573925249E+02  0.40659143121E+02  0.00000000000E+00 0.  1.
         11    1    3    3    0    0 -0.16077622080E+00 -0.66651863373E+01  0.27147489620E+01  0.71986401557E+01  0.51100000000E-03 0. -1.
        -11    1    3    3    0    0  0.51565423819E+01 -0.20843735149E+01  0.30134025140E+01  0.63257519125E+01  0.51100000000E-03 0.  1.
         12    1    3    3    0    0  0.55350063502E+01  0.16119840751E+02  0.32845773773E+02  0.37004464811E+02  0.00000000000E+00 0. -1.
</event>
<event>
 7    1  0.4520156E-012  0.5052885E+02  0.7816164E-02  0.1300439E+00
        -11   -1    0    0    0    0  0.00000000000E+00  0.00000000000E+00  0.45593999997E+02  0.45594000000E+02  0.51100000000E-03 0. -1.
         11   -1    0    0    0    0 -0.00000000000E+00 -0.00000000000E+00 -0.45593999997E+02  0.45594000000E+02  0.51100000000E-03 0.  1.
    9900012    2    1    2    0    0  0.27194381981E+02  0.13290469239E+02 -0.27147664367E+02  0.50528847716E+02  0.29999963116E+02 0.  0.
         12    1    1    2    0    0 -0.27194381981E+02 -0.13290469239E+02  0.27147664367E+02  0.40659152284E+02  0.00000000000E+00 0. -1.
         11    1    3    3    0    0  0.11839874355E+02  0.84070894261E+01 -0.65077080278E+01  0.15912637789E+02  0.51100000000E-03 0. -1.
        -11    1    3    3    0    0  0.15663573946E+02  0.11199054689E+02 -0.87515497269E+01  0.21150791890E+02  0.51100000000E-03 0.  1.
         12    1    3    3    0    0 -0.30906632006E+00 -0.63156748761E+01 -0.11888406612E+02  0.13465418037E+02  0.00000000000E+00 0. -1.
</event>
<event>
 7    1  0.4520156E-012  0.5052886E+02  0.7816164E-02  0.1300439E+00
        -11   -1    0    0    0    0  0.00000000000E+00  0.00000000000E+00  0.45593999997E+02  0.45594000000E+02  0.51100000000E-03 0. -1.
         11   -1    0    0    0    0 -0.00000000000E+00 -0.00000000000E+00 -0.45593999997E+02  0.45594000000E+02  0.51100000000E-03 0.  1.
    9900012    2    1    2    0    0  0.47951466005E+01 -0.30385231088E+02  0.26587783583E+02  0.50528856686E+02  0.29999990383E+02 0.  0.
        -12    1    1    2    0    0 -0.47951466005E+01  0.30385231088E+02 -0.26587783583E+02  0.40659143314E+02  0.00000000000E+00 0.  1.
         11    1    3    3    0    0 -0.84588022655E+01 -0.25001292968E+02  0.16552790271E+02  0.31154628096E+02  0.51100000000E-03 0. -1.
        -11    1    3    3    0    0  0.33985499038E+00 -0.28987778459E+01  0.15016846760E+00  0.29224929844E+01  0.51100000000E-03 0.  1.
        -12    1    3    3    0    0  0.12914093876E+02 -0.24851602740E+01  0.98848248446E+01  0.16451735605E+02  0.00000000000E+00 0.  1.
</event>
<event>
 7    1  0.4520156E-012  0.5052885E+02  0.7816164E-02  0.1300439E+00
        -11   -1    0    0    0    0  0.00000000000E+00  0.00000000000E+00  0.45593999997E+02  0.45594000000E+02  0.51100000000E-03 0. -1.
         11   -1    0    0    0    0 -0.00000000000E+00 -0.00000000000E+00 -0.45593999997E+02  0.45594000000E+02  0.51100000000E-03 0.  1.
    9900012    2    1    2    0    0 -0.38310055665E+01 -0.33278223140E+01 -0.40341242231E+02  0.50528845684E+02  0.29999956940E+02 0.  0.
         12    1    1    2    0    0  0.38310055665E+01  0.33278223140E+01  0.40341242231E+02  0.40659154316E+02  0.00000000000E+00 0. -1.
         11    1    3    3    0    0 -0.12461628723E+02 -0.52458522626E+00 -0.87108420473E+01  0.15213354315E+02  0.51100000000E-03 0. -1.
        -11    1    3    3    0    0 -0.27885473622E+01  0.15396639716E+01 -0.40675874868E+01  0.51664136265E+01  0.51100000000E-03 0.  1.
         12    1    3    3    0    0  0.11419170518E+02 -0.43429010593E+01 -0.27562812697E+02  0.30149077742E+02  0.00000000000E+00 0. -1.
</event>
<event>
 7    1  0.4520156E-012  0.5052889E+02  0.7816164E-02  0.1300439E+00
        -11   -1    0    0    0    0  0.00000000000E+00  0.00000000000E+00  0.45593999997E+02  0.45594000000E+02  0.51100000000E-03 0. -1.
         11   -1    0    0    0    0 -0.00000000000E+00 -0.00000000000E+00 -0.45593999997E+02  0.45594000000E+02  0.51100000000E-03 0.  1.
    9900012    2    1    2    0    0  0.31069463731E+02  0.20051298803E+02 -0.16905532652E+02  0.50528890388E+02  0.30000092822E+02 0.  0.
         12    1    1    2    0    0 -0.31069463731E+02 -0.20051298803E+02  0.16905532652E+02  0.40659109612E+02  0.00000000000E+00 0. -1.
         11    1    3    3    0    0  0.72435546351E+01  0.49000473694E+01  0.25110993439E+01  0.90986355104E+01  0.51100000000E-03 0. -1.
        -11    1    3    3    0    0  0.61626597480E+01 -0.37916442871E+01  0.23399618289E+01  0.76046277484E+01  0.51100000000E-03 0.  1.
        -12    1    3    3    0    0  0.17663249348E+02  0.18942895721E+02 -0.21756593825E+02  0.33825627129E+02  0.00000000000E+00 0.  1.
</event>
<event>
 7    1  0.4520156E-012  0.5052886E+02  0.7816164E-02  0.1300439E+00
        -11   -1    0    0    0    0  0.00000000000E+00  0.00000000000E+00  0.45593999997E+02  0.45594000000E+02  0.51100000000E-03 0. -1.
         11   -1    0    0    0    0 -0.00000000000E+00 -0.00000000000E+00 -0.45593999997E+02  0.45594000000E+02  0.51100000000E-03 0.  1.
    9900012    2    1    2    0    0 -0.30558734267E+02  0.73015313515E+01  0.25807308223E+02  0.50528858865E+02  0.29999997007E+02 0.  0.
        -12    1    1    2    0    0  0.30558734267E+02 -0.73015313515E+01 -0.25807308223E+02  0.40659141135E+02  0.00000000000E+00 0.  1.
         11    1    3    3    0    0 -0.15653355863E+02 -0.47243247929E+01  0.19574041046E+02  0.25504703050E+02  0.51100000000E-03 0. -1.
        -11    1    3    3    0    0 -0.88397491556E+01 -0.18705628758E+01  0.16578496188E+01  0.91863287675E+01  0.51100000000E-03 0.  1.
         12    1    3    3    0    0 -0.60656292487E+01  0.13896419020E+02  0.45754175579E+01  0.15837827048E+02  0.00000000000E+00 0. -1.
</event>
<event>
 7    1  0.4520156E-012  0.5052883E+02  0.7816164E-02  0.1300439E+00
        -11   -1    0    0    0    0  0.00000000000E+00  0.00000000000E+00  0.45593999997E+02  0.45594000000E+02  0.51100000000E-03 0. -1.
         11   -1    0    0    0    0 -0.00000000000E+00 -0.00000000000E+00 -0.45593999997E+02  0.45594000000E+02  0.51100000000E-03 0.  1.
    9900012    2    1    2    0    0  0.19268957824E+02 -0.31361438323E+00  0.35801911926E+02  0.50528831450E+02  0.29999913675E+02 0.  0.
        -12    1    1    2    0    0 -0.19268957824E+02  0.31361438323E+00 -0.35801911926E+02  0.40659168550E+02  0.00000000000E+00 0.  1.
         11    1    3    3    0    0  0.90011679129E+01  0.11153843357E+01  0.83733039032E+01  0.12344121051E+02  0.51100000000E-03 0. -1.
        -11    1    3    3    0    0  0.80536170365E+01 -0.11497609632E+02  0.23041518155E+02  0.26980869774E+02  0.51100000000E-03 0.  1.
         12    1    3    3    0    0  0.22141728747E+01  0.10068610913E+02  0.43870898681E+01  0.11203840624E+02  0.00000000000E+00 0. -1.
</event>
<event>
 7    1  0.5260521E-012  0.5052884E+02  0.7816164E-02  0.1300439E+00
        -11   -1    0    0    0    0  0.00000000000E+00  0.00000000000E+00  0.45593999997E+02  0.45594000000E+02  0.51100000000E-03 0. -1.
         11   -1    0    0    0    0 -0.00000000000E+00 -0.00000000000E+00 -0.45593999997E+02  0.45594000000E+02  0.51100000000E-03 0.  1.
    9900012    2    1    2    0    0  0.39252844636E+01  0.63967375668E+01  0.39960490238E+02  0.50528844947E+02  0.29999954700E+02 0.  0.
        -12    1    1    2    0    0 -0.39252844636E+01 -0.63967375668E+01 -0.39960490238E+02  0.40659155053E+02  0.00000000000E+00 0.  1.
         11    1    3    3    0    0 -0.58474463932E+01  0.32863506371E+01  0.37687572723E+01  0.76939106747E+01  0.51100000000E-03 0. -1.
        -11    1    3    3    0    0 -0.10638477493E+01  0.67965389461E+01  0.26129282011E+01  0.73588115702E+01  0.51100000000E-03 0.  1.
         12    1    3    3    0    0  0.10836578606E+02 -0.36861520164E+01  0.33578804764E+02  0.35476122702E+02  0.00000000000E+00 0. -1.
</event>
<event>
 7    1  0.4520156E-012  0.5052887E+02  0.7816164E-02  0.1300439E+00
        -11   -1    0    0    0    0  0.00000000000E+00  0.00000000000E+00  0.45593999997E+02  0.45594000000E+02  0.51100000000E-03 0. -1.
         11   -1    0    0    0    0 -0.00000000000E+00 -0.00000000000E+00 -0.45593999997E+02  0.45594000000E+02  0.51100000000E-03 0.  1.
    9900012    2    1    2    0    0 -0.14016778975E+02  0.34644104250E+02  0.16015012519E+02  0.50528872143E+02  0.30000037367E+02 0.  0.
        -12    1    1    2    0    0  0.14016778975E+02 -0.34644104250E+02 -0.16015012519E+02  0.40659127857E+02  0.00000000000E+00 0.  1.
         11    1    3    3    0    0  0.19808928298E+01  0.21413441090E+02 -0.17352278150E+01  0.21574763302E+02  0.51100000000E-03 0. -1.
        -11    1    3    3    0    0 -0.10513055245E+01  0.62693748836E+01  0.42829461110E+01  0.76651113747E+01  0.51100000000E-03 0.  1.
         12    1    3    3    0    0 -0.14946366280E+02  0.69612882760E+01  0.13467294223E+02  0.21288997466E+02  0.00000000000E+00 0. -1.
</event>
<event>
 7    1  0.4520156E-012  0.5052888E+02  0.7816164E-02  0.1300439E+00
        -11   -1    0    0    0    0  0.00000000000E+00  0.00000000000E+00  0.45593999997E+02  0.45594000000E+02  0.51100000000E-03 0. -1.
         11   -1    0    0    0    0 -0.00000000000E+00 -0.00000000000E+00 -0.45593999997E+02  0.45594000000E+02  0.51100000000E-03 0.  1.
    9900012    2    1    2    0    0  0.14504903678E+02  0.79886468798E+01  0.37134263632E+02  0.50528877467E+02  0.30000053549E+02 0.  0.
        -12    1    1    2    0    0 -0.14504903678E+02 -0.79886468798E+01 -0.37134263632E+02  0.40659122533E+02  0.00000000000E+00 0.  1.
         11    1    3    3    0    0  0.31124582890E+01  0.38199195854E+01  0.58648243034E+01  0.76599834602E+01  0.51100000000E-03 0. -1.
        -11    1    3    3    0    0 -0.24063177846E+00  0.13767576430E+02  0.18778679760E+02  0.23286109126E+02  0.51100000000E-03 0.  1.
         12    1    3    3    0    0  0.11633077167E+02 -0.95988491357E+01  0.12490759568E+02  0.19582784881E+02  0.00000000000E+00 0. -1.
</event>
<event>
 7    1  0.4520156E-012  0.5052888E+02  0.7816164E-02  0.1300439E+00
        -11   -1    0    0    0    0  0.00000000000E+00  0.00000000000E+00  0.45593999997E+02  0.45594000000E+02  0.51100000000E-03 0. -1.
         11   -1    0    0    0    0 -0.00000000000E+00 -0.00000000000E+00 -0.45593999997E+02  0.45594000000E+02  0.51100000000E-03 0.  1.
    9900012    2    1    2    0    0 -0.14785518529E+02  0.27332246356E+02 -0.26220243590E+02  0.50528875281E+02  0.30000046904E+02 0.  0.
         12    1    1    2    0    0  0.14785518529E+02 -0.27332246356E+02  0.26220243590E+02  0.40659124719E+02  0.00000000000E+00 0. -1.
         11    1    3    3    0    0 -0.59943886448E+01  0.14350779314E+02 -0.20429901030E+02  0.25676028090E+02  0.51100000000E-03 0. -1.
        -11    1    3    3    0    0 -0.22925890340E+00  0.38780760495E+01 -0.10732536419E+02  0.11413998937E+02  0.51100000000E-03 0.  1.
         12    1    3    3    0    0 -0.85618709803E+01  0.91033909925E+01  0.49421938589E+01  0.13438848254E+02  0.00000000000E+00 0. -1.
</event>
<event>
 7    1  0.4520156E-012  0.5052886E+02  0.7816164E-02  0.1300439E+00
        -11   -1    0    0    0    0  0.00000000000E+00  0.00000000000E+00  0.45593999997E+02  0.45594000000E+02  0.51100000000E-03 0. -1.
         11   -1    0    0    0    0 -0.00000000000E+00 -0.00000000000E+00 -0.45593999997E+02  0.45594000000E+02  0.51100000000E-03 0.  1.
    9900012    2    1    2    0    0  0.26151020998E+02 -0.14263381790E+02  0.27673918336E+02  0.50528859387E+02  0.29999998591E+02 0.  0.
        -12    1    1    2    0    0 -0.26151020998E+02  0.14263381790E+02 -0.27673918336E+02  0.40659140613E+02  0.00000000000E+00 0.  1.
         11    1    3    3    0    0  0.14216330439E+02 -0.16648163487E+02  0.94990420865E+01  0.23864140451E+02  0.51100000000E-03 0. -1.
        -11    1    3    3    0    0 -0.21674163053E+00 -0.34339094875E+01 -0.66379877401E+00  0.35041889756E+01  0.51100000000E-03 0.  1.
         12    1    3    3    0    0  0.12151432190E+02  0.58186911849E+01  0.18838675024E+02  0.23160529960E+02  0.00000000000E+00 0. -1.
</event>
<event>
 7    1  0.4520156E-012  0.5052886E+02  0.7816164E-02  0.1300439E+00
        -11   -1    0    0    0    0  0.00000000000E+00  0.00000000000E+00  0.45593999997E+02  0.45594000000E+02  0.51100000000E-03 0. -1.
         11   -1    0    0    0    0 -0.00000000000E+00 -0.00000000000E+00 -0.45593999997E+02  0.45594000000E+02  0.51100000000E-03 0.  1.
    9900012    2    1    2    0    0 -0.17403988199E+01  0.14340317196E+02  0.38006470286E+02  0.50528862418E+02  0.30000007805E+02 0.  0.
        -12    1    1    2    0    0  0.17403988199E+01 -0.14340317196E+02 -0.38006470286E+02  0.40659137582E+02  0.00000000000E+00 0.  1.
         11    1    3    3    0    0 -0.70333549458E+01  0.10155044448E+02  0.27730762488E+02  0.30357671155E+02  0.51100000000E-03 0. -1.
        -11    1    3    3    0    0  0.77891141659E+00  0.23788933269E+01  0.13889471646E+02  0.14113229939E+02  0.51100000000E-03 0.  1.
        -12    1    3    3    0    0  0.45140447093E+01  0.18063794208E+01 -0.36137638477E+01  0.60579613234E+01  0.00000000000E+00 0.  1.
</event>
<event>
 7    1  0.4520156E-012  0.5052886E+02  0.7816164E-02  0.1300439E+00
        -11   -1    0    0    0    0  0.00000000000E+00  0.00000000000E+00  0.45593999997E+02  0.45594000000E+02  0.51100000000E-03 0.  1.
         11   -1    0    0    0    0 -0.00000000000E+00 -0.00000000000E+00 -0.45593999997E+02  0.45594000000E+02  0.51100000000E-03 0. -1.
    9900012    2    1    2    0    0  0.26133735597E+02  0.30062250354E+02  0.81519794895E+01  0.50528858319E+02  0.29999995347E+02 0.  0.
        -12    1    1    2    0    0 -0.26133735597E+02 -0.30062250354E+02 -0.81519794895E+01  0.40659141681E+02  0.00000000000E+00 0.  1.
         11    1    3    3    0    0 -0.11719171535E+01  0.98056791874E+01 -0.47068376304E+00  0.98866717154E+01  0.51100000000E-03 0. -1.
        -11    1    3    3    0    0 -0.37712403792E+00  0.83547494281E+01  0.62025656220E+01  0.10412294709E+02  0.51100000000E-03 0.  1.
        -12    1    3    3    0    0  0.27682776789E+02  0.11901821739E+02  0.24200976306E+01  0.30229891895E+02  0.00000000000E+00 0.  1.
</event>
<event>
 7    1  0.5757041E-012  0.5052886E+02  0.7816164E-02  0.1300439E+00
        -11   -1    0    0    0    0  0.00000000000E+00  0.00000000000E+00  0.45593999997E+02  0.45594000000E+02  0.51100000000E-03 0. -1.
         11   -1    0    0    0    0 -0.00000000000E+00 -0.00000000000E+00 -0.45593999997E+02  0.45594000000E+02  0.51100000000E-03 0.  1.
    9900012    2    1    2    0    0 -0.27307736252E+02  0.73614224370E+01  0.29210662324E+02  0.50528858434E+02  0.29999995696E+02 0.  0.
        -12    1    1    2    0    0  0.27307736252E+02 -0.73614224370E+01 -0.29210662324E+02  0.40659141566E+02  0.00000000000E+00 0.  1.
         11    1    3    3    0    0 -0.37176495830E+01  0.96488574682E+01  0.83771177630E+01  0.13307797381E+02  0.51100000000E-03 0. -1.
        -11    1    3    3    0    0 -0.56339311086E+01 -0.30805133274E+01 -0.32285828199E+01  0.71871057724E+01  0.51100000000E-03 0.  1.
         12    1    3    3    0    0 -0.17956155560E+02  0.79307829623E+00  0.24062127381E+02  0.30033955280E+02  0.00000000000E+00 0. -1.
</event>
<event>
 7    1  0.4520156E-012  0.5052894E+02  0.7816164E-02  0.1300439E+00
        -11   -1    0    0    0    0  0.00000000000E+00  0.00000000000E+00  0.45593999997E+02  0.45594000000E+02  0.51100000000E-03 0. -1.
         11   -1    0    0    0    0 -0.00000000000E+00 -0.00000000000E+00 -0.45593999997E+02  0.45594000000E+02  0.51100000000E-03 0.  1.
    9900012    2    1    2    0    0  0.24624934430E+02 -0.16540518442E+02 -0.27806168139E+02  0.50528940338E+02  0.30000244652E+02 0.  0.
         12    1    1    2    0    0 -0.24624934430E+02  0.16540518442E+02  0.27806168139E+02  0.40659059662E+02  0.00000000000E+00 0. -1.
         11    1    3    3    0    0  0.30444559561E+01  0.20111517855E+01 -0.97750925579E+01  0.10433881270E+02  0.51100000000E-03 0. -1.
        -11    1    3    3    0    0  0.30731217317E+01  0.30346587526E+01 -0.94568727517E+01  0.10396425993E+02  0.51100000000E-03 0.  1.
        -12    1    3    3    0    0  0.18507356742E+02 -0.21586328980E+02 -0.85742028290E+01  0.29698633076E+02  0.00000000000E+00 0.  1.
</event>
<event>
 7    1  0.4520156E-012  0.5052886E+02  0.7816164E-02  0.1300439E+00
        -11   -1    0    0    0    0  0.00000000000E+00  0.00000000000E+00  0.45593999997E+02  0.45594000000E+02  0.51100000000E-03 0. -1.
         11   -1    0    0    0    0 -0.00000000000E+00 -0.00000000000E+00 -0.45593999997E+02  0.45594000000E+02  0.51100000000E-03 0.  1.
    9900012    2    1    2    0    0 -0.25090094311E+02  0.21163797469E+01  0.31924503355E+02  0.50528858220E+02  0.29999995046E+02 0.  0.
        -12    1    1    2    0    0  0.25090094311E+02 -0.21163797469E+01 -0.31924503355E+02  0.40659141780E+02  0.00000000000E+00 0.  1.
         11    1    3    3    0    0 -0.12167867483E+02  0.19685666040E+01  0.18178107671E+02  0.21963056534E+02  0.51100000000E-03 0. -1.
        -11    1    3    3    0    0 -0.11802207218E+02  0.89935060986E+01  0.12805640496E+02  0.19599991733E+02  0.51100000000E-03 0.  1.
        -12    1    3    3    0    0 -0.11200196101E+01 -0.88456929557E+01  0.94075518845E+00  0.89658099532E+01  0.00000000000E+00 0.  1.
</event>
<event>
 7    1  0.4520156E-012  0.5052885E+02  0.7816164E-02  0.1300439E+00
        -11   -1    0    0    0    0  0.00000000000E+00  0.00000000000E+00  0.45593999997E+02  0.45594000000E+02  0.51100000000E-03 0. -1.
         11   -1    0    0    0    0 -0.00000000000E+00 -0.00000000000E+00 -0.45593999997E+02  0.45594000000E+02  0.51100000000E-03 0.  1.
    9900012    2    1    2    0    0 -0.24516851535E+02 -0.46762770452E+01  0.32097087417E+02  0.50528848548E+02  0.29999965646E+02 0.  0.
        -12    1    1    2    0    0  0.24516851535E+02  0.46762770452E+01 -0.32097087417E+02  0.40659151452E+02  0.00000000000E+00 0.  1.
         11    1    3    3    0    0 -0.17107099928E+02 -0.20795599956E+01  0.15668545095E+02  0.23291216013E+02  0.51100000000E-03 0. -1.
        -11    1    3    3    0    0 -0.10798857513E+02 -0.86193963013E+01  0.14573471184E+02  0.20082215486E+02  0.51100000000E-03 0.  1.
        -12    1    3    3    0    0  0.33891059066E+01  0.60226792518E+01  0.18550711370E+01  0.71554170486E+01  0.00000000000E+00 0.  1.
</event>
<event>
 7    1  0.4520156E-012  0.5052885E+02  0.7816164E-02  0.1300439E+00
        -11   -1    0    0    0    0  0.00000000000E+00  0.00000000000E+00  0.45593999997E+02  0.45594000000E+02  0.51100000000E-03 0. -1.
         11   -1    0    0    0    0 -0.00000000000E+00 -0.00000000000E+00 -0.45593999997E+02  0.45594000000E+02  0.51100000000E-03 0.  1.
    9900012    2    1    2    0    0  0.79167994071E+00 -0.24311889455E+02  0.32580231374E+02  0.50528853399E+02  0.29999980390E+02 0.  0.
        -12    1    1    2    0    0 -0.79167994071E+00  0.24311889455E+02 -0.32580231374E+02  0.40659146601E+02  0.00000000000E+00 0.  1.
         11    1    3    3    0    0  0.73216066035E+01 -0.23476367934E+02  0.17290859895E+02  0.30061929592E+02  0.51100000000E-03 0. -1.
        -11    1    3    3    0    0 -0.29585401775E+01 -0.45993161393E+00  0.16428806977E+02  0.16699407056E+02  0.51100000000E-03 0.  1.
        -12    1    3    3    0    0 -0.35713864853E+01 -0.37558990659E+00 -0.11394354987E+01  0.37675167500E+01  0.00000000000E+00 0.  1.
</event>
<event>
 7    1  0.4520156E-012  0.5052885E+02  0.7816164E-02  0.1300439E+00
        -11   -1    0    0    0    0  0.00000000000E+00  0.00000000000E+00  0.45593999997E+02  0.45594000000E+02  0.51100000000E-03 0. -1.
         11   -1    0    0    0    0 -0.00000000000E+00 -0.00000000000E+00 -0.45593999997E+02  0.45594000000E+02  0.51100000000E-03 0.  1.
    9900012    2    1    2    0    0 -0.95528409185E+01  0.33765868944E+02 -0.20537174428E+02  0.50528853321E+02  0.29999980156E+02 0.  0.
         12    1    1    2    0    0  0.95528409185E+01 -0.33765868944E+02  0.20537174428E+02  0.40659146679E+02  0.00000000000E+00 0. -1.
         11    1    3    3    0    0  0.33897116009E+00  0.77749152391E+01 -0.11193648331E+02  0.13633120392E+02  0.51100000000E-03 0. -1.
        -11    1    3    3    0    0  0.12459475816E+01  0.71631526280E+01 -0.12827320235E+02  0.14744601914E+02  0.51100000000E-03 0.  1.
        -12    1    3    3    0    0 -0.11137759660E+02  0.18827801077E+02  0.34837941375E+01  0.22151131015E+02  0.00000000000E+00 0.  1.
</event>
<event>
 7    1  0.6081200E-012  0.5052885E+02  0.7816164E-02  0.1300439E+00
        -11   -1    0    0    0    0  0.00000000000E+00  0.00000000000E+00  0.45593999997E+02  0.45594000000E+02  0.51100000000E-03 0. -1.
         11   -1    0    0    0    0 -0.00000000000E+00 -0.00000000000E+00 -0.45593999997E+02  0.45594000000E+02  0.51100000000E-03 0.  1.
    9900012    2    1    2    0    0 -0.12506899630E+02 -0.11923256522E+02  0.36804619765E+02  0.50528848257E+02  0.29999964760E+02 0.  0.
        -12    1    1    2    0    0  0.12506899630E+02  0.11923256522E+02 -0.36804619765E+02  0.40659151743E+02  0.00000000000E+00 0.  1.
         11    1    3    3    0    0 -0.35618987754E+01 -0.18407388274E-01  0.22243141249E+00  0.35688846594E+01  0.51100000000E-03 0. -1.
        -11    1    3    3    0    0  0.17360049369E+01  0.31181047303E+01 -0.20784050778E+01  0.41298980833E+01  0.51100000000E-03 0.  1.
         12    1    3    3    0    0 -0.10681005792E+02 -0.15022953864E+02  0.38660593430E+02  0.42830065514E+02  0.00000000000E+00 0. -1.
</event>
<event>
 7    1  0.4520156E-012  0.5052886E+02  0.7816164E-02  0.1300439E+00
        -11   -1    0    0    0    0  0.00000000000E+00  0.00000000000E+00  0.45593999997E+02  0.45594000000E+02  0.51100000000E-03 0. -1.
         11   -1    0    0    0    0 -0.00000000000E+00 -0.00000000000E+00 -0.45593999997E+02  0.45594000000E+02  0.51100000000E-03 0.  1.
    9900012    2    1    2    0    0  0.18533986943E+02  0.74114745120E+01 -0.35422127944E+02  0.50528858659E+02  0.29999996381E+02 0.  0.
         12    1    1    2    0    0 -0.18533986943E+02 -0.74114745120E+01  0.35422127944E+02  0.40659141341E+02  0.00000000000E+00 0. -1.
         11    1    3    3    0    0 -0.25912774084E+01 -0.21066414113E+01 -0.22326910026E+01  0.40171589485E+01  0.51100000000E-03 0. -1.
        -11    1    3    3    0    0  0.23113293231E+01 -0.70900292212E+01 -0.84912241259E+01  0.11300957703E+02  0.51100000000E-03 0.  1.
        -12    1    3    3    0    0  0.18813935029E+02  0.16608145145E+02 -0.24698212816E+02  0.35210742007E+02  0.00000000000E+00 0.  1.
</event>
<event>
 7    1  0.4520156E-012  0.5052886E+02  0.7816164E-02  0.1300439E+00
        -11   -1    0    0    0    0  0.00000000000E+00  0.00000000000E+00  0.45593999997E+02  0.45594000000E+02  0.51100000000E-03 0. -1.
         11   -1    0    0    0    0 -0.00000000000E+00 -0.00000000000E+00 -0.45593999997E+02  0.45594000000E+02  0.51100000000E-03 0.  1.
    9900012    2    1    2    0    0 -0.39413933895E+01 -0.11041226601E+02 -0.38932282824E+02  0.50528856961E+02  0.29999991220E+02 0.  0.
         12    1    1    2    0    0  0.39413933895E+01  0.11041226601E+02  0.38932282824E+02  0.40659143039E+02  0.00000000000E+00 0. -1.
         11    1    3    3    0    0  0.20932393753E+01 -0.18968323739E+02 -0.23445433817E+02  0.30230238565E+02  0.51100000000E-03 0. -1.
        -11    1    3    3    0    0 -0.11669612794E+01 -0.10984079978E+01  0.13886540172E+00  0.16085964746E+01  0.51100000000E-03 0.  1.
        -12    1    3    3    0    0 -0.48676714853E+01  0.90255051359E+01 -0.15625714409E+02  0.18690021922E+02  0.00000000000E+00 0.  1.
</event>
<event>
 7    1  0.4520156E-012  0.5052888E+02  0.7816164E-02  0.1300439E+00
        -11   -1    0    0    0    0  0.00000000000E+00  0.00000000000E+00  0.45593999997E+02  0.45594000000E+02  0.51100000000E-03 0. -1.
         11   -1    0    0    0    0 -0.00000000000E+00 -0.00000000000E+00 -0.45593999997E+02  0.45594000000E+02  0.51100000000E-03 0.  1.
    9900012    2    1    2    0    0  0.28030948482E+02 -0.29335388417E+02 -0.26200542908E+01  0.50528883300E+02  0.30000071278E+02 0.  0.
        -12    1    1    2    0    0 -0.28030948482E+02  0.29335388417E+02  0.26200542908E+01  0.40659116700E+02  0.00000000000E+00 0.  1.
         11    1    3    3    0    0  0.34256381417E+01 -0.47154275234E+01 -0.48594471589E+01  0.75884438693E+01  0.51100000000E-03 0. -1.
        -11    1    3    3    0    0 -0.35233323059E+01  0.19054105770E+00 -0.35313023360E+01  0.49920209216E+01  0.51100000000E-03 0.  1.
         12    1    3    3    0    0  0.28128642646E+02 -0.24810501952E+02  0.57706952041E+01  0.37948418509E+02  0.00000000000E+00 0. -1.
</event>
<event>
 7    1  0.4520156E-012  0.5052886E+02  0.7816164E-02  0.1300439E+00
        -11   -1    0    0    0    0  0.00000000000E+00  0.00000000000E+00  0.45593999997E+02  0.45594000000E+02  0.51100000000E-03 0.  1.
         11   -1    0    0    0    0 -0.00000000000E+00 -0.00000000000E+00 -0.45593999997E+02  0.45594000000E+02  0.51100000000E-03 0. -1.
    9900012    2    1    2    0    0 -0.26840192408E+02 -0.25880159005E+02  0.16216868145E+02  0.50528863621E+02  0.30000011463E+02 0.  0.
        -12    1    1    2    0    0  0.26840192408E+02  0.25880159005E+02 -0.16216868145E+02  0.40659136379E+02  0.00000000000E+00 0.  1.
         11    1    3    3    0    0 -0.87242384167E+01 -0.25546737103E+00  0.85020647326E+01  0.12184527258E+02  0.51100000000E-03 0. -1.
        -11    1    3    3    0    0 -0.32033415888E+01  0.22209856232E+01  0.54166271353E+01  0.66733817706E+01  0.51100000000E-03 0.  1.
         12    1    3    3    0    0 -0.14912612403E+02 -0.27845677257E+02  0.22981762767E+01  0.31670954592E+02  0.00000000000E+00 0. -1.
</event>
<event>
 7    1  0.4520156E-012  0.5052886E+02  0.7816164E-02  0.1300439E+00
        -11   -1    0    0    0    0  0.00000000000E+00  0.00000000000E+00  0.45593999997E+02  0.45594000000E+02  0.51100000000E-03 0. -1.
         11   -1    0    0    0    0 -0.00000000000E+00 -0.00000000000E+00 -0.45593999997E+02  0.45594000000E+02  0.51100000000E-03 0.  1.
    9900012    2    1    2    0    0 -0.55343949617E+01 -0.72981622884E+01 -0.39614049403E+02  0.50528860677E+02  0.30000002515E+02 0.  0.
         12    1    1    2    0    0  0.55343949617E+01  0.72981622884E+01  0.39614049403E+02  0.40659139323E+02  0.00000000000E+00 0. -1.
         11    1    3    3    0    0 -0.67743320308E+01 -0.13681988688E+02 -0.30110123820E+02  0.33759560804E+02  0.51100000000E-03 0. -1.
        -11    1    3    3    0    0 -0.23390011328E+01  0.21692926965E+00 -0.93467273606E+01  0.96373905816E+01  0.51100000000E-03 0.  1.
         12    1    3    3    0    0  0.35789382019E+01  0.61668971301E+01 -0.15719822179E+00  0.71319092918E+01  0.00000000000E+00 0. -1.
</event>
<event>
 7    1  0.4520156E-012  0.5052884E+02  0.7816164E-02  0.1300439E+00
        -11   -1    0    0    0    0  0.00000000000E+00  0.00000000000E+00  0.45593999997E+02  0.45594000000E+02  0.51100000000E-03 0. -1.
         11   -1    0    0    0    0 -0.00000000000E+00 -0.00000000000E+00 -0.45593999997E+02  0.45594000000E+02  0.51100000000E-03 0.  1.
    9900012    2    1    2    0    0 -0.26246352351E+02  0.13868311439E+02  0.27784276935E+02  0.50528842130E+02  0.29999946139E+02 0.  0.
        -12    1    1    2    0    0  0.26246352351E+02 -0.13868311439E+02 -0.27784276935E+02  0.40659157870E+02  0.00000000000E+00 0.  1.
         11    1    3    3    0    0 -0.11371564256E+02  0.35160512858E+01  0.11379731782E+02  0.16467343015E+02  0.51100000000E-03 0. -1.
        -11    1    3    3    0    0 -0.41647685361E+01  0.73230930806E+00 -0.60542492500E+01  0.73848160522E+01  0.51100000000E-03 0.  1.
         12    1    3    3    0    0 -0.10710019558E+02  0.96199508452E+01  0.22458794403E+02  0.26676683063E+02  0.00000000000E+00 0. -1.
</event>
<event>
 7    1  0.4520156E-012  0.5052887E+02  0.7816164E-02  0.1300439E+00
        -11   -1    0    0    0    0  0.00000000000E+00  0.00000000000E+00  0.45593999997E+02  0.45594000000E+02  0.51100000000E-03 0. -1.
         11   -1    0    0    0    0 -0.00000000000E+00 -0.00000000000E+00 -0.45593999997E+02  0.45594000000E+02  0.51100000000E-03 0.  1.
    9900012    2    1    2    0    0  0.10793260261E+02  0.35184512993E+02 -0.17283537209E+02  0.50528867200E+02  0.30000022341E+02 0.  0.
         12    1    1    2    0    0 -0.10793260261E+02 -0.35184512993E+02  0.17283537209E+02  0.40659132800E+02  0.00000000000E+00 0. -1.
         11    1    3    3    0    0  0.35460794343E+01 -0.45740319956E+00  0.11214676892E+01  0.37472105732E+01  0.51100000000E-03 0. -1.
        -11    1    3    3    0    0  0.32577280167E+00 -0.25947170203E+01 -0.50602459646E+01  0.56960314094E+01  0.51100000000E-03 0.  1.
        -12    1    3    3    0    0  0.69214080253E+01  0.38236633213E+02 -0.13344758934E+02  0.41085625217E+02  0.00000000000E+00 0.  1.
</event>
<event>
 7    1  0.4520156E-012  0.5052886E+02  0.7816164E-02  0.1300439E+00
        -11   -1    0    0    0    0  0.00000000000E+00  0.00000000000E+00  0.45593999997E+02  0.45594000000E+02  0.51100000000E-03 0. -1.
         11   -1    0    0    0    0 -0.00000000000E+00 -0.00000000000E+00 -0.45593999997E+02  0.45594000000E+02  0.51100000000E-03 0.  1.
    9900012    2    1    2    0    0  0.32724748058E+02  0.76167970992E+01 -0.22896306913E+02  0.50528860760E+02  0.30000002765E+02 0.  0.
         12    1    1    2    0    0 -0.32724748058E+02 -0.76167970992E+01  0.22896306913E+02  0.40659139240E+02  0.00000000000E+00 0. -1.
         11    1    3    3    0    0  0.12160320872E+02  0.56095453436E+01 -0.13688518577E+02  0.19149828818E+02  0.51100000000E-03 0. -1.
        -11    1    3    3    0    0  0.15388408694E+02 -0.49515829035E+01 -0.14074669309E+02  0.21434029295E+02  0.51100000000E-03 0.  1.
         12    1    3    3    0    0  0.51760184914E+01  0.69588346590E+01  0.48668809732E+01  0.99450026467E+01  0.00000000000E+00 0. -1.
</event>
<event>
 7    1  0.4520156E-012  0.5052885E+02  0.7816164E-02  0.1300439E+00
        -11   -1    0    0    0    0  0.00000000000E+00  0.00000000000E+00  0.45593999997E+02  0.45594000000E+02  0.51100000000E-03 0. -1.
         11   -1    0    0    0    0 -0.00000000000E+00 -0.00000000000E+00 -0.45593999997E+02  0.45594000000E+02  0.51100000000E-03 0.  1.
    9900012    2    1    2    0    0 -0.19144239844E+02 -0.13841304133E+02 -0.33092030772E+02  0.50528854412E+02  0.29999983470E+02 0.  0.
         12    1    1    2    0    0  0.19144239844E+02  0.13841304133E+02  0.33092030772E+02  0.40659145588E+02  0.00000000000E+00 0. -1.
         11    1    3    3    0    0 -0.41345711551E+01  0.53994780767E+01 -0.94132032020E+01  0.11612813480E+02  0.51100000000E-03 0. -1.
        -11    1    3    3    0    0 -0.62757006874E+01  0.27087846716E+01 -0.27936138199E+01  0.73841866140E+01  0.51100000000E-03 0.  1.
         12    1    3    3    0    0 -0.87339680019E+01 -0.21949566881E+02 -0.20885213750E+02  0.31531854318E+02  0.00000000000E+00 0. -1.
</event>
<event>
 7    1  0.4520156E-012  0.5052886E+02  0.7816164E-02  0.1300439E+00
        -11   -1    0    0    0    0  0.00000000000E+00  0.00000000000E+00  0.45593999997E+02  0.45594000000E+02  0.51100000000E-03 0. -1.
         11   -1    0    0    0    0 -0.00000000000E+00 -0.00000000000E+00 -0.45593999997E+02  0.45594000000E+02  0.51100000000E-03 0.  1.
    9900012    2    1    2    0    0  0.69599199011E+01  0.23510566643E+02 -0.32434218644E+02  0.50528858740E+02  0.29999996627E+02 0.  0.
         12    1    1    2    0    0 -0.69599199011E+01 -0.23510566643E+02  0.32434218644E+02  0.40659141260E+02  0.00000000000E+00 0. -1.
         11    1    3    3    0    0  0.43526630177E+01  0.44345266160E+01  0.20192251218E+01  0.65336032943E+01  0.51100000000E-03 0. -1.
        -11    1    3    3    0    0  0.15101179884E+01 -0.15427190672E+00 -0.19633728284E+02  0.19692321924E+02  0.51100000000E-03 0.  1.
         12    1    3    3    0    0  0.10971388950E+01  0.19230311934E+02 -0.14819715482E+02  0.24302933522E+02  0.00000000000E+00 0. -1.
</event>
<event>
 7    1  0.4520156E-012  0.5052885E+02  0.7816164E-02  0.1300439E+00
        -11   -1    0    0    0    0  0.00000000000E+00  0.00000000000E+00  0.45593999997E+02  0.45594000000E+02  0.51100000000E-03 0. -1.
         11   -1    0    0    0    0 -0.00000000000E+00 -0.00000000000E+00 -0.45593999997E+02  0.45594000000E+02  0.51100000000E-03 0.  1.
    9900012    2    1    2    0    0  0.34314026149E+01  0.25992687937E+02  0.31076877634E+02  0.50528847604E+02  0.29999962776E+02 0.  0.
        -12    1    1    2    0    0 -0.34314026149E+01 -0.25992687937E+02 -0.31076877634E+02  0.40659152396E+02  0.00000000000E+00 0.  1.
         11    1    3    3    0    0  0.57266387770E+01  0.17549753139E+02  0.17398638056E+02  0.25367318214E+02  0.51100000000E-03 0. -1.
        -11    1    3    3    0    0  0.19899930927E+01  0.60466903465E+01 -0.35214408603E+01  0.72748252659E+01  0.51100000000E-03 0.  1.
        -12    1    3    3    0    0 -0.42852292548E+01  0.23962444523E+01  0.17199680438E+02  0.17886704124E+02  0.00000000000E+00 0.  1.
</event>
<event>
 7    1  0.4520156E-012  0.5052886E+02  0.7816164E-02  0.1300439E+00
        -11   -1    0    0    0    0  0.00000000000E+00  0.00000000000E+00  0.45593999997E+02  0.45594000000E+02  0.51100000000E-03 0. -1.
         11   -1    0    0    0    0 -0.00000000000E+00 -0.00000000000E+00 -0.45593999997E+02  0.45594000000E+02  0.51100000000E-03 0.  1.
    9900012    2    1    2    0    0 -0.85359343702E+01 -0.84907441198E+01  0.38835685174E+02  0.50528863829E+02  0.30000012093E+02 0.  0.
        -12    1    1    2    0    0  0.85359343702E+01  0.84907441198E+01 -0.38835685174E+02  0.40659136171E+02  0.00000000000E+00 0.  1.
         11    1    3    3    0    0 -0.27519263168E+00  0.13289226164E-01  0.12913933996E+01  0.13204562703E+01  0.51100000000E-03 0. -1.
        -11    1    3    3    0    0 -0.35073308749E+00 -0.18658837818E+02  0.18978528571E+02  0.26616907961E+02  0.51100000000E-03 0.  1.
         12    1    3    3    0    0 -0.79100086510E+01  0.10154804472E+02  0.18565763203E+02  0.22591499597E+02  0.00000000000E+00 0. -1.
</event>
<event>
 7    1  0.4520156E-012  0.5052886E+02  0.7816164E-02  0.1300439E+00
        -11   -1    0    0    0    0  0.00000000000E+00  0.00000000000E+00  0.45593999997E+02  0.45594000000E+02  0.51100000000E-03 0. -1.
         11   -1    0    0    0    0 -0.00000000000E+00 -0.00000000000E+00 -0.45593999997E+02  0.45594000000E+02  0.51100000000E-03 0.  1.
    9900012    2    1    2    0    0 -0.10325957340E+02 -0.21078169161E+02 -0.33200165182E+02  0.50528861073E+02  0.30000003716E+02 0.  0.
         12    1    1    2    0    0  0.10325957340E+02  0.21078169161E+02  0.33200165182E+02  0.40659138927E+02  0.00000000000E+00 0. -1.
         11    1    3    3    0    0 -0.60700647479E+00  0.41728312554E+01 -0.99753645287E+00  0.43331347524E+01  0.51100000000E-03 0. -1.
        -11    1    3    3    0    0 -0.13485605285E+02 -0.13847576851E+02 -0.26759396978E+02  0.33010335676E+02  0.51100000000E-03 0.  1.
         12    1    3    3    0    0  0.37666544198E+01 -0.11403423566E+02 -0.54432317512E+01  0.13185390644E+02  0.00000000000E+00 0. -1.
</event>
<event>
 7    1  0.4520156E-012  0.5052874E+02  0.7816164E-02  0.1300439E+00
        -11   -1    0    0    0    0  0.00000000000E+00  0.00000000000E+00  0.45593999997E+02  0.45594000000E+02  0.51100000000E-03 0. -1.
         11   -1    0    0    0    0 -0.00000000000E+00 -0.00000000000E+00 -0.45593999997E+02  0.45594000000E+02  0.51100000000E-03 0.  1.
    9900012    2    1    2    0    0  0.32964815499E+02 -0.30762132565E+01  0.23601544037E+02  0.50528744845E+02  0.29999650428E+02 0.  0.
        -12    1    1    2    0    0 -0.32964815499E+02  0.30762132565E+01 -0.23601544037E+02  0.40659255155E+02  0.00000000000E+00 0.  1.
         11    1    3    3    0    0 -0.34199388212E+01  0.10477531670E+01 -0.19926270289E+01  0.40944268191E+01  0.51100000000E-03 0. -1.
        -11    1    3    3    0    0 -0.99251863864E+00 -0.35014375380E+00  0.13954575716E+01  0.17478546826E+01  0.51100000000E-03 0.  1.
         12    1    3    3    0    0  0.37377272958E+02 -0.37738226697E+01  0.24198713494E+02  0.44686463343E+02  0.00000000000E+00 0. -1.
</event>
<event>
 7    1  0.4520156E-012  0.5052885E+02  0.7816164E-02  0.1300439E+00
        -11   -1    0    0    0    0  0.00000000000E+00  0.00000000000E+00  0.45593999997E+02  0.45594000000E+02  0.51100000000E-03 0. -1.
         11   -1    0    0    0    0 -0.00000000000E+00 -0.00000000000E+00 -0.45593999997E+02  0.45594000000E+02  0.51100000000E-03 0.  1.
    9900012    2    1    2    0    0 -0.13127690332E+02 -0.15634763310E+02  0.35162256647E+02  0.50528851341E+02  0.29999974135E+02 0.  0.
        -12    1    1    2    0    0  0.13127690332E+02  0.15634763310E+02 -0.35162256647E+02  0.40659148659E+02  0.00000000000E+00 0.  1.
         11    1    3    3    0    0 -0.57396584062E+01 -0.12051809390E+02  0.30742255030E+02  0.33515310423E+02  0.51100000000E-03 0. -1.
        -11    1    3    3    0    0 -0.82330710731E+01  0.51815956479E+00  0.80097323241E+01  0.11498163366E+02  0.51100000000E-03 0.  1.
         12    1    3    3    0    0  0.84503914740E+00 -0.41011134852E+01 -0.35897307075E+01  0.55153775512E+01  0.00000000000E+00 0. -1.
</event>
<event>
 7    1  0.4520156E-012  0.5052886E+02  0.7816164E-02  0.1300439E+00
        -11   -1    0    0    0    0  0.00000000000E+00  0.00000000000E+00  0.45593999997E+02  0.45594000000E+02  0.51100000000E-03 0. -1.
         11   -1    0    0    0    0 -0.00000000000E+00 -0.00000000000E+00 -0.45593999997E+02  0.45594000000E+02  0.51100000000E-03 0.  1.
    9900012    2    1    2    0    0  0.35099551860E+02  0.75941703773E-01 -0.20522707998E+02  0.50528857713E+02  0.29999993505E+02 0.  0.
         12    1    1    2    0    0 -0.35099551860E+02 -0.75941703773E-01  0.20522707998E+02  0.40659142287E+02  0.00000000000E+00 0. -1.
         11    1    3    3    0    0  0.11953214428E+02 -0.36390877044E+01  0.24443271578E+01  0.12731733189E+02  0.51100000000E-03 0. -1.
        -11    1    3    3    0    0  0.17842515923E+02  0.88869603220E+01 -0.87569210258E+01  0.21771933868E+02  0.51100000000E-03 0.  1.
        -12    1    3    3    0    0  0.53038215085E+01 -0.51719309138E+01 -0.14210114130E+02  0.16025190656E+02  0.00000000000E+00 0.  1.
</event>
<event>
 7    1  0.4520156E-012  0.5052885E+02  0.7816164E-02  0.1300439E+00
        -11   -1    0    0    0    0  0.00000000000E+00  0.00000000000E+00  0.45593999997E+02  0.45594000000E+02  0.51100000000E-03 0. -1.
         11   -1    0    0    0    0 -0.00000000000E+00 -0.00000000000E+00 -0.45593999997E+02  0.45594000000E+02  0.51100000000E-03 0.  1.
    9900012    2    1    2    0    0 -0.32756498455E+02  0.19364814817E+02 -0.14324178173E+02  0.50528851900E+02  0.29999975834E+02 0.  0.
         12    1    1    2    0    0  0.32756498455E+02 -0.19364814817E+02  0.14324178173E+02  0.40659148100E+02  0.00000000000E+00 0. -1.
         11    1    3    3    0    0  0.82875478514E+00 -0.11792241142E+01  0.31808766195E+01  0.34921884735E+01  0.51100000000E-03 0. -1.
        -11    1    3    3    0    0  0.42732867780E+00 -0.18965625528E+01 -0.33989954056E+01  0.39157029183E+01  0.51100000000E-03 0.  1.
        -12    1    3    3    0    0 -0.34012581918E+02  0.22440601484E+02 -0.14106059387E+02  0.43120960508E+02  0.00000000000E+00 0.  1.
</event>
<event>
 7    1  0.4520156E-012  0.5052886E+02  0.7816164E-02  0.1300439E+00
        -11   -1    0    0    0    0  0.00000000000E+00  0.00000000000E+00  0.45593999997E+02  0.45594000000E+02  0.51100000000E-03 0.  1.
         11   -1    0    0    0    0 -0.00000000000E+00 -0.00000000000E+00 -0.45593999997E+02  0.45594000000E+02  0.51100000000E-03 0. -1.
    9900012    2    1    2    0    0  0.11967997577E+02  0.23685521709E+02  0.30804689520E+02  0.50528858334E+02  0.29999995392E+02 0.  0.
        -12    1    1    2    0    0 -0.11967997577E+02 -0.23685521709E+02 -0.30804689520E+02  0.40659141666E+02  0.00000000000E+00 0.  1.
         11    1    3    3    0    0 -0.87178160338E+00  0.17980699826E+01 -0.51080740194E+01  0.54850231791E+01  0.51100000000E-03 0. -1.
        -11    1    3    3    0    0  0.28419890795E+01  0.10245518882E+02  0.84372692009E+01  0.13573322030E+02  0.51100000000E-03 0.  1.
        -12    1    3    3    0    0  0.99977901008E+01  0.11641932844E+02  0.27475494338E+02  0.31470513125E+02  0.00000000000E+00 0.  1.
</event>
<event>
 7    1  0.4520156E-012  0.5052884E+02  0.7816164E-02  0.1300439E+00
        -11   -1    0    0    0    0  0.00000000000E+00  0.00000000000E+00  0.45593999997E+02  0.45594000000E+02  0.51100000000E-03 0. -1.
         11   -1    0    0    0    0 -0.00000000000E+00 -0.00000000000E+00 -0.45593999997E+02  0.45594000000E+02  0.51100000000E-03 0.  1.
    9900012    2    1    2    0    0  0.11013168918E+01  0.11488707771E+02 -0.38986713655E+02  0.50528841784E+02  0.29999945088E+02 0.  0.
         12    1    1    2    0    0 -0.11013168918E+01 -0.11488707771E+02  0.38986713655E+02  0.40659158216E+02  0.00000000000E+00 0. -1.
         11    1    3    3    0    0  0.29467060868E+01  0.23245278278E+01  0.25870263151E+01  0.45584220735E+01  0.51100000000E-03 0. -1.
        -11    1    3    3    0    0  0.10199088255E+01  0.11806918961E+02 -0.15020829836E+02  0.19132926556E+02  0.51100000000E-03 0.  1.
         12    1    3    3    0    0 -0.28652980205E+01 -0.26427390172E+01 -0.26552910134E+02  0.26837493155E+02  0.00000000000E+00 0. -1.
</event>
<event>
 7    1  0.4520156E-012  0.5052886E+02  0.7816164E-02  0.1300439E+00
        -11   -1    0    0    0    0  0.00000000000E+00  0.00000000000E+00  0.45593999997E+02  0.45594000000E+02  0.51100000000E-03 0. -1.
         11   -1    0    0    0    0 -0.00000000000E+00 -0.00000000000E+00 -0.45593999997E+02  0.45594000000E+02  0.51100000000E-03 0.  1.
    9900012    2    1    2    0    0 -0.15437623830E+02  0.78264674612E+01  0.36791189593E+02  0.50528862600E+02  0.30000008359E+02 0.  0.
        -12    1    1    2    0    0  0.15437623830E+02 -0.78264674612E+01 -0.36791189593E+02  0.40659137400E+02  0.00000000000E+00 0.  1.
         11    1    3    3    0    0 -0.17905169583E+02 -0.14251758223E+01  0.89473794292E+01  0.20066933568E+02  0.51100000000E-03 0. -1.
        -11    1    3    3    0    0 -0.15870794016E+01 -0.84802905816E-01  0.13685592505E+01  0.20973715081E+01  0.51100000000E-03 0.  1.
        -12    1    3    3    0    0  0.40546251544E+01  0.93364461893E+01  0.26475250913E+02  0.28364557524E+02  0.00000000000E+00 0.  1.
</event>
<event>
 7    1  0.4520156E-012  0.5052886E+02  0.7816164E-02  0.1300439E+00
        -11   -1    0    0    0    0  0.00000000000E+00  0.00000000000E+00  0.45593999997E+02  0.45594000000E+02  0.51100000000E-03 0. -1.
         11   -1    0    0    0    0 -0.00000000000E+00 -0.00000000000E+00 -0.45593999997E+02  0.45594000000E+02  0.51100000000E-03 0.  1.
    9900012    2    1    2    0    0  0.14107183089E+01  0.25650735032E+02 -0.31515315706E+02  0.50528862554E+02  0.30000008220E+02 0.  0.
         12    1    1    2    0    0 -0.14107183089E+01 -0.25650735032E+02  0.31515315706E+02  0.40659137446E+02  0.00000000000E+00 0. -1.
         11    1    3    3    0    0 -0.50884190659E+01  0.97304253101E+01 -0.69758326034E+01  0.13009051698E+02  0.51100000000E-03 0. -1.
        -11    1    3    3    0    0 -0.72432408255E+01  0.18610119506E+01 -0.22735171329E+01  0.78164431522E+01  0.51100000000E-03 0.  1.
        -12    1    3    3    0    0  0.13742378200E+02  0.14059297771E+02 -0.22265965969E+02  0.29703367704E+02  0.00000000000E+00 0.  1.
</event>
<event>
 7    1  0.4520156E-012  0.5052886E+02  0.7816164E-02  0.1300439E+00
        -11   -1    0    0    0    0  0.00000000000E+00  0.00000000000E+00  0.45593999997E+02  0.45594000000E+02  0.51100000000E-03 0.  1.
         11   -1    0    0    0    0 -0.00000000000E+00 -0.00000000000E+00 -0.45593999997E+02  0.45594000000E+02  0.51100000000E-03 0. -1.
    9900012    2    1    2    0    0 -0.12921903714E+02 -0.32573313450E+02 -0.20619631900E+02  0.50528861244E+02  0.30000004237E+02 0.  0.
         12    1    1    2    0    0  0.12921903714E+02  0.32573313450E+02  0.20619631900E+02  0.40659138756E+02  0.00000000000E+00 0. -1.
         11    1    3    3    0    0  0.47893261096E+01 -0.26718359633E+01 -0.11081938722E+02  0.12364696441E+02  0.51100000000E-03 0. -1.
        -11    1    3    3    0    0 -0.12038427415E+02 -0.11074887509E+02 -0.11000845133E+00  0.16358146902E+02  0.51100000000E-03 0.  1.
        -12    1    3    3    0    0 -0.56728024081E+01 -0.18826589978E+02 -0.94276847272E+01  0.21806017900E+02  0.00000000000E+00 0.  1.
</event>
<event>
 7    1  0.4520156E-012  0.5052886E+02  0.7816164E-02  0.1300439E+00
        -11   -1    0    0    0    0  0.00000000000E+00  0.00000000000E+00  0.45593999997E+02  0.45594000000E+02  0.51100000000E-03 0. -1.
         11   -1    0    0    0    0 -0.00000000000E+00 -0.00000000000E+00 -0.45593999997E+02  0.45594000000E+02  0.51100000000E-03 0.  1.
    9900012    2    1    2    0    0  0.27964165783E+02  0.79642796339E+01 -0.28420797600E+02  0.50528855220E+02  0.29999985927E+02 0.  0.
         12    1    1    2    0    0 -0.27964165783E+02 -0.79642796339E+01  0.28420797600E+02  0.40659144780E+02  0.00000000000E+00 0. -1.
         11    1    3    3    0    0  0.12157712756E+02 -0.14770145303E+01  0.24619002194E+01  0.12492097675E+02  0.51100000000E-03 0. -1.
        -11    1    3    3    0    0  0.19893402127E+01  0.19126499011E+01  0.61505177551E+00  0.28273650408E+01  0.51100000000E-03 0.  1.
        -12    1    3    3    0    0  0.13817112815E+02  0.75286442630E+01 -0.31497749595E+02  0.35209392504E+02  0.00000000000E+00 0.  1.
</event>
<event>
 7    1  0.4520156E-012  0.5052885E+02  0.7816164E-02  0.1300439E+00
        -11   -1    0    0    0    0  0.00000000000E+00  0.00000000000E+00  0.45593999997E+02  0.45594000000E+02  0.51100000000E-03 0. -1.
         11   -1    0    0    0    0 -0.00000000000E+00 -0.00000000000E+00 -0.45593999997E+02  0.45594000000E+02  0.51100000000E-03 0.  1.
    9900012    2    1    2    0    0  0.29915686428E+02 -0.11386274120E+02 -0.25071316425E+02  0.50528850475E+02  0.29999971504E+02 0.  0.
         12    1    1    2    0    0 -0.29915686428E+02  0.11386274120E+02  0.25071316425E+02  0.40659149525E+02  0.00000000000E+00 0. -1.
         11    1    3    3    0    0 -0.24608917326E+01  0.28639608281E+01 -0.33796795921E+01  0.50675925399E+01  0.51100000000E-03 0. -1.
        -11    1    3    3    0    0  0.95629091876E+01  0.42291718593E+01 -0.40744081390E+01  0.11222117834E+02  0.51100000000E-03 0.  1.
        -12    1    3    3    0    0  0.22813668973E+02 -0.18479406808E+02 -0.17617228694E+02  0.34239140101E+02  0.00000000000E+00 0.  1.
</event>
<event>
 7    1  0.4520156E-012  0.5052886E+02  0.7816164E-02  0.1300439E+00
        -11   -1    0    0    0    0  0.00000000000E+00  0.00000000000E+00  0.45593999997E+02  0.45594000000E+02  0.51100000000E-03 0. -1.
         11   -1    0    0    0    0 -0.00000000000E+00 -0.00000000000E+00 -0.45593999997E+02  0.45594000000E+02  0.51100000000E-03 0.  1.
    9900012    2    1    2    0    0 -0.93304998969E+01  0.39230380055E+01  0.39379146536E+02  0.50528860346E+02  0.30000001507E+02 0.  0.
        -12    1    1    2    0    0  0.93304998969E+01 -0.39230380055E+01 -0.39379146536E+02  0.40659139654E+02  0.00000000000E+00 0.  1.
         11    1    3    3    0    0 -0.20293393211E+00 -0.27512430003E+01  0.10264214244E+02  0.10628481290E+02  0.51100000000E-03 0. -1.
        -11    1    3    3    0    0 -0.10799552128E+02  0.50199971378E+01  0.33153052446E+02  0.35227199494E+02  0.51100000000E-03 0.  1.
         12    1    3    3    0    0  0.16719861636E+01  0.16542838681E+01 -0.40381201532E+01  0.46731795621E+01  0.00000000000E+00 0. -1.
</event>
<event>
 7    1  0.4520156E-012  0.5052887E+02  0.7816164E-02  0.1300439E+00
        -11   -1    0    0    0    0  0.00000000000E+00  0.00000000000E+00  0.45593999997E+02  0.45594000000E+02  0.51100000000E-03 0.  1.
         11   -1    0    0    0    0 -0.00000000000E+00 -0.00000000000E+00 -0.45593999997E+02  0.45594000000E+02  0.51100000000E-03 0. -1.
    9900012    2    1    2    0    0  0.29869186413E+02  0.15491893353E+02 -0.22825378456E+02  0.50528868698E+02  0.30000026894E+02 0.  0.
         12    1    1    2    0    0 -0.29869186413E+02 -0.15491893353E+02  0.22825378456E+02  0.40659131302E+02  0.00000000000E+00 0. -1.
         11    1    3    3    0    0 -0.26971661348E+01  0.61620483953E+00  0.19487917104E+01  0.33841103639E+01  0.51100000000E-03 0. -1.
        -11    1    3    3    0    0  0.58419312654E+01  0.64915258315E+01  0.13583110619E+01  0.88381603138E+01  0.51100000000E-03 0.  1.
         12    1    3    3    0    0  0.26724421282E+02  0.83841626816E+01 -0.26132481228E+02  0.38306598020E+02  0.00000000000E+00 0. -1.
</event>
<event>
 7    1  0.4520156E-012  0.5052886E+02  0.7816164E-02  0.1300439E+00
        -11   -1    0    0    0    0  0.00000000000E+00  0.00000000000E+00  0.45593999997E+02  0.45594000000E+02  0.51100000000E-03 0. -1.
         11   -1    0    0    0    0 -0.00000000000E+00 -0.00000000000E+00 -0.45593999997E+02  0.45594000000E+02  0.51100000000E-03 0.  1.
    9900012    2    1    2    0    0 -0.67806173972E+01  0.29682355593E+02 -0.26947102314E+02  0.50528864139E+02  0.30000013037E+02 0.  0.
         12    1    1    2    0    0  0.67806173972E+01 -0.29682355593E+02  0.26947102314E+02  0.40659135861E+02  0.00000000000E+00 0. -1.
         11    1    3    3    0    0  0.13893221490E+01  0.44878016886E+01  0.13159864487E+00  0.46997764302E+01  0.51100000000E-03 0. -1.
        -11    1    3    3    0    0  0.77799150630E+01  0.80811416765E+01 -0.16975342489E+02  0.20346846981E+02  0.51100000000E-03 0.  1.
        -12    1    3    3    0    0 -0.15949854609E+02  0.17113412228E+02 -0.10103358470E+02  0.25482240728E+02  0.00000000000E+00 0.  1.
</event>
<event>
 7    1  0.4520156E-012  0.5052886E+02  0.7816164E-02  0.1300439E+00
        -11   -1    0    0    0    0  0.00000000000E+00  0.00000000000E+00  0.45593999997E+02  0.45594000000E+02  0.51100000000E-03 0.  1.
         11   -1    0    0    0    0 -0.00000000000E+00 -0.00000000000E+00 -0.45593999997E+02  0.45594000000E+02  0.51100000000E-03 0. -1.
    9900012    2    1    2    0    0 -0.32290840253E+02 -0.22231863937E+02  0.10780161130E+02  0.50528855735E+02  0.29999987492E+02 0.  0.
         12    1    1    2    0    0  0.32290840253E+02  0.22231863937E+02 -0.10780161130E+02  0.40659144265E+02  0.00000000000E+00 0. -1.
         11    1    3    3    0    0 -0.39073487008E+01 -0.18804911854E+01 -0.13505651550E+01  0.45417669984E+01  0.51100000000E-03 0. -1.
        -11    1    3    3    0    0 -0.16658559644E+02 -0.14953949660E+02 -0.65103885640E+01  0.23313373402E+02  0.51100000000E-03 0.  1.
        -12    1    3    3    0    0 -0.11724931908E+02 -0.53974230914E+01  0.18641114849E+02  0.22673715335E+02  0.00000000000E+00 0.  1.
</event>
<event>
 7    1  0.4520156E-012  0.5052877E+02  0.7816164E-02  0.1300439E+00
        -11   -1    0    0    0    0  0.00000000000E+00  0.00000000000E+00  0.45593999997E+02  0.45594000000E+02  0.51100000000E-03 0. -1.
         11   -1    0    0    0    0 -0.00000000000E+00 -0.00000000000E+00 -0.45593999997E+02  0.45594000000E+02  0.51100000000E-03 0.  1.
    9900012    2    1    2    0    0  0.13663542688E+02 -0.30954647602E+02 -0.22545301592E+02  0.50528766967E+02  0.29999717671E+02 0.  0.
         12    1    1    2    0    0 -0.13663542688E+02  0.30954647602E+02  0.22545301592E+02  0.40659233033E+02  0.00000000000E+00 0. -1.
         11    1    3    3    0    0 -0.37507315777E-01 -0.10761223474E+01  0.14251530511E+01  0.17861992010E+01  0.51100000000E-03 0. -1.
        -11    1    3    3    0    0  0.31643633864E+01 -0.14834903517E+01  0.54787879067E+01  0.64985426406E+01  0.51100000000E-03 0.  1.
        -12    1    3    3    0    0  0.10536686618E+02 -0.28395034903E+02 -0.29449242550E+02  0.42244025125E+02  0.00000000000E+00 0.  1.
</event>
<event>
 7    1  0.4520156E-012  0.5052885E+02  0.7816164E-02  0.1300439E+00
        -11   -1    0    0    0    0  0.00000000000E+00  0.00000000000E+00  0.45593999997E+02  0.45594000000E+02  0.51100000000E-03 0. -1.
         11   -1    0    0    0    0 -0.00000000000E+00 -0.00000000000E+00 -0.45593999997E+02  0.45594000000E+02  0.51100000000E-03 0.  1.
    9900012    2    1    2    0    0 -0.45481598345E+01 -0.16734254045E+02 -0.36775609513E+02  0.50528850091E+02  0.29999970336E+02 0.  0.
         12    1    1    2    0    0  0.45481598345E+01  0.16734254045E+02  0.36775609513E+02  0.40659149909E+02  0.00000000000E+00 0. -1.
         11    1    3    3    0    0  0.62488559539E+01  0.25853182438E+01 -0.48564632820E+01  0.83257015936E+01  0.51100000000E-03 0. -1.
        -11    1    3    3    0    0  0.10859490734E+01  0.14008150271E+01  0.58485612008E+00  0.18664471791E+01  0.51100000000E-03 0.  1.
        -12    1    3    3    0    0 -0.11882964862E+02 -0.20720387316E+02 -0.32504002351E+02  0.40336701318E+02  0.00000000000E+00 0.  1.
</event>
<event>
 7    1  0.4520156E-012  0.5052887E+02  0.7816164E-02  0.1300439E+00
        -11   -1    0    0    0    0  0.00000000000E+00  0.00000000000E+00  0.45593999997E+02  0.45594000000E+02  0.51100000000E-03 0. -1.
         11   -1    0    0    0    0 -0.00000000000E+00 -0.00000000000E+00 -0.45593999997E+02  0.45594000000E+02  0.51100000000E-03 0.  1.
    9900012    2    1    2    0    0  0.16451691251E+02 -0.27551202299E+02  0.24968740315E+02  0.50528869586E+02  0.30000029593E+02 0.  0.
        -12    1    1    2    0    0 -0.16451691251E+02  0.27551202299E+02 -0.24968740315E+02  0.40659130414E+02  0.00000000000E+00 0.  1.
         11    1    3    3    0    0  0.90095319678E+01 -0.23843934624E+02  0.15738842783E+02  0.29956903328E+02  0.51100000000E-03 0. -1.
        -11    1    3    3    0    0 -0.45806713689E+01 -0.37732414666E+01  0.10413317755E+01  0.60253027711E+01  0.51100000000E-03 0.  1.
        -12    1    3    3    0    0  0.12022830652E+02  0.65973791666E-01  0.81885657568E+01  0.14546663486E+02  0.00000000000E+00 0.  1.
</event>
<event>
 7    1  0.4520156E-012  0.5052879E+02  0.7816164E-02  0.1300439E+00
        -11   -1    0    0    0    0  0.00000000000E+00  0.00000000000E+00  0.45593999997E+02  0.45594000000E+02  0.51100000000E-03 0. -1.
         11   -1    0    0    0    0 -0.00000000000E+00 -0.00000000000E+00 -0.45593999997E+02  0.45594000000E+02  0.51100000000E-03 0.  1.
    9900012    2    1    2    0    0  0.25100744760E+01 -0.54349881490E+01 -0.40216061618E+02  0.50528792161E+02  0.29999794252E+02 0.  0.
         12    1    1    2    0    0 -0.25100744760E+01  0.54349881490E+01  0.40216061618E+02  0.40659207839E+02  0.00000000000E+00 0. -1.
         11    1    3    3    0    0 -0.37546689920E+01 -0.15835383684E+02 -0.28817267153E+02  0.33095193036E+02  0.51100000000E-03 0.  1.
        -11    1    3    3    0    0  0.32862035944E+01  0.26527835341E+01 -0.14239671167E+01  0.44569134110E+01  0.51100000000E-03 0. -1.
        -12    1    3    3    0    0  0.29785398736E+01  0.77476120011E+01 -0.99748273485E+01  0.12976685714E+02  0.00000000000E+00 0.  1.
</event>
<event>
 7    1  0.4520156E-012  0.5052886E+02  0.7816164E-02  0.1300439E+00
        -11   -1    0    0    0    0  0.00000000000E+00  0.00000000000E+00  0.45593999997E+02  0.45594000000E+02  0.51100000000E-03 0. -1.
         11   -1    0    0    0    0 -0.00000000000E+00 -0.00000000000E+00 -0.45593999997E+02  0.45594000000E+02  0.51100000000E-03 0.  1.
    9900012    2    1    2    0    0 -0.67804936533E+01  0.12031954474E+02  0.38241638917E+02  0.50528856260E+02  0.29999989088E+02 0.  0.
        -12    1    1    2    0    0  0.67804936533E+01 -0.12031954474E+02 -0.38241638917E+02  0.40659143740E+02  0.00000000000E+00 0.  1.
         11    1    3    3    0    0  0.16422065929E+01  0.44623817182E+01  0.13623183016E+01  0.49462717787E+01  0.51100000000E-03 0.  1.
        -11    1    3    3    0    0 -0.10409044492E+01  0.12874273030E+02  0.77388701045E+01  0.15057240746E+02  0.51100000000E-03 0. -1.
         12    1    3    3    0    0 -0.73817957970E+01 -0.53047002745E+01  0.29140450510E+02  0.30525343735E+02  0.00000000000E+00 0. -1.
</event>
<event>
 7    1  0.4520156E-012  0.5052886E+02  0.7816164E-02  0.1300439E+00
        -11   -1    0    0    0    0  0.00000000000E+00  0.00000000000E+00  0.45593999997E+02  0.45594000000E+02  0.51100000000E-03 0. -1.
         11   -1    0    0    0    0 -0.00000000000E+00 -0.00000000000E+00 -0.45593999997E+02  0.45594000000E+02  0.51100000000E-03 0.  1.
    9900012    2    1    2    0    0  0.22948118075E+02  0.26873377418E+02 -0.20108974958E+02  0.50528863131E+02  0.30000009974E+02 0.  0.
         12    1    1    2    0    0 -0.22948118075E+02 -0.26873377418E+02  0.20108974958E+02  0.40659136869E+02  0.00000000000E+00 0. -1.
         11    1    3    3    0    0 -0.40054126243E+01  0.20341976336E+01  0.10745312834E+01  0.46190808656E+01  0.51100000000E-03 0. -1.
        -11    1    3    3    0    0  0.15198180081E+02  0.12526015992E+02 -0.13048697961E+01  0.19737994828E+02  0.51100000000E-03 0.  1.
        -12    1    3    3    0    0  0.11755350619E+02  0.12313163792E+02 -0.19878636445E+02  0.26171787437E+02  0.00000000000E+00 0.  1.
</event>
<event>
 7    1  0.4520156E-012  0.5052885E+02  0.7816164E-02  0.1300439E+00
        -11   -1    0    0    0    0  0.00000000000E+00  0.00000000000E+00  0.45593999997E+02  0.45594000000E+02  0.51100000000E-03 0. -1.
         11   -1    0    0    0    0 -0.00000000000E+00 -0.00000000000E+00 -0.45593999997E+02  0.45594000000E+02  0.51100000000E-03 0.  1.
    9900012    2    1    2    0    0 -0.26780810614E+01 -0.82504879205E+01 -0.39723089620E+02  0.50528849516E+02  0.29999968588E+02 0.  0.
         12    1    1    2    0    0  0.26780810614E+01  0.82504879205E+01  0.39723089620E+02  0.40659150484E+02  0.00000000000E+00 0. -1.
         11    1    3    3    0    0  0.26667462502E+01 -0.25744121650E+01 -0.17583425425E+02  0.17969863202E+02  0.51100000000E-03 0.  1.
        -11    1    3    3    0    0 -0.13636557760E+02  0.27653364812E+00 -0.13418773922E+02  0.19133626740E+02  0.51100000000E-03 0. -1.
         12    1    3    3    0    0  0.82917304480E+01 -0.59526094036E+01 -0.87208902742E+01  0.13425359575E+02  0.00000000000E+00 0. -1.
</event>
<event>
 7    1  0.4520156E-012  0.5052886E+02  0.7816164E-02  0.1300439E+00
        -11   -1    0    0    0    0  0.00000000000E+00  0.00000000000E+00  0.45593999997E+02  0.45594000000E+02  0.51100000000E-03 0. -1.
         11   -1    0    0    0    0 -0.00000000000E+00 -0.00000000000E+00 -0.45593999997E+02  0.45594000000E+02  0.51100000000E-03 0.  1.
    9900012    2    1    2    0    0 -0.16745857672E+02 -0.20813436318E+02 -0.30651962809E+02  0.50528859520E+02  0.29999998998E+02 0.  0.
         12    1    1    2    0    0  0.16745857672E+02  0.20813436318E+02  0.30651962809E+02  0.40659140480E+02  0.00000000000E+00 0. -1.
         11    1    3    3    0    0  0.12790212079E+01 -0.67788378068E+01 -0.28515564536E+01  0.74645771300E+01  0.51100000000E-03 0. -1.
        -11    1    3    3    0    0 -0.68273774617E+00 -0.99365767770E+01  0.97939376260E-01  0.99604859951E+01  0.51100000000E-03 0.  1.
        -12    1    3    3    0    0 -0.17342141134E+02 -0.40980217337E+01 -0.27898345731E+02  0.33103796395E+02  0.00000000000E+00 0.  1.
</event>
<event>
 7    1  0.4520156E-012  0.5052886E+02  0.7816164E-02  0.1300439E+00
        -11   -1    0    0    0    0  0.00000000000E+00  0.00000000000E+00  0.45593999997E+02  0.45594000000E+02  0.51100000000E-03 0. -1.
         11   -1    0    0    0    0 -0.00000000000E+00 -0.00000000000E+00 -0.45593999997E+02  0.45594000000E+02  0.51100000000E-03 0.  1.
    9900012    2    1    2    0    0  0.32310015542E+02  0.11418441241E+02  0.21882589319E+02  0.50528860560E+02  0.30000002158E+02 0.  0.
        -12    1    1    2    0    0 -0.32310015542E+02 -0.11418441241E+02 -0.21882589319E+02  0.40659139440E+02  0.00000000000E+00 0.  1.
         11    1    3    3    0    0  0.30546100729E+01  0.34963738081E+01  0.15295399671E+02  0.15984508872E+02  0.51100000000E-03 0.  1.
        -11    1    3    3    0    0  0.26143012032E+02  0.95387426261E+01  0.10076565965E+02  0.29596990909E+02  0.51100000000E-03 0. -1.
        -12    1    3    3    0    0  0.31123934377E+01 -0.16166751931E+01 -0.34893763175E+01  0.49473607789E+01  0.00000000000E+00 0.  1.
</event>
<event>
 7    1  0.4520156E-012  0.5052886E+02  0.7816164E-02  0.1300439E+00
        -11   -1    0    0    0    0  0.00000000000E+00  0.00000000000E+00  0.45593999997E+02  0.45594000000E+02  0.51100000000E-03 0. -1.
         11   -1    0    0    0    0 -0.00000000000E+00 -0.00000000000E+00 -0.45593999997E+02  0.45594000000E+02  0.51100000000E-03 0.  1.
    9900012    2    1    2    0    0  0.29613717347E+02  0.40674545461E+01  0.27561732890E+02  0.50528861280E+02  0.30000004346E+02 0.  0.
        -12    1    1    2    0    0 -0.29613717347E+02 -0.40674545461E+01 -0.27561732890E+02  0.40659138720E+02  0.00000000000E+00 0.  1.
         11    1    3    3    0    0  0.18418466142E+01 -0.44798914759E+00 -0.13178513069E+00  0.19001212615E+01  0.51100000000E-03 0. -1.
        -11    1    3    3    0    0  0.24455672157E+02  0.73863626394E+01  0.56644508860E+01  0.26167236342E+02  0.51100000000E-03 0.  1.
         12    1    3    3    0    0  0.33161985760E+01 -0.28709189458E+01  0.22029067134E+02  0.22461503676E+02  0.00000000000E+00 0. -1.
</event>
<event>
 7    1  0.4520156E-012  0.5052886E+02  0.7816164E-02  0.1300439E+00
        -11   -1    0    0    0    0  0.00000000000E+00  0.00000000000E+00  0.45593999997E+02  0.45594000000E+02  0.51100000000E-03 0.  1.
         11   -1    0    0    0    0 -0.00000000000E+00 -0.00000000000E+00 -0.45593999997E+02  0.45594000000E+02  0.51100000000E-03 0. -1.
    9900012    2    1    2    0    0 -0.97292308306E+01 -0.34396209296E+02 -0.19375455640E+02  0.50528862924E+02  0.30000009345E+02 0.  0.
         12    1    1    2    0    0  0.97292308306E+01  0.34396209296E+02  0.19375455640E+02  0.40659137076E+02  0.00000000000E+00 0. -1.
         11    1    3    3    0    0 -0.54515802460E+01 -0.28563357914E+01 -0.50093580822E+01  0.79354930526E+01  0.51100000000E-03 0. -1.
        -11    1    3    3    0    0 -0.10010716322E+02 -0.97494651313E+01  0.28196426728E+01  0.14255416398E+02  0.51100000000E-03 0.  1.
        -12    1    3    3    0    0  0.57330657369E+01 -0.21790408373E+02 -0.17185740231E+02  0.28337953474E+02  0.00000000000E+00 0.  1.
</event>
<event>
 7    1  0.4520156E-012  0.5052886E+02  0.7816164E-02  0.1300439E+00
        -11   -1    0    0    0    0  0.00000000000E+00  0.00000000000E+00  0.45593999997E+02  0.45594000000E+02  0.51100000000E-03 0. -1.
         11   -1    0    0    0    0 -0.00000000000E+00 -0.00000000000E+00 -0.45593999997E+02  0.45594000000E+02  0.51100000000E-03 0.  1.
    9900012    2    1    2    0    0 -0.28736518136E+02  0.28691131119E+02  0.20487299394E+01  0.50528858668E+02  0.29999996407E+02 0.  0.
        -12    1    1    2    0    0  0.28736518136E+02 -0.28691131119E+02 -0.20487299394E+01  0.40659141332E+02  0.00000000000E+00 0.  1.
         11    1    3    3    0    0 -0.61891681970E+01 -0.28251333075E+00 -0.93025463722E+00  0.62650611093E+01  0.51100000000E-03 0.  1.
        -11    1    3    3    0    0 -0.17701274037E+02  0.78648630319E+01 -0.67618558849E+01  0.20516185521E+02  0.51100000000E-03 0. -1.
         12    1    3    3    0    0 -0.48460759019E+01  0.21108781418E+02  0.97408404615E+01  0.23747612038E+02  0.00000000000E+00 0. -1.
</event>
<event>
 7    1  0.4520156E-012  0.5052890E+02  0.7816164E-02  0.1300439E+00
        -11   -1    0    0    0    0  0.00000000000E+00  0.00000000000E+00  0.45593999997E+02  0.45594000000E+02  0.51100000000E-03 0. -1.
         11   -1    0    0    0    0 -0.00000000000E+00 -0.00000000000E+00 -0.45593999997E+02  0.45594000000E+02  0.51100000000E-03 0.  1.
    9900012    2    1    2    0    0 -0.32532985777E+02  0.98510927276E+01  0.22309706239E+02  0.50528902814E+02  0.30000130594E+02 0.  0.
        -12    1    1    2    0    0  0.32532985777E+02 -0.98510927276E+01 -0.22309706239E+02  0.40659097186E+02  0.00000000000E+00 0.  1.
         11    1    3    3    0    0 -0.28304363587E+02  0.42290300947E+01  0.16331382329E+02  0.32950504437E+02  0.51100000000E-03 0. -1.
        -11    1    3    3    0    0 -0.18140564077E+01 -0.50858217425E+01  0.31174148537E+01  0.62349546172E+01  0.51100000000E-03 0.  1.
         12    1    3    3    0    0 -0.24145657823E+01  0.10707884375E+02  0.28609090569E+01  0.11343443760E+02  0.00000000000E+00 0. -1.
</event>
<event>
 7    1  0.4520156E-012  0.5052886E+02  0.7816164E-02  0.1300439E+00
        -11   -1    0    0    0    0  0.00000000000E+00  0.00000000000E+00  0.45593999997E+02  0.45594000000E+02  0.51100000000E-03 0. -1.
         11   -1    0    0    0    0 -0.00000000000E+00 -0.00000000000E+00 -0.45593999997E+02  0.45594000000E+02  0.51100000000E-03 0.  1.
    9900012    2    1    2    0    0  0.33895022869E+01 -0.23950056852E+02 -0.32681366841E+02  0.50528859729E+02  0.29999999633E+02 0.  0.
         12    1    1    2    0    0 -0.33895022869E+01  0.23950056852E+02  0.32681366841E+02  0.40659140271E+02  0.00000000000E+00 0. -1.
         11    1    3    3    0    0 -0.80444305049E+01 -0.11803236359E+02 -0.20263856996E+02  0.24792199404E+02  0.51100000000E-03 0. -1.
        -11    1    3    3    0    0 -0.96203915027E+00 -0.36239257652E+01 -0.97666276732E+01  0.10461614294E+02  0.51100000000E-03 0.  1.
         12    1    3    3    0    0  0.12395971942E+02 -0.85228947285E+01 -0.26508821714E+01  0.15275046030E+02  0.00000000000E+00 0. -1.
</event>
<event>
 7    1  0.4520156E-012  0.5052886E+02  0.7816164E-02  0.1300439E+00
        -11   -1    0    0    0    0  0.00000000000E+00  0.00000000000E+00  0.45593999997E+02  0.45594000000E+02  0.51100000000E-03 0. -1.
         11   -1    0    0    0    0 -0.00000000000E+00 -0.00000000000E+00 -0.45593999997E+02  0.45594000000E+02  0.51100000000E-03 0.  1.
    9900012    2    1    2    0    0  0.27144899117E+02 -0.19918487170E+02  0.22794173859E+02  0.50528855381E+02  0.29999986417E+02 0.  0.
        -12    1    1    2    0    0 -0.27144899117E+02  0.19918487170E+02 -0.22794173859E+02  0.40659144619E+02  0.00000000000E+00 0.  1.
         11    1    3    3    0    0  0.73572917597E+01 -0.53622642069E+01  0.12594460797E+02  0.15540400976E+02  0.51100000000E-03 0. -1.
        -11    1    3    3    0    0  0.25445903925E+01  0.60634091184E+01  0.16070808709E+01  0.67692377406E+01  0.51100000000E-03 0.  1.
         12    1    3    3    0    0  0.17243016965E+02 -0.20619632081E+02  0.85926321912E+01  0.28219216665E+02  0.00000000000E+00 0. -1.
</event>
<event>
 7    1  0.4520156E-012  0.5052888E+02  0.7816164E-02  0.1300439E+00
        -11   -1    0    0    0    0  0.00000000000E+00  0.00000000000E+00  0.45593999997E+02  0.45594000000E+02  0.51100000000E-03 0. -1.
         11   -1    0    0    0    0 -0.00000000000E+00 -0.00000000000E+00 -0.45593999997E+02  0.45594000000E+02  0.51100000000E-03 0.  1.
    9900012    2    1    2    0    0  0.19479866505E+02  0.20854446047E+02  0.28961881647E+02  0.50528884079E+02  0.30000073646E+02 0.  0.
        -12    1    1    2    0    0 -0.19479866505E+02 -0.20854446047E+02 -0.28961881647E+02  0.40659115921E+02  0.00000000000E+00 0.  1.
         11    1    3    3    0    0  0.57551391722E+01  0.50278980824E+01  0.16295737119E+01  0.78138912689E+01  0.51100000000E-03 0. -1.
        -11    1    3    3    0    0  0.13433931718E+02  0.94425256142E+01  0.19444916476E+01  0.16535200616E+02  0.51100000000E-03 0.  1.
         12    1    3    3    0    0  0.29079561410E+00  0.63840223505E+01  0.25387816287E+02  0.26179792194E+02  0.00000000000E+00 0. -1.
</event>
<event>
 7    1  0.4520156E-012  0.5052885E+02  0.7816164E-02  0.1300439E+00
        -11   -1    0    0    0    0  0.00000000000E+00  0.00000000000E+00  0.45593999997E+02  0.45594000000E+02  0.51100000000E-03 0. -1.
         11   -1    0    0    0    0 -0.00000000000E+00 -0.00000000000E+00 -0.45593999997E+02  0.45594000000E+02  0.51100000000E-03 0.  1.
    9900012    2    1    2    0    0 -0.22309848908E+02  0.23917344538E+02 -0.24153622106E+02  0.50528853564E+02  0.29999980894E+02 0.  0.
         12    1    1    2    0    0  0.22309848908E+02 -0.23917344538E+02  0.24153622106E+02  0.40659146436E+02  0.00000000000E+00 0. -1.
         11    1    3    3    0    0 -0.37176200284E+01  0.66649491598E+00  0.15425570817E+00  0.37800409036E+01  0.51100000000E-03 0. -1.
        -11    1    3    3    0    0 -0.83418153835E+01 -0.20404344689E+01 -0.16107504389E+02  0.18253792883E+02  0.51100000000E-03 0.  1.
         12    1    3    3    0    0 -0.10250413496E+02  0.25291284091E+02 -0.82003734251E+01  0.28495019778E+02  0.00000000000E+00 0. -1.
</event>
<event>
 7    1  0.4520156E-012  0.5052886E+02  0.7816164E-02  0.1300439E+00
        -11   -1    0    0    0    0  0.00000000000E+00  0.00000000000E+00  0.45593999997E+02  0.45594000000E+02  0.51100000000E-03 0. -1.
         11   -1    0    0    0    0 -0.00000000000E+00 -0.00000000000E+00 -0.45593999997E+02  0.45594000000E+02  0.51100000000E-03 0.  1.
    9900012    2    1    2    0    0 -0.29296199675E+02  0.63245907235E+01 -0.27475399165E+02  0.50528864219E+02  0.30000013279E+02 0.  0.
         12    1    1    2    0    0  0.29296199675E+02 -0.63245907235E+01  0.27475399165E+02  0.40659135781E+02  0.00000000000E+00 0. -1.
         11    1    3    3    0    0 -0.66599605763E+01 -0.36903057459E+00  0.24920915206E-01  0.66702233662E+01  0.51100000000E-03 0. -1.
        -11    1    3    3    0    0  0.50836916750E+00  0.62781110960E+01  0.17685699660E+01  0.65422441203E+01  0.51100000000E-03 0.  1.
        -12    1    3    3    0    0 -0.23144608266E+02  0.41551020212E+00 -0.29268890046E+02  0.37316396732E+02  0.00000000000E+00 0.  1.
</event>
<event>
 7    1  0.4520156E-012  0.5052893E+02  0.7816164E-02  0.1300439E+00
        -11   -1    0    0    0    0  0.00000000000E+00  0.00000000000E+00  0.45593999997E+02  0.45594000000E+02  0.51100000000E-03 0. -1.
         11   -1    0    0    0    0 -0.00000000000E+00 -0.00000000000E+00 -0.45593999997E+02  0.45594000000E+02  0.51100000000E-03 0.  1.
    9900012    2    1    2    0    0 -0.13935039113E+01  0.75926365934E+01  0.39919542489E+02  0.50528931440E+02  0.30000217605E+02 0.  0.
        -12    1    1    2    0    0  0.13935039113E+01 -0.75926365934E+01 -0.39919542489E+02  0.40659068560E+02  0.00000000000E+00 0.  1.
         11    1    3    3    0    0 -0.92320093644E+00  0.53116951733E+00  0.75233859575E+01  0.75984062508E+01  0.51100000000E-03 0. -1.
        -11    1    3    3    0    0 -0.11615671108E+02  0.26221394158E+01  0.27510107271E+02  0.29976748201E+02  0.51100000000E-03 0.  1.
        -12    1    3    3    0    0  0.11145368133E+02  0.44393276603E+01  0.48860492609E+01  0.12953776989E+02  0.00000000000E+00 0.  1.
</event>
<event>
 7    1  0.6822465E-012  0.5052886E+02  0.7816164E-02  0.1300439E+00
        -11   -1    0    0    0    0  0.00000000000E+00  0.00000000000E+00  0.45593999997E+02  0.45594000000E+02  0.51100000000E-03 0. -1.
         11   -1    0    0    0    0 -0.00000000000E+00 -0.00000000000E+00 -0.45593999997E+02  0.45594000000E+02  0.51100000000E-03 0.  1.
    9900012    2    1    2    0    0  0.11646626716E+02  0.16161800793E+02  0.35444575021E+02  0.50528860595E+02  0.30000002265E+02 0.  0.
        -12    1    1    2    0    0 -0.11646626716E+02 -0.16161800793E+02 -0.35444575021E+02  0.40659139405E+02  0.00000000000E+00 0.  1.
         11    1    3    3    0    0  0.85107117680E+01  0.90209838820E+01  0.45916351618E+01  0.13224729816E+02  0.51100000000E-03 0. -1.
        -11    1    3    3    0    0  0.57844265001E+01 -0.58955050670E+00  0.46079260521E+00  0.58326228938E+01  0.51100000000E-03 0.  1.
         12    1    3    3    0    0 -0.26485115519E+01  0.77303674182E+01  0.30392147254E+02  0.31471507885E+02  0.00000000000E+00 0. -1.
</event>
<event>
 7    1  0.4520156E-012  0.5052885E+02  0.7816164E-02  0.1300439E+00
        -11   -1    0    0    0    0  0.00000000000E+00  0.00000000000E+00  0.45593999997E+02  0.45594000000E+02  0.51100000000E-03 0. -1.
         11   -1    0    0    0    0 -0.00000000000E+00 -0.00000000000E+00 -0.45593999997E+02  0.45594000000E+02  0.51100000000E-03 0.  1.
    9900012    2    1    2    0    0  0.67421510991E+01 -0.22725162140E+02 -0.33034480914E+02  0.50528849431E+02  0.29999968331E+02 0.  0.
         12    1    1    2    0    0 -0.67421510991E+01  0.22725162140E+02  0.33034480914E+02  0.40659150569E+02  0.00000000000E+00 0. -1.
         11    1    3    3    0    0  0.98068586602E+01 -0.13098310485E+02 -0.11996302693E+02  0.20289196458E+02  0.51100000000E-03 0.  1.
        -11    1    3    3    0    0 -0.33582779507E+01 -0.28221312691E+01  0.29611608896E+01  0.52925352875E+01  0.51100000000E-03 0. -1.
         12    1    3    3    0    0  0.29357038965E+00 -0.68047203856E+01 -0.23999339110E+02  0.24947117686E+02  0.00000000000E+00 0. -1.
</event>
<event>
 7    1  0.4520156E-012  0.5052887E+02  0.7816164E-02  0.1300439E+00
        -11   -1    0    0    0    0  0.00000000000E+00  0.00000000000E+00  0.45593999997E+02  0.45594000000E+02  0.51100000000E-03 0. -1.
         11   -1    0    0    0    0 -0.00000000000E+00 -0.00000000000E+00 -0.45593999997E+02  0.45594000000E+02  0.51100000000E-03 0.  1.
    9900012    2    1    2    0    0 -0.98119046393E+01 -0.86891920325E+01  0.38488821875E+02  0.50528868920E+02  0.30000027570E+02 0.  0.
        -12    1    1    2    0    0  0.98119046393E+01  0.86891920325E+01 -0.38488821875E+02  0.40659131080E+02  0.00000000000E+00 0.  1.
         11    1    3    3    0    0 -0.27501722001E+01  0.14147721270E+01  0.62006818899E+01  0.69291762470E+01  0.51100000000E-03 0. -1.
        -11    1    3    3    0    0  0.17009643790E+01  0.81876073725E+01  0.13906898787E+02  0.16227508387E+02  0.51100000000E-03 0.  1.
         12    1    3    3    0    0 -0.87626968182E+01 -0.18291571532E+02  0.18381241198E+02  0.27372184286E+02  0.00000000000E+00 0. -1.
</event>
<event>
 7    1  0.4520156E-012  0.5052886E+02  0.7816164E-02  0.1300439E+00
        -11   -1    0    0    0    0  0.00000000000E+00  0.00000000000E+00  0.45593999997E+02  0.45594000000E+02  0.51100000000E-03 0. -1.
         11   -1    0    0    0    0 -0.00000000000E+00 -0.00000000000E+00 -0.45593999997E+02  0.45594000000E+02  0.51100000000E-03 0.  1.
    9900012    2    1    2    0    0  0.53178303388E+01  0.28242400968E+02 -0.28762004089E+02  0.50528863128E+02  0.30000009963E+02 0.  0.
         12    1    1    2    0    0 -0.53178303388E+01 -0.28242400968E+02  0.28762004089E+02  0.40659136872E+02  0.00000000000E+00 0. -1.
         11    1    3    3    0    0 -0.74452713061E+01  0.50939028308E+01 -0.44193054796E+01  0.10045405520E+02  0.51100000000E-03 0. -1.
        -11    1    3    3    0    0 -0.40071715586E+01  0.26528981071E+01 -0.80954184244E+01  0.94144087437E+01  0.51100000000E-03 0.  1.
        -12    1    3    3    0    0  0.16770273204E+02  0.20495600030E+02 -0.16247280185E+02  0.31069048864E+02  0.00000000000E+00 0.  1.
</event>
<event>
 7    1  0.4520156E-012  0.5052883E+02  0.7816164E-02  0.1300439E+00
        -11   -1    0    0    0    0  0.00000000000E+00  0.00000000000E+00  0.45593999997E+02  0.45594000000E+02  0.51100000000E-03 0.  1.
         11   -1    0    0    0    0 -0.00000000000E+00 -0.00000000000E+00 -0.45593999997E+02  0.45594000000E+02  0.51100000000E-03 0. -1.
    9900012    2    1    2    0    0  0.20210320159E+02 -0.35084462832E+02 -0.37136423636E+01  0.50528834825E+02  0.29999923934E+02 0.  0.
        -12    1    1    2    0    0 -0.20210320159E+02  0.35084462832E+02  0.37136423636E+01  0.40659165175E+02  0.00000000000E+00 0.  1.
         11    1    3    3    0    0  0.59293724082E+01 -0.11039236874E+02 -0.24838539770E+01  0.12774652197E+02  0.51100000000E-03 0. -1.
        -11    1    3    3    0    0  0.39973931575E+01 -0.26450687082E+02  0.16671231936E+01  0.26802934525E+02  0.51100000000E-03 0.  1.
        -12    1    3    3    0    0  0.10283554593E+02  0.24054611244E+01 -0.28969115801E+01  0.10951248102E+02  0.00000000000E+00 0.  1.
</event>
<event>
 7    1  0.4520156E-012  0.5052888E+02  0.7816164E-02  0.1300439E+00
        -11   -1    0    0    0    0  0.00000000000E+00  0.00000000000E+00  0.45593999997E+02  0.45594000000E+02  0.51100000000E-03 0. -1.
         11   -1    0    0    0    0 -0.00000000000E+00 -0.00000000000E+00 -0.45593999997E+02  0.45594000000E+02  0.51100000000E-03 0.  1.
    9900012    2    1    2    0    0 -0.21452220336E+02 -0.49160118514E+01 -0.34187706499E+02  0.50528877954E+02  0.30000055030E+02 0.  0.
         12    1    1    2    0    0  0.21452220336E+02  0.49160118514E+01  0.34187706499E+02  0.40659122046E+02  0.00000000000E+00 0. -1.
         11    1    3    3    0    0 -0.35227347042E+01 -0.34856476114E+01 -0.54906116720E+01  0.73963650438E+01  0.51100000000E-03 0. -1.
        -11    1    3    3    0    0  0.35712286453E+01 -0.13686708517E+01 -0.19287199587E+02  0.19662731298E+02  0.51100000000E-03 0.  1.
         12    1    3    3    0    0 -0.21500714277E+02 -0.61693388326E-01 -0.94098952403E+01  0.23469781612E+02  0.00000000000E+00 0. -1.
</event>
<event>
 7    1  0.4520156E-012  0.5052887E+02  0.7816164E-02  0.1300439E+00
        -11   -1    0    0    0    0  0.00000000000E+00  0.00000000000E+00  0.45593999997E+02  0.45594000000E+02  0.51100000000E-03 0. -1.
         11   -1    0    0    0    0 -0.00000000000E+00 -0.00000000000E+00 -0.45593999997E+02  0.45594000000E+02  0.51100000000E-03 0.  1.
    9900012    2    1    2    0    0  0.16474017990E+02  0.27758180217E+02  0.24723579854E+02  0.50528865251E+02  0.30000016418E+02 0.  0.
        -12    1    1    2    0    0 -0.16474017990E+02 -0.27758180217E+02 -0.24723579854E+02  0.40659134749E+02  0.00000000000E+00 0.  1.
         11    1    3    3    0    0  0.57456284799E+01  0.77256578486E+01  0.12857370956E+02  0.16062690434E+02  0.51100000000E-03 0. -1.
        -11    1    3    3    0    0  0.17331222038E+02  0.91000090122E+01  0.67150268645E+01  0.20694757969E+02  0.51100000000E-03 0.  1.
         12    1    3    3    0    0 -0.66028325272E+01  0.10932513356E+02  0.51511820333E+01  0.13771416848E+02  0.00000000000E+00 0. -1.
</event>
<event>
 7    1  0.4520156E-012  0.5052887E+02  0.7816164E-02  0.1300439E+00
        -11   -1    0    0    0    0  0.00000000000E+00  0.00000000000E+00  0.45593999997E+02  0.45594000000E+02  0.51100000000E-03 0.  1.
         11   -1    0    0    0    0 -0.00000000000E+00 -0.00000000000E+00 -0.45593999997E+02  0.45594000000E+02  0.51100000000E-03 0. -1.
    9900012    2    1    2    0    0  0.18103238682E+02  0.26084036389E+02 -0.25398050775E+02  0.50528865869E+02  0.30000018294E+02 0.  0.
         12    1    1    2    0    0 -0.18103238682E+02 -0.26084036389E+02  0.25398050775E+02  0.40659134131E+02  0.00000000000E+00 0. -1.
         11    1    3    3    0    0  0.13295813114E+02  0.28408969385E+02 -0.18849105969E+02  0.36594220636E+02  0.51100000000E-03 0. -1.
        -11    1    3    3    0    0  0.55556384112E+01  0.30488064893E+01 -0.14758994013E+01  0.65068132345E+01  0.51100000000E-03 0.  1.
         12    1    3    3    0    0 -0.74821284359E+00 -0.53737394849E+01 -0.50730454046E+01  0.74278319979E+01  0.00000000000E+00 0. -1.
</event>
<event>
 7    1  0.4520156E-012  0.5052890E+02  0.7816164E-02  0.1300439E+00
        -11   -1    0    0    0    0  0.00000000000E+00  0.00000000000E+00  0.45593999997E+02  0.45594000000E+02  0.51100000000E-03 0. -1.
         11   -1    0    0    0    0 -0.00000000000E+00 -0.00000000000E+00 -0.45593999997E+02  0.45594000000E+02  0.51100000000E-03 0.  1.
    9900012    2    1    2    0    0 -0.37002066324E+02  0.14622048665E+02  0.83788566782E+01  0.50528899437E+02  0.30000120327E+02 0.  0.
        -12    1    1    2    0    0  0.37002066324E+02 -0.14622048665E+02 -0.83788566782E+01  0.40659100563E+02  0.00000000000E+00 0.  1.
         11    1    3    3    0    0 -0.41836480114E+01 -0.60095145006E+01 -0.36358506484E+01  0.81753645432E+01  0.51100000000E-03 0. -1.
        -11    1    3    3    0    0 -0.60896148328E+01  0.15853915696E+00  0.51842829647E+01  0.79990832971E+01  0.51100000000E-03 0.  1.
         12    1    3    3    0    0 -0.26728803480E+02  0.20473024008E+02  0.68304243620E+01  0.34354451596E+02  0.00000000000E+00 0. -1.
</event>
<event>
 7    1  0.4520156E-012  0.5052885E+02  0.7816164E-02  0.1300439E+00
        -11   -1    0    0    0    0  0.00000000000E+00  0.00000000000E+00  0.45593999997E+02  0.45594000000E+02  0.51100000000E-03 0. -1.
         11   -1    0    0    0    0 -0.00000000000E+00 -0.00000000000E+00 -0.45593999997E+02  0.45594000000E+02  0.51100000000E-03 0.  1.
    9900012    2    1    2    0    0 -0.36438354767E+01  0.70303466113E+01  0.39880606879E+02  0.50528854467E+02  0.29999983637E+02 0.  0.
        -12    1    1    2    0    0  0.36438354767E+01 -0.70303466113E+01 -0.39880606879E+02  0.40659145533E+02  0.00000000000E+00 0.  1.
         11    1    3    3    0    0 -0.70136899006E+01 -0.52130682795E+01  0.48070421776E+01  0.99737446160E+01  0.51100000000E-03 0. -1.
        -11    1    3    3    0    0 -0.12879308882E+01 -0.32866549496E+01  0.30673513571E+01  0.46764849342E+01  0.51100000000E-03 0.  1.
        -12    1    3    3    0    0  0.46577853121E+01  0.15530069840E+02  0.32006213344E+02  0.35878624917E+02  0.00000000000E+00 0.  1.
</event>
<event>
 7    1  0.4520156E-012  0.5052887E+02  0.7816164E-02  0.1300439E+00
        -11   -1    0    0    0    0  0.00000000000E+00  0.00000000000E+00  0.45593999997E+02  0.45594000000E+02  0.51100000000E-03 0. -1.
         11   -1    0    0    0    0 -0.00000000000E+00 -0.00000000000E+00 -0.45593999997E+02  0.45594000000E+02  0.51100000000E-03 0.  1.
    9900012    2    1    2    0    0  0.35685922941E+02  0.17025392858E+02  0.94771307108E+01  0.50528866898E+02  0.30000021422E+02 0.  0.
        -12    1    1    2    0    0 -0.35685922941E+02 -0.17025392858E+02 -0.94771307108E+01  0.40659133102E+02  0.00000000000E+00 0.  1.
         11    1    3    3    0    0  0.17377500431E+02  0.20058909803E+01  0.23480013181E+01  0.17649765730E+02  0.51100000000E-03 0. -1.
        -11    1    3    3    0    0  0.19385530649E+02  0.11340123594E+02 -0.24203083348E+01  0.22588826759E+02  0.51100000000E-03 0.  1.
         12    1    3    3    0    0 -0.10771081389E+01  0.36793782833E+01  0.95494377275E+01  0.10290274409E+02  0.00000000000E+00 0. -1.
</event>
<event>
 7    1  0.4520156E-012  0.5052885E+02  0.7816164E-02  0.1300439E+00
        -11   -1    0    0    0    0  0.00000000000E+00  0.00000000000E+00  0.45593999997E+02  0.45594000000E+02  0.51100000000E-03 0. -1.
         11   -1    0    0    0    0 -0.00000000000E+00 -0.00000000000E+00 -0.45593999997E+02  0.45594000000E+02  0.51100000000E-03 0.  1.
    9900012    2    1    2    0    0  0.35504531000E+01 -0.42371799329E+01 -0.40281592578E+02  0.50528854515E+02  0.29999983783E+02 0.  0.
         12    1    1    2    0    0 -0.35504531000E+01  0.42371799329E+01  0.40281592578E+02  0.40659145485E+02  0.00000000000E+00 0. -1.
         11    1    3    3    0    0  0.65541601520E+01 -0.60513258645E+01 -0.37189336330E+00  0.89282621462E+01  0.51100000000E-03 0. -1.
        -11    1    3    3    0    0 -0.43429347882E+01  0.14430680731E+01 -0.54659690062E+01  0.71288389991E+01  0.51100000000E-03 0.  1.
        -12    1    3    3    0    0  0.13392277362E+01  0.37107785854E+00 -0.34443730208E+02  0.34471753369E+02  0.00000000000E+00 0.  1.
</event>
<event>
 7    1  0.4520156E-012  0.5052886E+02  0.7816164E-02  0.1300439E+00
        -11   -1    0    0    0    0  0.00000000000E+00  0.00000000000E+00  0.45593999997E+02  0.45594000000E+02  0.51100000000E-03 0. -1.
         11   -1    0    0    0    0 -0.00000000000E+00 -0.00000000000E+00 -0.45593999997E+02  0.45594000000E+02  0.51100000000E-03 0.  1.
    9900012    2    1    2    0    0 -0.75970474099E+00 -0.37407590740E+02  0.15914152914E+02  0.50528864997E+02  0.30000015643E+02 0.  0.
        -12    1    1    2    0    0  0.75970474099E+00  0.37407590740E+02 -0.15914152914E+02  0.40659135003E+02  0.00000000000E+00 0.  1.
         11    1    3    3    0    0 -0.68081285125E+01 -0.25550118465E+02  0.39791100631E+01  0.26739343384E+02  0.51100000000E-03 0. -1.
        -11    1    3    3    0    0 -0.17632110180E+00 -0.92604791863E+01 -0.88412281512E+00  0.93042590948E+01  0.51100000000E-03 0.  1.
        -12    1    3    3    0    0  0.62247448733E+01 -0.25969930883E+01  0.12819165666E+02  0.14485262518E+02  0.00000000000E+00 0.  1.
</event>
<event>
 7    1  0.4520156E-012  0.5052886E+02  0.7816164E-02  0.1300439E+00
        -11   -1    0    0    0    0  0.00000000000E+00  0.00000000000E+00  0.45593999997E+02  0.45594000000E+02  0.51100000000E-03 0.  1.
         11   -1    0    0    0    0 -0.00000000000E+00 -0.00000000000E+00 -0.45593999997E+02  0.45594000000E+02  0.51100000000E-03 0. -1.
    9900012    2    1    2    0    0 -0.11136087650E+02  0.33622496279E+02 -0.19966995830E+02  0.50528860478E+02  0.30000001908E+02 0.  0.
         12    1    1    2    0    0  0.11136087650E+02 -0.33622496279E+02  0.19966995830E+02  0.40659139522E+02  0.00000000000E+00 0. -1.
         11    1    3    3    0    0 -0.38875498525E+01  0.13033489416E+02 -0.15325887207E+02  0.20490673712E+02  0.51100000000E-03 0. -1.
        -11    1    3    3    0    0 -0.10575357846E+02  0.19014828915E+02 -0.96671004708E+01  0.23808711515E+02  0.51100000000E-03 0.  1.
         12    1    3    3    0    0  0.33268200479E+01  0.15741779482E+01  0.50259918478E+01  0.62294752506E+01  0.00000000000E+00 0. -1.
</event>
<event>
 7    1  0.4520156E-012  0.5052887E+02  0.7816164E-02  0.1300439E+00
        -11   -1    0    0    0    0  0.00000000000E+00  0.00000000000E+00  0.45593999997E+02  0.45594000000E+02  0.51100000000E-03 0. -1.
         11   -1    0    0    0    0 -0.00000000000E+00 -0.00000000000E+00 -0.45593999997E+02  0.45594000000E+02  0.51100000000E-03 0.  1.
    9900012    2    1    2    0    0 -0.31670524701E+02 -0.19288164476E+02  0.16676623835E+02  0.50528865649E+02  0.30000017626E+02 0.  0.
        -12    1    1    2    0    0  0.31670524701E+02  0.19288164476E+02 -0.16676623835E+02  0.40659134351E+02  0.00000000000E+00 0.  1.
         11    1    3    3    0    0 -0.62181272192E+00 -0.45398940564E+00  0.17975419254E+01  0.19554832334E+01  0.51100000000E-03 0. -1.
        -11    1    3    3    0    0 -0.14848084840E+02 -0.77898457439E+01 -0.78854121430E+01  0.18529086460E+02  0.51100000000E-03 0.  1.
        -12    1    3    3    0    0 -0.16200627139E+02 -0.11044329327E+02  0.22764494052E+02  0.30044295955E+02  0.00000000000E+00 0.  1.
</event>
<event>
 7    1  0.4520156E-012  0.5052885E+02  0.7816164E-02  0.1300439E+00
        -11   -1    0    0    0    0  0.00000000000E+00  0.00000000000E+00  0.45593999997E+02  0.45594000000E+02  0.51100000000E-03 0. -1.
         11   -1    0    0    0    0 -0.00000000000E+00 -0.00000000000E+00 -0.45593999997E+02  0.45594000000E+02  0.51100000000E-03 0.  1.
    9900012    2    1    2    0    0 -0.60147996213E+01  0.33554442600E+02 -0.22160500333E+02  0.50528853333E+02  0.29999980190E+02 0.  0.
         12    1    1    2    0    0  0.60147996213E+01 -0.33554442600E+02  0.22160500333E+02  0.40659146667E+02  0.00000000000E+00 0. -1.
         11    1    3    3    0    0 -0.10939964203E+02  0.19107701142E+02 -0.15623552222E+02  0.26997822949E+02  0.51100000000E-03 0. -1.
        -11    1    3    3    0    0 -0.60061636009E+01  0.76423825206E+01 -0.31347856717E+01  0.10213074623E+02  0.51100000000E-03 0.  1.
        -12    1    3    3    0    0  0.10931328182E+02  0.68043589377E+01 -0.34021624393E+01  0.13317955761E+02  0.00000000000E+00 0.  1.
</event>
<event>
 7    1  0.4520156E-012  0.5052886E+02  0.7816164E-02  0.1300439E+00
        -11   -1    0    0    0    0  0.00000000000E+00  0.00000000000E+00  0.45593999997E+02  0.45594000000E+02  0.51100000000E-03 0. -1.
         11   -1    0    0    0    0 -0.00000000000E+00 -0.00000000000E+00 -0.45593999997E+02  0.45594000000E+02  0.51100000000E-03 0.  1.
    9900012    2    1    2    0    0  0.17204739640E+02 -0.11196589692E+02  0.35096999384E+02  0.50528855240E+02  0.29999985988E+02 0.  0.
        -12    1    1    2    0    0 -0.17204739640E+02  0.11196589692E+02 -0.35096999384E+02  0.40659144760E+02  0.00000000000E+00 0.  1.
         11    1    3    3    0    0 -0.13157958477E+01 -0.26252142307E+01  0.14694681570E+02  0.14985217222E+02  0.51100000000E-03 0. -1.
        -11    1    3    3    0    0  0.71870986946E+01  0.73009975549E+00  0.19567264710E+02  0.20858218567E+02  0.51100000000E-03 0.  1.
        -12    1    3    3    0    0  0.11333436794E+02 -0.93014752171E+01  0.83505310350E+00  0.14685419451E+02  0.00000000000E+00 0.  1.
</event>
<event>
 7    1  0.4520156E-012  0.5052886E+02  0.7816164E-02  0.1300439E+00
        -11   -1    0    0    0    0  0.00000000000E+00  0.00000000000E+00  0.45593999997E+02  0.45594000000E+02  0.51100000000E-03 0. -1.
         11   -1    0    0    0    0 -0.00000000000E+00 -0.00000000000E+00 -0.45593999997E+02  0.45594000000E+02  0.51100000000E-03 0.  1.
    9900012    2    1    2    0    0 -0.30778254092E+02 -0.19629011205E+02  0.17904368949E+02  0.50528862856E+02  0.30000009137E+02 0.  0.
        -12    1    1    2    0    0  0.30778254092E+02  0.19629011205E+02 -0.17904368949E+02  0.40659137144E+02  0.00000000000E+00 0.  1.
         11    1    3    3    0    0 -0.95124154009E+01 -0.49691375188E+01 -0.24413479583E+01  0.11006296132E+02  0.51100000000E-03 0. -1.
        -11    1    3    3    0    0 -0.45858324230E+00 -0.24083214555E+01 -0.43440756259E+01  0.49881162906E+01  0.51100000000E-03 0.  1.
         12    1    3    3    0    0 -0.20807255449E+02 -0.12251552230E+02  0.24689792533E+02  0.34534450433E+02  0.00000000000E+00 0. -1.
</event>
<event>
 7    1  0.4520156E-012  0.5052886E+02  0.7816164E-02  0.1300439E+00
        -11   -1    0    0    0    0  0.00000000000E+00  0.00000000000E+00  0.45593999997E+02  0.45594000000E+02  0.51100000000E-03 0. -1.
         11   -1    0    0    0    0 -0.00000000000E+00 -0.00000000000E+00 -0.45593999997E+02  0.45594000000E+02  0.51100000000E-03 0.  1.
    9900012    2    1    2    0    0  0.66934456581E+01  0.17724783289E+02  0.35974923337E+02  0.50528864907E+02  0.30000015371E+02 0.  0.
        -12    1    1    2    0    0 -0.66934456581E+01 -0.17724783289E+02 -0.35974923337E+02  0.40659135093E+02  0.00000000000E+00 0.  1.
         11    1    3    3    0    0 -0.68462105447E+00  0.36929994809E+01  0.19643573411E+02  0.19999423186E+02  0.51100000000E-03 0. -1.
        -11    1    3    3    0    0 -0.25286722160E+01 -0.65313402113E+00  0.12016962228E+02  0.12297485461E+02  0.51100000000E-03 0.  1.
        -12    1    3    3    0    0  0.99067389286E+01  0.14684917829E+02  0.43143876987E+01  0.18231956260E+02  0.00000000000E+00 0.  1.
</event>
<event>
 7    1  0.4520156E-012  0.5052886E+02  0.7816164E-02  0.1300439E+00
        -11   -1    0    0    0    0  0.00000000000E+00  0.00000000000E+00  0.45593999997E+02  0.45594000000E+02  0.51100000000E-03 0. -1.
         11   -1    0    0    0    0 -0.00000000000E+00 -0.00000000000E+00 -0.45593999997E+02  0.45594000000E+02  0.51100000000E-03 0.  1.
    9900012    2    1    2    0    0 -0.44936397301E+01  0.17217536393E+02 -0.36558574071E+02  0.50528859630E+02  0.29999999333E+02 0.  0.
         12    1    1    2    0    0  0.44936397301E+01 -0.17217536393E+02  0.36558574071E+02  0.40659140370E+02  0.00000000000E+00 0. -1.
         11    1    3    3    0    0 -0.23934696097E+01  0.10928340239E+02 -0.12959016511E+02  0.17119971564E+02  0.51100000000E-03 0.  1.
        -11    1    3    3    0    0 -0.21530091500E+01  0.10160346826E+02 -0.94830355963E+00  0.10429159886E+02  0.51100000000E-03 0. -1.
        -12    1    3    3    0    0  0.52839029602E-01 -0.38711506714E+01 -0.22651254000E+02  0.22979728181E+02  0.00000000000E+00 0.  1.
</event>
<event>
 7    1  0.4520156E-012  0.5052886E+02  0.7816164E-02  0.1300439E+00
        -11   -1    0    0    0    0  0.00000000000E+00  0.00000000000E+00  0.45593999997E+02  0.45594000000E+02  0.51100000000E-03 0. -1.
         11   -1    0    0    0    0 -0.00000000000E+00 -0.00000000000E+00 -0.45593999997E+02  0.45594000000E+02  0.51100000000E-03 0.  1.
    9900012    2    1    2    0    0  0.40610053569E+02  0.17801904622E+01 -0.90567691442E+00  0.50528858597E+02  0.29999996193E+02 0.  0.
        -12    1    1    2    0    0 -0.40610053569E+02 -0.17801904622E+01  0.90567691442E+00  0.40659141403E+02  0.00000000000E+00 0.  1.
         11    1    3    3    0    0  0.12866579815E+02 -0.98544351809E+01 -0.30820479285E+01  0.16497205478E+02  0.51100000000E-03 0. -1.
        -11    1    3    3    0    0  0.22136726699E+01 -0.32065409873E+01 -0.16943332761E+01  0.42488842423E+01  0.51100000000E-03 0.  1.
        -12    1    3    3    0    0  0.25529801084E+02  0.14841166630E+02  0.38707042902E+01  0.29782768878E+02  0.00000000000E+00 0.  1.
</event>
<event>
 7    1  0.4520156E-012  0.5052886E+02  0.7816164E-02  0.1300439E+00
        -11   -1    0    0    0    0  0.00000000000E+00  0.00000000000E+00  0.45593999997E+02  0.45594000000E+02  0.51100000000E-03 0. -1.
         11   -1    0    0    0    0 -0.00000000000E+00 -0.00000000000E+00 -0.45593999997E+02  0.45594000000E+02  0.51100000000E-03 0.  1.
    9900012    2    1    2    0    0  0.27287592233E+02 -0.67294942489E+01 -0.29381397898E+02  0.50528864185E+02  0.30000013178E+02 0.  0.
         12    1    1    2    0    0 -0.27287592233E+02  0.67294942489E+01  0.29381397898E+02  0.40659135815E+02  0.00000000000E+00 0. -1.
         11    1    3    3    0    0  0.68510071695E+01  0.42429403456E+01 -0.17149413976E+02  0.18948383625E+02  0.51100000000E-03 0. -1.
        -11    1    3    3    0    0 -0.41416095291E+00 -0.66596771058E+01 -0.69674796823E+01  0.96472069446E+01  0.51100000000E-03 0.  1.
        -12    1    3    3    0    0  0.20850746017E+02 -0.43127574887E+01 -0.52645042399E+01  0.21933273616E+02  0.00000000000E+00 0.  1.
</event>
<event>
 7    1  0.4520156E-012  0.5052887E+02  0.7816164E-02  0.1300439E+00
        -11   -1    0    0    0    0  0.00000000000E+00  0.00000000000E+00  0.45593999997E+02  0.45594000000E+02  0.51100000000E-03 0. -1.
         11   -1    0    0    0    0 -0.00000000000E+00 -0.00000000000E+00 -0.45593999997E+02  0.45594000000E+02  0.51100000000E-03 0.  1.
    9900012    2    1    2    0    0  0.22137823184E+02 -0.11752869406E+02 -0.32014864595E+02  0.50528871755E+02  0.30000036187E+02 0.  0.
         12    1    1    2    0    0 -0.22137823184E+02  0.11752869406E+02  0.32014864595E+02  0.40659128245E+02  0.00000000000E+00 0. -1.
         11    1    3    3    0    0  0.22026322137E+02 -0.11834074196E+02 -0.16546491450E+02  0.29983171256E+02  0.51100000000E-03 0. -1.
        -11    1    3    3    0    0  0.59654727020E+01 -0.19099235622E+01 -0.11790995933E+02  0.13351488978E+02  0.51100000000E-03 0.  1.
        -12    1    3    3    0    0 -0.58539716556E+01  0.19911283521E+01 -0.36773772117E+01  0.71942115215E+01  0.00000000000E+00 0.  1.
</event>
<event>
 7    1  0.4520156E-012  0.5052886E+02  0.7816164E-02  0.1300439E+00
        -11   -1    0    0    0    0  0.00000000000E+00  0.00000000000E+00  0.45593999997E+02  0.45594000000E+02  0.51100000000E-03 0.  1.
         11   -1    0    0    0    0 -0.00000000000E+00 -0.00000000000E+00 -0.45593999997E+02  0.45594000000E+02  0.51100000000E-03 0. -1.
    9900012    2    1    2    0    0  0.19959272623E+02  0.14892224635E+02 -0.32140547486E+02  0.50528859442E+02  0.29999998761E+02 0.  0.
         12    1    1    2    0    0 -0.19959272623E+02 -0.14892224635E+02  0.32140547486E+02  0.40659140558E+02  0.00000000000E+00 0. -1.
         11    1    3    3    0    0  0.80500539644E+00 -0.24944047007E+01 -0.16550803157E+02  0.16757063403E+02  0.51100000000E-03 0. -1.
        -11    1    3    3    0    0  0.61394027901E+01 -0.90145925821E-01 -0.92055183402E+01  0.11065349569E+02  0.51100000000E-03 0.  1.
        -12    1    3    3    0    0  0.13014864436E+02  0.17476775261E+02 -0.63842259887E+01  0.22706446470E+02  0.00000000000E+00 0.  1.
</event>
<event>
 7    1  0.4520156E-012  0.5052887E+02  0.7816164E-02  0.1300439E+00
        -11   -1    0    0    0    0  0.00000000000E+00  0.00000000000E+00  0.45593999997E+02  0.45594000000E+02  0.51100000000E-03 0.  1.
         11   -1    0    0    0    0 -0.00000000000E+00 -0.00000000000E+00 -0.45593999997E+02  0.45594000000E+02  0.51100000000E-03 0. -1.
    9900012    2    1    2    0    0 -0.10605245856E-01 -0.40176249375E+02  0.62477032598E+01  0.50528869140E+02  0.30000028238E+02 0.  0.
        -12    1    1    2    0    0  0.10605245856E-01  0.40176249375E+02 -0.62477032598E+01  0.40659130860E+02  0.00000000000E+00 0.  1.
         11    1    3    3    0    0 -0.46976929779E+01 -0.22542661206E+02  0.19159094479E+01  0.23106505638E+02  0.51100000000E-03 0. -1.
        -11    1    3    3    0    0  0.28246005465E+01 -0.21118162428E+02 -0.33341276067E+00  0.21308831899E+02  0.51100000000E-03 0.  1.
        -12    1    3    3    0    0  0.18624871855E+01  0.34845742592E+01  0.46652065725E+01  0.61135316020E+01  0.00000000000E+00 0.  1.
</event>
<event>
 7    1  0.4520156E-012  0.5052886E+02  0.7816164E-02  0.1300439E+00
        -11   -1    0    0    0    0  0.00000000000E+00  0.00000000000E+00  0.45593999997E+02  0.45594000000E+02  0.51100000000E-03 0. -1.
         11   -1    0    0    0    0 -0.00000000000E+00 -0.00000000000E+00 -0.45593999997E+02  0.45594000000E+02  0.51100000000E-03 0.  1.
    9900012    2    1    2    0    0  0.36683608377E+02 -0.86527594509E+01  0.15251508902E+02  0.50528857197E+02  0.29999991936E+02 0.  0.
        -12    1    1    2    0    0 -0.36683608377E+02  0.86527594509E+01 -0.15251508902E+02  0.40659142803E+02  0.00000000000E+00 0.  1.
         11    1    3    3    0    0  0.35242424997E+02 -0.47700595767E+01  0.11303389172E+02  0.37316867434E+02  0.51100000000E-03 0. -1.
        -11    1    3    3    0    0  0.33791027071E+01 -0.73478932282E+01  0.76592974014E+00  0.81238241380E+01  0.51100000000E-03 0.  1.
        -12    1    3    3    0    0 -0.19379193271E+01  0.34651933540E+01  0.31821899899E+01  0.50881656253E+01  0.00000000000E+00 0.  1.
</event>
<event>
 7    1  0.4520156E-012  0.5052886E+02  0.7816164E-02  0.1300439E+00
        -11   -1    0    0    0    0  0.00000000000E+00  0.00000000000E+00  0.45593999997E+02  0.45594000000E+02  0.51100000000E-03 0. -1.
         11   -1    0    0    0    0 -0.00000000000E+00 -0.00000000000E+00 -0.45593999997E+02  0.45594000000E+02  0.51100000000E-03 0.  1.
    9900012    2    1    2    0    0  0.17041769789E+02 -0.20709723487E+02  0.30558976539E+02  0.50528860664E+02  0.30000002476E+02 0.  0.
        -12    1    1    2    0    0 -0.17041769789E+02  0.20709723487E+02 -0.30558976539E+02  0.40659139336E+02  0.00000000000E+00 0.  1.
         11    1    3    3    0    0  0.28756109194E+01 -0.18756970204E+01  0.62672053385E+01  0.71459947165E+01  0.51100000000E-03 0. -1.
        -11    1    3    3    0    0  0.74116080097E+01  0.64144735588E+01  0.69763600896E+01  0.12031084934E+02  0.51100000000E-03 0.  1.
         12    1    3    3    0    0  0.67545508597E+01 -0.25248500025E+02  0.17315411110E+02  0.31351781014E+02  0.00000000000E+00 0. -1.
</event>
<event>
 7    1  0.4520156E-012  0.5052886E+02  0.7816164E-02  0.1300439E+00
        -11   -1    0    0    0    0  0.00000000000E+00  0.00000000000E+00  0.45593999997E+02  0.45594000000E+02  0.51100000000E-03 0.  1.
         11   -1    0    0    0    0 -0.00000000000E+00 -0.00000000000E+00 -0.45593999997E+02  0.45594000000E+02  0.51100000000E-03 0. -1.
    9900012    2    1    2    0    0  0.17784999459E+02 -0.32518548279E+02 -0.16715360009E+02  0.50528862673E+02  0.30000008580E+02 0.  0.
         12    1    1    2    0    0 -0.17784999459E+02  0.32518548279E+02  0.16715360009E+02  0.40659137327E+02  0.00000000000E+00 0. -1.
         11    1    3    3    0    0  0.37217101577E+01 -0.10319334851E+00 -0.14279698470E+01  0.39875899376E+01  0.51100000000E-03 0. -1.
        -11    1    3    3    0    0  0.71500311184E+01 -0.35540235931E+02 -0.13916600022E+02  0.38831727640E+02  0.51100000000E-03 0.  1.
         12    1    3    3    0    0  0.69132581831E+01  0.31248810005E+01 -0.13707901404E+01  0.77095450957E+01  0.00000000000E+00 0. -1.
</event>
<event>
 7    1  0.4520156E-012  0.5052886E+02  0.7816164E-02  0.1300439E+00
        -11   -1    0    0    0    0  0.00000000000E+00  0.00000000000E+00  0.45593999997E+02  0.45594000000E+02  0.51100000000E-03 0. -1.
         11   -1    0    0    0    0 -0.00000000000E+00 -0.00000000000E+00 -0.45593999997E+02  0.45594000000E+02  0.51100000000E-03 0.  1.
    9900012    2    1    2    0    0 -0.19244622552E+02  0.19132514982E+02  0.30277996894E+02  0.50528859298E+02  0.29999998321E+02 0.  0.
        -12    1    1    2    0    0  0.19244622552E+02 -0.19132514982E+02 -0.30277996894E+02  0.40659140702E+02  0.00000000000E+00 0.  1.
         11    1    3    3    0    0  0.33370804052E+00 -0.26159988513E+01  0.90011206669E+00  0.27865772984E+01  0.51100000000E-03 0.  1.
        -11    1    3    3    0    0 -0.16399666177E+02  0.13792213787E+02  0.51421568123E+01  0.22036696413E+02  0.51100000000E-03 0. -1.
         12    1    3    3    0    0 -0.31786644154E+01  0.79563000469E+01  0.24235728016E+02  0.25705585586E+02  0.00000000000E+00 0. -1.
</event>
<event>
 7    1  0.5906054E-012  0.5052887E+02  0.7816164E-02  0.1300439E+00
        -11   -1    0    0    0    0  0.00000000000E+00  0.00000000000E+00  0.45593999997E+02  0.45594000000E+02  0.51100000000E-03 0. -1.
         11   -1    0    0    0    0 -0.00000000000E+00 -0.00000000000E+00 -0.45593999997E+02  0.45594000000E+02  0.51100000000E-03 0.  1.
    9900012    2    1    2    0    0  0.26374325185E+01 -0.10095037615E+02  0.39297572699E+02  0.50528867511E+02  0.30000023286E+02 0.  0.
        -12    1    1    2    0    0 -0.26374325185E+01  0.10095037615E+02 -0.39297572699E+02  0.40659132489E+02  0.00000000000E+00 0.  1.
         11    1    3    3    0    0 -0.59024748102E+01 -0.51571351263E+01  0.34849014156E+01  0.85778662693E+01  0.51100000000E-03 0. -1.
        -11    1    3    3    0    0  0.47276509164E+01  0.53313148138E+01  0.37153926071E+01  0.80360278320E+01  0.51100000000E-03 0.  1.
         12    1    3    3    0    0  0.38122564123E+01 -0.10269217302E+02  0.32097278676E+02  0.33914973410E+02  0.00000000000E+00 0. -1.
</event>
<event>
 7    1  0.9883715E-012  0.5052885E+02  0.7816164E-02  0.1300439E+00
        -11   -1    0    0    0    0  0.00000000000E+00  0.00000000000E+00  0.45593999997E+02  0.45594000000E+02  0.51100000000E-03 0. -1.
         11   -1    0    0    0    0 -0.00000000000E+00 -0.00000000000E+00 -0.45593999997E+02  0.45594000000E+02  0.51100000000E-03 0.  1.
    9900012    2    1    2    0    0 -0.35049531070E+00 -0.28279471564E+02  0.29211553700E+02  0.50528853078E+02  0.29999979415E+02 0.  0.
        -12    1    1    2    0    0  0.35049531070E+00  0.28279471564E+02 -0.29211553700E+02  0.40659146922E+02  0.00000000000E+00 0.  1.
         11    1    3    3    0    0 -0.35454480093E+01 -0.10253685489E+02 -0.42483619312E+00  0.10857658760E+02  0.51100000000E-03 0. -1.
        -11    1    3    3    0    0  0.96891571241E+01 -0.64788145328E+01  0.74585306723E+01  0.13837791861E+02  0.51100000000E-03 0.  1.
         12    1    3    3    0    0 -0.64942044255E+01 -0.11546971543E+02  0.22177859220E+02  0.25833402457E+02  0.00000000000E+00 0. -1.
</event>
<event>
 7    1  0.4520156E-012  0.5052886E+02  0.7816164E-02  0.1300439E+00
        -11   -1    0    0    0    0  0.00000000000E+00  0.00000000000E+00  0.45593999997E+02  0.45594000000E+02  0.51100000000E-03 0. -1.
         11   -1    0    0    0    0 -0.00000000000E+00 -0.00000000000E+00 -0.45593999997E+02  0.45594000000E+02  0.51100000000E-03 0.  1.
    9900012    2    1    2    0    0  0.27178064499E+02 -0.20476247329E+01  0.30171603653E+02  0.50528860512E+02  0.30000002011E+02 0.  0.
        -12    1    1    2    0    0 -0.27178064499E+02  0.20476247329E+01 -0.30171603653E+02  0.40659139488E+02  0.00000000000E+00 0.  1.
         11    1    3    3    0    0 -0.25486529926E+01 -0.56706267180E+01  0.24804564003E+01  0.66936016962E+01  0.51100000000E-03 0. -1.
        -11    1    3    3    0    0  0.88880025976E-01  0.16010026916E+01 -0.14934002435E+01  0.21911991754E+01  0.51100000000E-03 0.  1.
        -12    1    3    3    0    0  0.29637837466E+02  0.20219992935E+01  0.29184547496E+02  0.41644059640E+02  0.00000000000E+00 0.  1.
</event>
<event>
 7    1  0.4520156E-012  0.5052887E+02  0.7816164E-02  0.1300439E+00
        -11   -1    0    0    0    0  0.00000000000E+00  0.00000000000E+00  0.45593999997E+02  0.45594000000E+02  0.51100000000E-03 0. -1.
         11   -1    0    0    0    0 -0.00000000000E+00 -0.00000000000E+00 -0.45593999997E+02  0.45594000000E+02  0.51100000000E-03 0.  1.
    9900012    2    1    2    0    0  0.28724914160E+02  0.98035140835E+01 -0.27054295856E+02  0.50528874258E+02  0.30000043793E+02 0.  0.
         12    1    1    2    0    0 -0.28724914160E+02 -0.98035140835E+01  0.27054295856E+02  0.40659125742E+02  0.00000000000E+00 0. -1.
         11    1    3    3    0    0  0.24215728163E+02  0.14907280372E+02 -0.20047895209E+02  0.34792910214E+02  0.51100000000E-03 0. -1.
        -11    1    3    3    0    0  0.67763766397E+01  0.12834180064E+01 -0.16351252766E+01  0.70880234956E+01  0.51100000000E-03 0.  1.
         12    1    3    3    0    0 -0.22671906425E+01 -0.63871842950E+01 -0.53712753698E+01  0.86479405482E+01  0.00000000000E+00 0. -1.
</event>
<event>
 7    1  0.4520156E-012  0.5052886E+02  0.7816164E-02  0.1300439E+00
        -11   -1    0    0    0    0  0.00000000000E+00  0.00000000000E+00  0.45593999997E+02  0.45594000000E+02  0.51100000000E-03 0. -1.
         11   -1    0    0    0    0 -0.00000000000E+00 -0.00000000000E+00 -0.45593999997E+02  0.45594000000E+02  0.51100000000E-03 0.  1.
    9900012    2    1    2    0    0 -0.22988932564E+02  0.21680828162E+02 -0.25585470506E+02  0.50528860422E+02  0.30000001738E+02 0.  0.
         12    1    1    2    0    0  0.22988932564E+02 -0.21680828162E+02  0.25585470506E+02  0.40659139578E+02  0.00000000000E+00 0. -1.
         11    1    3    3    0    0 -0.12768619574E+02 -0.49400206672E+01 -0.50215017475E+01  0.14582761401E+02  0.51100000000E-03 0. -1.
        -11    1    3    3    0    0 -0.15047602209E+01  0.10198953269E+02 -0.10861796519E+02  0.14975365604E+02  0.51100000000E-03 0.  1.
        -12    1    3    3    0    0 -0.87155527694E+01  0.16421895560E+02 -0.97021722396E+01  0.20970733417E+02  0.00000000000E+00 0.  1.
</event>
<event>
 7    1  0.6697102E-012  0.5052885E+02  0.7816164E-02  0.1300439E+00
        -11   -1    0    0    0    0  0.00000000000E+00  0.00000000000E+00  0.45593999997E+02  0.45594000000E+02  0.51100000000E-03 0. -1.
         11   -1    0    0    0    0 -0.00000000000E+00 -0.00000000000E+00 -0.45593999997E+02  0.45594000000E+02  0.51100000000E-03 0.  1.
    9900012    2    1    2    0    0 -0.40698773944E+01  0.29674365179E+02  0.27496079235E+02  0.50528853131E+02  0.29999979578E+02 0.  0.
        -12    1    1    2    0    0  0.40698773944E+01 -0.29674365179E+02 -0.27496079235E+02  0.40659146869E+02  0.00000000000E+00 0.  1.
         11    1    3    3    0    0 -0.49207966561E+01 -0.14592365503E+01 -0.13122394521E+01  0.52976960730E+01  0.51100000000E-03 0. -1.
        -11    1    3    3    0    0  0.75052193943E+01  0.10182419595E+02  0.80322425088E+01  0.14984221933E+02  0.51100000000E-03 0.  1.
         12    1    3    3    0    0 -0.66543001326E+01  0.20951182134E+02  0.20776076179E+02  0.30246935125E+02  0.00000000000E+00 0. -1.
</event>
<event>
 7    1  0.4520156E-012  0.5052885E+02  0.7816164E-02  0.1300439E+00
        -11   -1    0    0    0    0  0.00000000000E+00  0.00000000000E+00  0.45593999997E+02  0.45594000000E+02  0.51100000000E-03 0. -1.
         11   -1    0    0    0    0 -0.00000000000E+00 -0.00000000000E+00 -0.45593999997E+02  0.45594000000E+02  0.51100000000E-03 0.  1.
    9900012    2    1    2    0    0  0.23199330681E+02 -0.39980205153E+01 -0.33150765273E+02  0.50528851579E+02  0.29999974861E+02 0.  0.
         12    1    1    2    0    0 -0.23199330681E+02  0.39980205153E+01  0.33150765273E+02  0.40659148421E+02  0.00000000000E+00 0. -1.
         11    1    3    3    0    0  0.26234101935E+01 -0.43425357652E+01 -0.52610460065E+01  0.73087962935E+01  0.51100000000E-03 0. -1.
        -11    1    3    3    0    0 -0.36699228798E+01 -0.48100846621E+01 -0.12910569385E+02  0.14257911856E+02  0.51100000000E-03 0.  1.
        -12    1    3    3    0    0  0.24245843368E+02  0.51545999121E+01 -0.14979149881E+02  0.28962143430E+02  0.00000000000E+00 0.  1.
</event>
<event>
 7    1  0.4520156E-012  0.5052889E+02  0.7816164E-02  0.1300439E+00
        -11   -1    0    0    0    0  0.00000000000E+00  0.00000000000E+00  0.45593999997E+02  0.45594000000E+02  0.51100000000E-03 0. -1.
         11   -1    0    0    0    0 -0.00000000000E+00 -0.00000000000E+00 -0.45593999997E+02  0.45594000000E+02  0.51100000000E-03 0.  1.
    9900012    2    1    2    0    0 -0.82584420603E+01  0.72008126321E+01  0.39154946136E+02  0.50528888171E+02  0.30000086083E+02 0.  0.
        -12    1    1    2    0    0  0.82584420603E+01 -0.72008126321E+01 -0.39154946136E+02  0.40659111829E+02  0.00000000000E+00 0.  1.
         11    1    3    3    0    0 -0.67127296154E+01  0.11643920146E+02  0.27264019206E+02  0.30396847843E+02  0.51100000000E-03 0. -1.
        -11    1    3    3    0    0 -0.10519865883E+01  0.37488675132E+01 -0.17054580775E+01  0.42507965052E+01  0.51100000000E-03 0.  1.
        -12    1    3    3    0    0 -0.49372585663E+00 -0.81919750273E+01  0.13596385007E+02  0.15881243822E+02  0.00000000000E+00 0.  1.
</event>
<event>
 7    1  0.4520156E-012  0.5052886E+02  0.7816164E-02  0.1300439E+00
        -11   -1    0    0    0    0  0.00000000000E+00  0.00000000000E+00  0.45593999997E+02  0.45594000000E+02  0.51100000000E-03 0.  1.
         11   -1    0    0    0    0 -0.00000000000E+00 -0.00000000000E+00 -0.45593999997E+02  0.45594000000E+02  0.51100000000E-03 0. -1.
    9900012    2    1    2    0    0  0.40070098534E+02 -0.17649373902E+01  0.66661880865E+01  0.50528857558E+02  0.29999993032E+02 0.  0.
         12    1    1    2    0    0 -0.40070098534E+02  0.17649373902E+01 -0.66661880865E+01  0.40659142442E+02  0.00000000000E+00 0. -1.
         11    1    3    3    0    0  0.38828805036E+01 -0.26198283637E+01  0.65204852097E+00  0.47292102084E+01  0.51100000000E-03 0. -1.
        -11    1    3    3    0    0  0.37434767111E+02  0.43687471487E+01 -0.11683707346E+01  0.37706933457E+02  0.51100000000E-03 0.  1.
        -12    1    3    3    0    0 -0.12475490800E+01 -0.35138561753E+01  0.71825103001E+01  0.80927138921E+01  0.00000000000E+00 0.  1.
</event>
<event>
 7    1  0.4520156E-012  0.5052885E+02  0.7816164E-02  0.1300439E+00
        -11   -1    0    0    0    0  0.00000000000E+00  0.00000000000E+00  0.45593999997E+02  0.45594000000E+02  0.51100000000E-03 0. -1.
         11   -1    0    0    0    0 -0.00000000000E+00 -0.00000000000E+00 -0.45593999997E+02  0.45594000000E+02  0.51100000000E-03 0.  1.
    9900012    2    1    2    0    0 -0.26821928850E+02  0.17994505474E+02  0.24697126649E+02  0.50528853929E+02  0.29999982002E+02 0.  0.
        -12    1    1    2    0    0  0.26821928850E+02 -0.17994505474E+02 -0.24697126649E+02  0.40659146071E+02  0.00000000000E+00 0.  1.
         11    1    3    3    0    0  0.29916646085E+01 -0.14717081664E+01  0.37426582695E+01  0.50123321160E+01  0.51100000000E-03 0. -1.
        -11    1    3    3    0    0 -0.20647854166E+02  0.59938877531E+01  0.19721549689E+02  0.29175333665E+02  0.51100000000E-03 0.  1.
        -12    1    3    3    0    0 -0.91657392930E+01  0.13472325887E+02  0.12329186909E+01  0.16341188148E+02  0.00000000000E+00 0.  1.
</event>
<event>
 7    1  0.4520156E-012  0.5052886E+02  0.7816164E-02  0.1300439E+00
        -11   -1    0    0    0    0  0.00000000000E+00  0.00000000000E+00  0.45593999997E+02  0.45594000000E+02  0.51100000000E-03 0. -1.
         11   -1    0    0    0    0 -0.00000000000E+00 -0.00000000000E+00 -0.45593999997E+02  0.45594000000E+02  0.51100000000E-03 0.  1.
    9900012    2    1    2    0    0  0.13372160940E+02 -0.32913755453E+02  0.19774622073E+02  0.50528860015E+02  0.30000000500E+02 0.  0.
        -12    1    1    2    0    0 -0.13372160940E+02  0.32913755453E+02 -0.19774622073E+02  0.40659139985E+02  0.00000000000E+00 0.  1.
         11    1    3    3    0    0  0.71146292849E+01 -0.59239565602E+01  0.89924717461E+00  0.93016050729E+01  0.51100000000E-03 0. -1.
        -11    1    3    3    0    0  0.57970394641E+01 -0.10162534880E+02 -0.44023931656E+01  0.12500553891E+02  0.51100000000E-03 0.  1.
         12    1    3    3    0    0  0.46049219122E+00 -0.16827264013E+02  0.23277768064E+02  0.28726701051E+02  0.00000000000E+00 0. -1.
</event>
<event>
 7    1  0.7499603E-012  0.5052885E+02  0.7816164E-02  0.1300439E+00
        -11   -1    0    0    0    0  0.00000000000E+00  0.00000000000E+00  0.45593999997E+02  0.45594000000E+02  0.51100000000E-03 0. -1.
         11   -1    0    0    0    0 -0.00000000000E+00 -0.00000000000E+00 -0.45593999997E+02  0.45594000000E+02  0.51100000000E-03 0.  1.
    9900012    2    1    2    0    0  0.12525804760E+02  0.12403491720E+02  0.36639103445E+02  0.50528852284E+02  0.29999977003E+02 0.  0.
        -12    1    1    2    0    0 -0.12525804760E+02 -0.12403491720E+02 -0.36639103445E+02  0.40659147716E+02  0.00000000000E+00 0.  1.
         11    1    3    3    0    0 -0.10978627680E+01  0.12124829937E+02  0.11355563214E+02  0.16648291799E+02  0.51100000000E-03 0. -1.
        -11    1    3    3    0    0  0.23465820885E+00  0.33898529990E+01 -0.15472469332E+01  0.37336498447E+01  0.51100000000E-03 0.  1.
         12    1    3    3    0    0  0.13389009319E+02 -0.31111912162E+01  0.26830787164E+02  0.30146910641E+02  0.00000000000E+00 0. -1.
</event>
<event>
 7    1  0.4520156E-012  0.5052886E+02  0.7816164E-02  0.1300439E+00
        -11   -1    0    0    0    0  0.00000000000E+00  0.00000000000E+00  0.45593999997E+02  0.45594000000E+02  0.51100000000E-03 0.  1.
         11   -1    0    0    0    0 -0.00000000000E+00 -0.00000000000E+00 -0.45593999997E+02  0.45594000000E+02  0.51100000000E-03 0. -1.
    9900012    2    1    2    0    0  0.31199399449E+02 -0.11703546798E+02  0.23297857195E+02  0.50528859779E+02  0.29999999783E+02 0.  0.
         12    1    1    2    0    0 -0.31199399449E+02  0.11703546798E+02 -0.23297857195E+02  0.40659140221E+02  0.00000000000E+00 0. -1.
         11    1    3    3    0    0  0.10391631589E+02  0.67220372563E+01  0.17930005538E+01  0.12505464534E+02  0.51100000000E-03 0. -1.
        -11    1    3    3    0    0  0.90926501835E+01 -0.58968556055E-01  0.94982323091E+01  0.13148999274E+02  0.51100000000E-03 0.  1.
         12    1    3    3    0    0  0.11715117676E+02 -0.18366615498E+02  0.12006624332E+02  0.24874395970E+02  0.00000000000E+00 0. -1.
</event>
<event>
 7    1  0.4520156E-012  0.5052883E+02  0.7816164E-02  0.1300439E+00
        -11   -1    0    0    0    0  0.00000000000E+00  0.00000000000E+00  0.45593999997E+02  0.45594000000E+02  0.51100000000E-03 0. -1.
         11   -1    0    0    0    0 -0.00000000000E+00 -0.00000000000E+00 -0.45593999997E+02  0.45594000000E+02  0.51100000000E-03 0.  1.
    9900012    2    1    2    0    0 -0.17789854874E+02 -0.27466040322E+02 -0.24131009331E+02  0.50528832292E+02  0.29999916233E+02 0.  0.
         12    1    1    2    0    0  0.17789854874E+02  0.27466040322E+02  0.24131009331E+02  0.40659167708E+02  0.00000000000E+00 0. -1.
         11    1    3    3    0    0  0.21370597954E+01  0.29995714460E+00  0.28117704996E+01  0.35444396540E+01  0.51100000000E-03 0. -1.
        -11    1    3    3    0    0 -0.27951989868E+01  0.91901603391E+00  0.13176254246E+01  0.32239517470E+01  0.51100000000E-03 0.  1.
        -12    1    3    3    0    0 -0.17131715683E+02 -0.28685013500E+02 -0.28260405255E+02  0.43760440891E+02  0.00000000000E+00 0.  1.
</event>
<event>
 7    1  0.4520156E-012  0.5052885E+02  0.7816164E-02  0.1300439E+00
        -11   -1    0    0    0    0  0.00000000000E+00  0.00000000000E+00  0.45593999997E+02  0.45594000000E+02  0.51100000000E-03 0. -1.
         11   -1    0    0    0    0 -0.00000000000E+00 -0.00000000000E+00 -0.45593999997E+02  0.45594000000E+02  0.51100000000E-03 0.  1.
    9900012    2    1    2    0    0  0.12565866324E+02  0.12055106486E+02  0.36741529843E+02  0.50528848459E+02  0.29999965375E+02 0.  0.
        -12    1    1    2    0    0 -0.12565866324E+02 -0.12055106486E+02 -0.36741529843E+02  0.40659151541E+02  0.00000000000E+00 0.  1.
         11    1    3    3    0    0 -0.29443474118E+01  0.17070488778E+01  0.92215730303E+01  0.98295781683E+01  0.51100000000E-03 0. -1.
        -11    1    3    3    0    0  0.58026235774E+01 -0.19562034165E+01  0.23821752707E+02  0.24596200408E+02  0.51100000000E-03 0.  1.
        -12    1    3    3    0    0  0.97075901587E+01  0.12304261024E+02  0.36982041055E+01  0.16103069883E+02  0.00000000000E+00 0.  1.
</event>
<event>
 7    1  0.4520156E-012  0.5052892E+02  0.7816164E-02  0.1300439E+00
        -11   -1    0    0    0    0  0.00000000000E+00  0.00000000000E+00  0.45593999997E+02  0.45594000000E+02  0.51100000000E-03 0. -1.
         11   -1    0    0    0    0 -0.00000000000E+00 -0.00000000000E+00 -0.45593999997E+02  0.45594000000E+02  0.51100000000E-03 0.  1.
    9900012    2    1    2    0    0 -0.34460916708E+02  0.56059660057E+00 -0.21570622783E+02  0.50528919635E+02  0.30000181722E+02 0.  0.
         12    1    1    2    0    0  0.34460916708E+02 -0.56059660057E+00  0.21570622783E+02  0.40659080365E+02  0.00000000000E+00 0. -1.
         11    1    3    3    0    0  0.22288271571E+01  0.17954815464E+01 -0.29126973402E+01  0.40835316255E+01  0.51100000000E-03 0. -1.
        -11    1    3    3    0    0 -0.32985378907E+02  0.15243939563E+01 -0.22891769147E+02  0.40179498423E+02  0.51100000000E-03 0.  1.
         12    1    3    3    0    0 -0.37043649582E+01 -0.27592789021E+01  0.42338437045E+01  0.62658895871E+01  0.00000000000E+00 0. -1.
</event>
<event>
 7    1  0.4520156E-012  0.5052877E+02  0.7816164E-02  0.1300439E+00
        -11   -1    0    0    0    0  0.00000000000E+00  0.00000000000E+00  0.45593999997E+02  0.45594000000E+02  0.51100000000E-03 0. -1.
         11   -1    0    0    0    0 -0.00000000000E+00 -0.00000000000E+00 -0.45593999997E+02  0.45594000000E+02  0.51100000000E-03 0.  1.
    9900012    2    1    2    0    0 -0.60298386555E+01 -0.98153681944E+01 -0.38993239269E+02  0.50528768383E+02  0.29999721977E+02 0.  0.
         12    1    1    2    0    0  0.60298386555E+01  0.98153681944E+01  0.38993239269E+02  0.40659231617E+02  0.00000000000E+00 0. -1.
         11    1    3    3    0    0  0.28941340102E+01 -0.42020840887E+01 -0.49088705441E+01  0.70802918469E+01  0.51100000000E-03 0. -1.
        -11    1    3    3    0    0  0.42031805828E+01 -0.49047424098E+01 -0.28401031914E+02  0.29126308368E+02  0.51100000000E-03 0.  1.
         12    1    3    3    0    0 -0.13127153249E+02 -0.70854169591E+00 -0.56833368109E+01  0.14322168169E+02  0.00000000000E+00 0. -1.
</event>
<event>
 7    1  0.4520156E-012  0.5052887E+02  0.7816164E-02  0.1300439E+00
        -11   -1    0    0    0    0  0.00000000000E+00  0.00000000000E+00  0.45593999997E+02  0.45594000000E+02  0.51100000000E-03 0. -1.
         11   -1    0    0    0    0 -0.00000000000E+00 -0.00000000000E+00 -0.45593999997E+02  0.45594000000E+02  0.51100000000E-03 0.  1.
    9900012    2    1    2    0    0  0.25336751492E+02  0.12712215457E+02  0.29148135941E+02  0.50528865394E+02  0.30000016853E+02 0.  0.
        -12    1    1    2    0    0 -0.25336751492E+02 -0.12712215457E+02 -0.29148135941E+02  0.40659134606E+02  0.00000000000E+00 0.  1.
         11    1    3    3    0    0  0.30912395071E+02  0.84465777068E+01  0.25768654571E+02  0.41121094376E+02  0.51100000000E-03 0. -1.
        -11    1    3    3    0    0 -0.14102038799E+01  0.28851966054E+01  0.38280286268E+01  0.49966826859E+01  0.51100000000E-03 0.  1.
        -12    1    3    3    0    0 -0.41654396989E+01  0.13804411445E+01 -0.44854725625E+00  0.44110883328E+01  0.00000000000E+00 0.  1.
</event>
<event>
 7    1  0.4520156E-012  0.5052886E+02  0.7816164E-02  0.1300439E+00
        -11   -1    0    0    0    0  0.00000000000E+00  0.00000000000E+00  0.45593999997E+02  0.45594000000E+02  0.51100000000E-03 0. -1.
         11   -1    0    0    0    0 -0.00000000000E+00 -0.00000000000E+00 -0.45593999997E+02  0.45594000000E+02  0.51100000000E-03 0.  1.
    9900012    2    1    2    0    0 -0.40100067595E+01  0.94855188877E+01 -0.39333323729E+02  0.50528861072E+02  0.30000003715E+02 0.  0.
         12    1    1    2    0    0  0.40100067595E+01 -0.94855188877E+01  0.39333323729E+02  0.40659138928E+02  0.00000000000E+00 0. -1.
         11    1    3    3    0    0 -0.92379111371E+01 -0.19103141813E+01 -0.49726664121E+01  0.10663757028E+02  0.51100000000E-03 0. -1.
        -11    1    3    3    0    0  0.19281775721E+01 -0.19690653581E+01  0.98762876765E-01  0.27576877091E+01  0.51100000000E-03 0.  1.
        -12    1    3    3    0    0  0.32997268055E+01  0.13364898427E+02 -0.34459420194E+02  0.37107416335E+02  0.00000000000E+00 0.  1.
</event>
<event>
 7    1  0.4520156E-012  0.5052887E+02  0.7816164E-02  0.1300439E+00
        -11   -1    0    0    0    0  0.00000000000E+00  0.00000000000E+00  0.45593999997E+02  0.45594000000E+02  0.51100000000E-03 0. -1.
         11   -1    0    0    0    0 -0.00000000000E+00 -0.00000000000E+00 -0.45593999997E+02  0.45594000000E+02  0.51100000000E-03 0.  1.
    9900012    2    1    2    0    0 -0.17829347856E+01  0.34066026709E+01 -0.40476921673E+02  0.50528868353E+02  0.30000025845E+02 0.  0.
         12    1    1    2    0    0  0.17829347856E+01 -0.34066026709E+01  0.40476921673E+02  0.40659131647E+02  0.00000000000E+00 0. -1.
         11    1    3    3    0    0  0.44091368293E+01  0.56434806221E+01 -0.18133074330E+00  0.71639543697E+01  0.51100000000E-03 0. -1.
        -11    1    3    3    0    0 -0.57873486874E+01  0.42484761459E+01 -0.95917585047E+01  0.11981017731E+02  0.51100000000E-03 0.  1.
         12    1    3    3    0    0 -0.40472292742E+00 -0.64853540971E+01 -0.30703832425E+02  0.31383896252E+02  0.00000000000E+00 0. -1.
</event>
<event>
 7    1  0.4520156E-012  0.5052887E+02  0.7816164E-02  0.1300439E+00
        -11   -1    0    0    0    0  0.00000000000E+00  0.00000000000E+00  0.45593999997E+02  0.45594000000E+02  0.51100000000E-03 0. -1.
         11   -1    0    0    0    0 -0.00000000000E+00 -0.00000000000E+00 -0.45593999997E+02  0.45594000000E+02  0.51100000000E-03 0.  1.
    9900012    2    1    2    0    0  0.16132093995E+02 -0.11087512463E+02  0.35636888790E+02  0.50528865332E+02  0.30000016663E+02 0.  0.
        -12    1    1    2    0    0 -0.16132093995E+02  0.11087512463E+02 -0.35636888790E+02  0.40659134668E+02  0.00000000000E+00 0.  1.
         11    1    3    3    0    0 -0.12055782807E+01  0.13891499620E+01 -0.10891536904E+01  0.21376184482E+01  0.51100000000E-03 0.  1.
        -11    1    3    3    0    0  0.14219493781E+02  0.27022392683E+01  0.25265759229E+02  0.29117944470E+02  0.51100000000E-03 0. -1.
        -12    1    3    3    0    0  0.31181784945E+01 -0.15178901693E+02  0.11460283252E+02  0.19273302414E+02  0.00000000000E+00 0.  1.
</event>
<event>
 7    1  0.4520156E-012  0.5052884E+02  0.7816164E-02  0.1300439E+00
        -11   -1    0    0    0    0  0.00000000000E+00  0.00000000000E+00  0.45593999997E+02  0.45594000000E+02  0.51100000000E-03 0.  1.
         11   -1    0    0    0    0 -0.00000000000E+00 -0.00000000000E+00 -0.45593999997E+02  0.45594000000E+02  0.51100000000E-03 0. -1.
    9900012    2    1    2    0    0 -0.30945403803E+02 -0.13274059956E+02 -0.22789213066E+02  0.50528844617E+02  0.29999953699E+02 0.  0.
         12    1    1    2    0    0  0.30945403803E+02  0.13274059956E+02  0.22789213066E+02  0.40659155383E+02  0.00000000000E+00 0. -1.
         11    1    3    3    0    0  0.31693576537E+01 -0.57731971159E+01 -0.91747209576E+01  0.11293809711E+02  0.51100000000E-03 0. -1.
        -11    1    3    3    0    0 -0.19051285056E+02  0.10441989524E+01 -0.10007127112E+02  0.21544939244E+02  0.51100000000E-03 0.  1.
        -12    1    3    3    0    0 -0.15063476401E+02 -0.85450617921E+01 -0.36073649967E+01  0.17690095662E+02  0.00000000000E+00 0.  1.
</event>
<event>
 7    1  0.4520156E-012  0.5052886E+02  0.7816164E-02  0.1300439E+00
        -11   -1    0    0    0    0  0.00000000000E+00  0.00000000000E+00  0.45593999997E+02  0.45594000000E+02  0.51100000000E-03 0. -1.
         11   -1    0    0    0    0 -0.00000000000E+00 -0.00000000000E+00 -0.45593999997E+02  0.45594000000E+02  0.51100000000E-03 0.  1.
    9900012    2    1    2    0    0 -0.16618124309E+02  0.40587355322E+01 -0.36885371115E+02  0.50528855986E+02  0.29999988254E+02 0.  0.
         12    1    1    2    0    0  0.16618124309E+02 -0.40587355322E+01  0.36885371115E+02  0.40659144014E+02  0.00000000000E+00 0. -1.
         11    1    3    3    0    0 -0.44347010710E+01 -0.11911109449E+01 -0.14346858964E+01  0.48107840062E+01  0.51100000000E-03 0. -1.
        -11    1    3    3    0    0  0.38640113915E+01 -0.60906891829E+01 -0.30649464995E+01  0.78371535689E+01  0.51100000000E-03 0.  1.
        -12    1    3    3    0    0 -0.16047434629E+02  0.11340535660E+02 -0.32385738719E+02  0.37880918411E+02  0.00000000000E+00 0.  1.
</event>
<event>
 7    1  0.4520156E-012  0.5052885E+02  0.7816164E-02  0.1300439E+00
        -11   -1    0    0    0    0  0.00000000000E+00  0.00000000000E+00  0.45593999997E+02  0.45594000000E+02  0.51100000000E-03 0.  1.
         11   -1    0    0    0    0 -0.00000000000E+00 -0.00000000000E+00 -0.45593999997E+02  0.45594000000E+02  0.51100000000E-03 0. -1.
    9900012    2    1    2    0    0  0.19394356284E+02 -0.20548643559E+02 -0.29236600305E+02  0.50528848444E+02  0.29999965331E+02 0.  0.
         12    1    1    2    0    0 -0.19394356284E+02  0.20548643559E+02  0.29236600305E+02  0.40659151556E+02  0.00000000000E+00 0. -1.
         11    1    3    3    0    0  0.16905340634E+02 -0.90115345555E+01 -0.13077658510E+02  0.23195332491E+02  0.51100000000E-03 0. -1.
        -11    1    3    3    0    0  0.86699790392E+01  0.21291295284E+00 -0.76484934247E+01  0.11563447600E+02  0.51100000000E-03 0.  1.
         12    1    3    3    0    0 -0.61809633893E+01 -0.11750021956E+02 -0.85104483708E+01  0.15770068353E+02  0.00000000000E+00 0. -1.
</event>
<event>
 7    1  0.4520156E-012  0.5052886E+02  0.7816164E-02  0.1300439E+00
        -11   -1    0    0    0    0  0.00000000000E+00  0.00000000000E+00  0.45593999997E+02  0.45594000000E+02  0.51100000000E-03 0. -1.
         11   -1    0    0    0    0 -0.00000000000E+00 -0.00000000000E+00 -0.45593999997E+02  0.45594000000E+02  0.51100000000E-03 0.  1.
    9900012    2    1    2    0    0 -0.66939466914E+01  0.48691715510E+01  0.39807635792E+02  0.50528860544E+02  0.30000002111E+02 0.  0.
        -12    1    1    2    0    0  0.66939466914E+01 -0.48691715510E+01 -0.39807635792E+02  0.40659139456E+02  0.00000000000E+00 0.  1.
         11    1    3    3    0    0 -0.35722986943E+01  0.39505003201E+01 -0.17519564630E+01  0.56068817047E+01  0.51100000000E-03 0. -1.
        -11    1    3    3    0    0 -0.45457231879E+01  0.16636297227E+01  0.18534037411E+01  0.51832778089E+01  0.51100000000E-03 0.  1.
         12    1    3    3    0    0  0.14240751907E+01 -0.74495849184E+00  0.39706188514E+02  0.39738701031E+02  0.00000000000E+00 0. -1.
</event>
<event>
 7    1  0.4520156E-012  0.5052887E+02  0.7816164E-02  0.1300439E+00
        -11   -1    0    0    0    0  0.00000000000E+00  0.00000000000E+00  0.45593999997E+02  0.45594000000E+02  0.51100000000E-03 0. -1.
         11   -1    0    0    0    0 -0.00000000000E+00 -0.00000000000E+00 -0.45593999997E+02  0.45594000000E+02  0.51100000000E-03 0.  1.
    9900012    2    1    2    0    0 -0.21678932064E+02 -0.31728774634E+02 -0.13284340198E+02  0.50528869049E+02  0.30000027960E+02 0.  0.
         12    1    1    2    0    0  0.21678932064E+02  0.31728774634E+02  0.13284340198E+02  0.40659130951E+02  0.00000000000E+00 0. -1.
         11    1    3    3    0    0 -0.32235900082E+01 -0.15913318609E+02 -0.19410460386E+02  0.25305952153E+02  0.51100000000E-03 0.  1.
        -11    1    3    3    0    0 -0.38485921954E+01 -0.32503833359E+01  0.24742154232E+01  0.56123431772E+01  0.51100000000E-03 0. -1.
        -12    1    3    3    0    0 -0.14606749860E+02 -0.12565072689E+02  0.36519047646E+01  0.19610573719E+02  0.00000000000E+00 0.  1.
</event>
<event>
 7    1  0.4520156E-012  0.5052886E+02  0.7816164E-02  0.1300439E+00
        -11   -1    0    0    0    0  0.00000000000E+00  0.00000000000E+00  0.45593999997E+02  0.45594000000E+02  0.51100000000E-03 0. -1.
         11   -1    0    0    0    0 -0.00000000000E+00 -0.00000000000E+00 -0.45593999997E+02  0.45594000000E+02  0.51100000000E-03 0.  1.
    9900012    2    1    2    0    0 -0.24113655835E+02  0.74870676673E+01  0.31869129303E+02  0.50528856102E+02  0.29999988606E+02 0.  0.
        -12    1    1    2    0    0  0.24113655835E+02 -0.74870676673E+01 -0.31869129303E+02  0.40659143898E+02  0.00000000000E+00 0.  1.
         11    1    3    3    0    0  0.64364451908E+00  0.49695193717E+01 -0.15455059092E+01  0.52439479239E+01  0.51100000000E-03 0. -1.
        -11    1    3    3    0    0 -0.21740440719E+01  0.66252540004E+01  0.42316150869E+01  0.81564100376E+01  0.51100000000E-03 0.  1.
         12    1    3    3    0    0 -0.22583256283E+02 -0.41077057048E+01  0.29183020126E+02  0.37128498140E+02  0.00000000000E+00 0. -1.
</event>
<event>
 7    1  0.4520156E-012  0.5052886E+02  0.7816164E-02  0.1300439E+00
        -11   -1    0    0    0    0  0.00000000000E+00  0.00000000000E+00  0.45593999997E+02  0.45594000000E+02  0.51100000000E-03 0. -1.
         11   -1    0    0    0    0 -0.00000000000E+00 -0.00000000000E+00 -0.45593999997E+02  0.45594000000E+02  0.51100000000E-03 0.  1.
    9900012    2    1    2    0    0 -0.95321283978E+01 -0.19809305800E+01  0.39476325134E+02  0.50528858299E+02  0.29999995286E+02 0.  0.
        -12    1    1    2    0    0  0.95321283978E+01  0.19809305800E+01 -0.39476325134E+02  0.40659141701E+02  0.00000000000E+00 0.  1.
         11    1    3    3    0    0 -0.11966356630E+02 -0.43468887738E+01  0.26945713367E+02  0.29802023457E+02  0.51100000000E-03 0. -1.
        -11    1    3    3    0    0 -0.45772680951E+01  0.63042569668E+01  0.32357157680E+01  0.84359288706E+01  0.51100000000E-03 0.  1.
        -12    1    3    3    0    0  0.70114963270E+01 -0.39382987730E+01  0.92948959991E+01  0.12290905972E+02  0.00000000000E+00 0.  1.
</event>
<event>
 7    1  0.4520156E-012  0.5052886E+02  0.7816164E-02  0.1300439E+00
        -11   -1    0    0    0    0  0.00000000000E+00  0.00000000000E+00  0.45593999997E+02  0.45594000000E+02  0.51100000000E-03 0. -1.
         11   -1    0    0    0    0 -0.00000000000E+00 -0.00000000000E+00 -0.45593999997E+02  0.45594000000E+02  0.51100000000E-03 0.  1.
    9900012    2    1    2    0    0 -0.14388169061E+02  0.28226696813E+02  0.25483326509E+02  0.50528858938E+02  0.29999997229E+02 0.  0.
        -12    1    1    2    0    0  0.14388169061E+02 -0.28226696813E+02 -0.25483326509E+02  0.40659141062E+02  0.00000000000E+00 0.  1.
         11    1    3    3    0    0 -0.12501649487E+02  0.72813633705E+01  0.13020203414E+02  0.19463689004E+02  0.51100000000E-03 0. -1.
        -11    1    3    3    0    0 -0.66839275639E+01  0.35575954846E-01  0.10527785042E+01  0.67664241788E+01  0.51100000000E-03 0.  1.
         12    1    3    3    0    0  0.47974079900E+01  0.20909757487E+02  0.11410344591E+02  0.24298745756E+02  0.00000000000E+00 0. -1.
</event>
<event>
 7    1  0.4520156E-012  0.5052886E+02  0.7816164E-02  0.1300439E+00
        -11   -1    0    0    0    0  0.00000000000E+00  0.00000000000E+00  0.45593999997E+02  0.45594000000E+02  0.51100000000E-03 0. -1.
         11   -1    0    0    0    0 -0.00000000000E+00 -0.00000000000E+00 -0.45593999997E+02  0.45594000000E+02  0.51100000000E-03 0.  1.
    9900012    2    1    2    0    0 -0.15455082769E+02  0.21902409335E+02  0.30571072830E+02  0.50528860658E+02  0.30000002456E+02 0.  0.
        -12    1    1    2    0    0  0.15455082769E+02 -0.21902409335E+02 -0.30571072830E+02  0.40659139342E+02  0.00000000000E+00 0.  1.
         11    1    3    3    0    0 -0.60690565088E+01  0.76610442971E+01  0.14967534484E+02  0.17876021241E+02  0.51100000000E-03 0. -1.
        -11    1    3    3    0    0 -0.13545599130E+02  0.19040409836E+01  0.20023155303E+01  0.13824539617E+02  0.51100000000E-03 0.  1.
         12    1    3    3    0    0  0.41595728700E+01  0.12337324054E+02  0.13601222816E+02  0.18828299800E+02  0.00000000000E+00 0. -1.
</event>
<event>
 7    1  0.4520156E-012  0.5052884E+02  0.7816164E-02  0.1300439E+00
        -11   -1    0    0    0    0  0.00000000000E+00  0.00000000000E+00  0.45593999997E+02  0.45594000000E+02  0.51100000000E-03 0. -1.
         11   -1    0    0    0    0 -0.00000000000E+00 -0.00000000000E+00 -0.45593999997E+02  0.45594000000E+02  0.51100000000E-03 0.  1.
    9900012    2    1    2    0    0  0.24260058129E+02  0.85369962445E+01 -0.31491851361E+02  0.50528838333E+02  0.29999934598E+02 0.  0.
         12    1    1    2    0    0 -0.24260058129E+02 -0.85369962445E+01  0.31491851361E+02  0.40659161667E+02  0.00000000000E+00 0. -1.
         11    1    3    3    0    0 -0.41055432373E+01 -0.23414314255E+01 -0.80744053953E+00  0.47947624424E+01  0.51100000000E-03 0. -1.
        -11    1    3    3    0    0  0.12826133240E+02 -0.27919644294E+01 -0.13544771348E+02  0.18861749399E+02  0.51100000000E-03 0.  1.
         12    1    3    3    0    0  0.15539468126E+02  0.13670392099E+02 -0.17139639474E+02  0.26872326492E+02  0.00000000000E+00 0. -1.
</event>
<event>
 7    1  0.4520156E-012  0.5052886E+02  0.7816164E-02  0.1300439E+00
        -11   -1    0    0    0    0  0.00000000000E+00  0.00000000000E+00  0.45593999997E+02  0.45594000000E+02  0.51100000000E-03 0. -1.
         11   -1    0    0    0    0 -0.00000000000E+00 -0.00000000000E+00 -0.45593999997E+02  0.45594000000E+02  0.51100000000E-03 0.  1.
    9900012    2    1    2    0    0  0.69534498693E+00 -0.21356590749E+02 -0.34591586437E+02  0.50528864185E+02  0.30000013175E+02 0.  0.
         12    1    1    2    0    0 -0.69534498693E+00  0.21356590749E+02  0.34591586437E+02  0.40659135815E+02  0.00000000000E+00 0. -1.
         11    1    3    3    0    0 -0.10851363280E+01 -0.35554135742E+01  0.54466443624E+00  0.37570129283E+01  0.51100000000E-03 0. -1.
        -11    1    3    3    0    0  0.77057138651E+01 -0.17964925466E+02 -0.12110160427E+02  0.22995055099E+02  0.51100000000E-03 0.  1.
         12    1    3    3    0    0 -0.59252325502E+01  0.16374829166E+00 -0.23026090446E+02  0.23776796158E+02  0.00000000000E+00 0. -1.
</event>
<event>
 7    1  0.4520156E-012  0.5052886E+02  0.7816164E-02  0.1300439E+00
        -11   -1    0    0    0    0  0.00000000000E+00  0.00000000000E+00  0.45593999997E+02  0.45594000000E+02  0.51100000000E-03 0. -1.
         11   -1    0    0    0    0 -0.00000000000E+00 -0.00000000000E+00 -0.45593999997E+02  0.45594000000E+02  0.51100000000E-03 0.  1.
    9900012    2    1    2    0    0  0.10825413344E+02  0.12023720673E+02 -0.37301562872E+02  0.50528855573E+02  0.29999986998E+02 0.  0.
         12    1    1    2    0    0 -0.10825413344E+02 -0.12023720673E+02  0.37301562872E+02  0.40659144427E+02  0.00000000000E+00 0. -1.
         11    1    3    3    0    0  0.57118164747E+01  0.10718866570E+02 -0.19995999800E+02  0.23395703799E+02  0.51100000000E-03 0. -1.
        -11    1    3    3    0    0  0.99734344868E+01  0.18708336496E+01 -0.19335198503E+02  0.21836192787E+02  0.51100000000E-03 0.  1.
         12    1    3    3    0    0 -0.48598376177E+01 -0.56597954631E+00  0.20296354318E+01  0.52969589864E+01  0.00000000000E+00 0. -1.
</event>
<event>
 7    1  0.4520156E-012  0.5052885E+02  0.7816164E-02  0.1300439E+00
        -11   -1    0    0    0    0  0.00000000000E+00  0.00000000000E+00  0.45593999997E+02  0.45594000000E+02  0.51100000000E-03 0. -1.
         11   -1    0    0    0    0 -0.00000000000E+00 -0.00000000000E+00 -0.45593999997E+02  0.45594000000E+02  0.51100000000E-03 0.  1.
    9900012    2    1    2    0    0  0.68163099648E+01  0.13165106888E+02 -0.37860059592E+02  0.50528853019E+02  0.29999979236E+02 0.  0.
         12    1    1    2    0    0 -0.68163099648E+01 -0.13165106888E+02  0.37860059592E+02  0.40659146981E+02  0.00000000000E+00 0. -1.
         11    1    3    3    0    0  0.84999961792E+01 -0.10331606415E+01 -0.17855155992E+02  0.19802119880E+02  0.51100000000E-03 0. -1.
        -11    1    3    3    0    0  0.84778656950E+00  0.47861264553E+01 -0.20401017749E+02  0.20972059364E+02  0.51100000000E-03 0.  1.
        -12    1    3    3    0    0 -0.25314727839E+01  0.94121410737E+01  0.39611414882E+00  0.97546737755E+01  0.00000000000E+00 0.  1.
</event>
<event>
 7    1  0.4520156E-012  0.5052872E+02  0.7816164E-02  0.1300439E+00
        -11   -1    0    0    0    0  0.00000000000E+00  0.00000000000E+00  0.45593999997E+02  0.45594000000E+02  0.51100000000E-03 0. -1.
         11   -1    0    0    0    0 -0.00000000000E+00 -0.00000000000E+00 -0.45593999997E+02  0.45594000000E+02  0.51100000000E-03 0.  1.
    9900012    2    1    2    0    0 -0.29214158928E+02 -0.98741997339E+01 -0.26499254859E+02  0.50528715570E+02  0.29999561444E+02 0.  0.
         12    1    1    2    0    0  0.29214158928E+02  0.98741997339E+01  0.26499254859E+02  0.40659284430E+02  0.00000000000E+00 0. -1.
         11    1    3    3    0    0 -0.21202139240E+02  0.44550851756E+01 -0.13886081180E+02  0.25733280845E+02  0.51100000000E-03 0. -1.
        -11    1    3    3    0    0  0.12580269607E+01 -0.65608167169E+01 -0.10607101157E+02  0.12535451450E+02  0.51100000000E-03 0.  1.
        -12    1    3    3    0    0 -0.92700466493E+01 -0.77684681927E+01 -0.20060725212E+01  0.12259983275E+02  0.00000000000E+00 0.  1.
</event>
<event>
 7    1  0.4520156E-012  0.5052888E+02  0.7816164E-02  0.1300439E+00
        -11   -1    0    0    0    0  0.00000000000E+00  0.00000000000E+00  0.45593999997E+02  0.45594000000E+02  0.51100000000E-03 0.  1.
         11   -1    0    0    0    0 -0.00000000000E+00 -0.00000000000E+00 -0.45593999997E+02  0.45594000000E+02  0.51100000000E-03 0. -1.
    9900012    2    1    2    0    0  0.32616267544E+02  0.21473686013E+02 -0.11323604167E+02  0.50528879119E+02  0.30000058569E+02 0.  0.
        -12    1    1    2    0    0 -0.32616267544E+02 -0.21473686013E+02  0.11323604167E+02  0.40659120881E+02  0.00000000000E+00 0.  1.
         11    1    3    3    0    0  0.85288421584E+01  0.14495129364E+00 -0.70278619791E+01  0.11052284999E+02  0.51100000000E-03 0. -1.
        -11    1    3    3    0    0 -0.12198302948E+00 -0.38674891348E+01 -0.22470787158E+01  0.44745631165E+01  0.51100000000E-03 0.  1.
         12    1    3    3    0    0  0.24209408415E+02  0.25196223855E+02 -0.20486634725E+01  0.35002031003E+02  0.00000000000E+00 0. -1.
</event>
<event>
 7    1  0.4520156E-012  0.5052886E+02  0.7816164E-02  0.1300439E+00
        -11   -1    0    0    0    0  0.00000000000E+00  0.00000000000E+00  0.45593999997E+02  0.45594000000E+02  0.51100000000E-03 0. -1.
         11   -1    0    0    0    0 -0.00000000000E+00 -0.00000000000E+00 -0.45593999997E+02  0.45594000000E+02  0.51100000000E-03 0.  1.
    9900012    2    1    2    0    0 -0.23022733104E+02  0.76315092809E+01  0.32632491500E+02  0.50528859884E+02  0.30000000104E+02 0.  0.
        -12    1    1    2    0    0  0.23022733104E+02 -0.76315092809E+01 -0.32632491500E+02  0.40659140116E+02  0.00000000000E+00 0.  1.
         11    1    3    3    0    0 -0.10192380635E+01  0.54369238381E+01  0.29847833097E+01  0.62855324928E+01  0.51100000000E-03 0. -1.
        -11    1    3    3    0    0 -0.15881390514E+02  0.12864512799E+02  0.16808126198E+02  0.26461809476E+02  0.51100000000E-03 0.  1.
        -12    1    3    3    0    0 -0.61221045263E+01 -0.10669927356E+02  0.12839581992E+02  0.17781517915E+02  0.00000000000E+00 0.  1.
</event>
<event>
 7    1  0.4520156E-012  0.5052886E+02  0.7816164E-02  0.1300439E+00
        -11   -1    0    0    0    0  0.00000000000E+00  0.00000000000E+00  0.45593999997E+02  0.45594000000E+02  0.51100000000E-03 0. -1.
         11   -1    0    0    0    0 -0.00000000000E+00 -0.00000000000E+00 -0.45593999997E+02  0.45594000000E+02  0.51100000000E-03 0.  1.
    9900012    2    1    2    0    0 -0.95983466085E+01 -0.11388761674E+02  0.37832967990E+02  0.50528860596E+02  0.30000002269E+02 0.  0.
        -12    1    1    2    0    0  0.95983466085E+01  0.11388761674E+02 -0.37832967990E+02  0.40659139404E+02  0.00000000000E+00 0.  1.
         11    1    3    3    0    0 -0.38528526404E+01  0.36911663692E+01  0.19418392029E+02  0.20138101497E+02  0.51100000000E-03 0. -1.
        -11    1    3    3    0    0 -0.57433959270E+01  0.24959398008E+01  0.71976298324E+01  0.95405548963E+01  0.51100000000E-03 0.  1.
        -12    1    3    3    0    0 -0.20980410999E-02 -0.17575867844E+02  0.11216946129E+02  0.20850204204E+02  0.00000000000E+00 0.  1.
</event>
<event>
 7    1  0.4520156E-012  0.5052886E+02  0.7816164E-02  0.1300439E+00
        -11   -1    0    0    0    0  0.00000000000E+00  0.00000000000E+00  0.45593999997E+02  0.45594000000E+02  0.51100000000E-03 0. -1.
         11   -1    0    0    0    0 -0.00000000000E+00 -0.00000000000E+00 -0.45593999997E+02  0.45594000000E+02  0.51100000000E-03 0.  1.
    9900012    2    1    2    0    0 -0.22902379637E+02  0.14957445740E+02 -0.30081910410E+02  0.50528861913E+02  0.30000006270E+02 0.  0.
         12    1    1    2    0    0  0.22902379637E+02 -0.14957445740E+02  0.30081910410E+02  0.40659138087E+02  0.00000000000E+00 0. -1.
         11    1    3    3    0    0 -0.51663574609E+01  0.40703938405E+01  0.44687921842E+01  0.79516953712E+01  0.51100000000E-03 0. -1.
        -11    1    3    3    0    0 -0.61633662383E+01  0.66500937189E+01 -0.45516279794E+01  0.10145351023E+02  0.51100000000E-03 0.  1.
        -12    1    3    3    0    0 -0.11572655938E+02  0.42369581804E+01 -0.29999074615E+02  0.32431815518E+02  0.00000000000E+00 0.  1.
</event>
<event>
 7    1  0.4520156E-012  0.5052882E+02  0.7816164E-02  0.1300439E+00
        -11   -1    0    0    0    0  0.00000000000E+00  0.00000000000E+00  0.45593999997E+02  0.45594000000E+02  0.51100000000E-03 0. -1.
         11   -1    0    0    0    0 -0.00000000000E+00 -0.00000000000E+00 -0.45593999997E+02  0.45594000000E+02  0.51100000000E-03 0.  1.
    9900012    2    1    2    0    0  0.73461635043E+01 -0.10742670509E+02  0.38520091921E+02  0.50528824289E+02  0.29999891909E+02 0.  0.
        -12    1    1    2    0    0 -0.73461635043E+01  0.10742670509E+02 -0.38520091921E+02  0.40659175711E+02  0.00000000000E+00 0.  1.
         11    1    3    3    0    0 -0.67525043850E+01  0.38617975757E+01  0.65310316164E+01  0.10156976431E+02  0.51100000000E-03 0. -1.
        -11    1    3    3    0    0  0.14645276863E+01  0.21795167572E+01  0.83203273559E+01  0.87248485494E+01  0.51100000000E-03 0.  1.
         12    1    3    3    0    0  0.12634140203E+02 -0.16783984842E+02  0.23668732949E+02  0.31646999309E+02  0.00000000000E+00 0. -1.
</event>
<event>
 7    1  0.4520156E-012  0.5052886E+02  0.7816164E-02  0.1300439E+00
        -11   -1    0    0    0    0  0.00000000000E+00  0.00000000000E+00  0.45593999997E+02  0.45594000000E+02  0.51100000000E-03 0.  1.
         11   -1    0    0    0    0 -0.00000000000E+00 -0.00000000000E+00 -0.45593999997E+02  0.45594000000E+02  0.51100000000E-03 0. -1.
    9900012    2    1    2    0    0 -0.15632926571E+02 -0.35316063537E+02  0.12710344213E+02  0.50528860966E+02  0.30000003393E+02 0.  0.
        -12    1    1    2    0    0  0.15632926571E+02  0.35316063537E+02 -0.12710344213E+02  0.40659139034E+02  0.00000000000E+00 0.  1.
         11    1    3    3    0    0 -0.98998017301E+01 -0.35858702251E+01  0.73177835298E+01  0.12822421597E+02  0.51100000000E-03 0. -1.
        -11    1    3    3    0    0 -0.96062094552E+01 -0.24251865314E+02  0.10200822031E+02  0.28008730812E+02  0.51100000000E-03 0.  1.
         12    1    3    3    0    0  0.38730846141E+01 -0.74783279982E+01 -0.48082613474E+01  0.96977085573E+01  0.00000000000E+00 0. -1.
</event>
<event>
 7    1  0.4520156E-012  0.5052886E+02  0.7816164E-02  0.1300439E+00
        -11   -1    0    0    0    0  0.00000000000E+00  0.00000000000E+00  0.45593999997E+02  0.45594000000E+02  0.51100000000E-03 0.  1.
         11   -1    0    0    0    0 -0.00000000000E+00 -0.00000000000E+00 -0.45593999997E+02  0.45594000000E+02  0.51100000000E-03 0. -1.
    9900012    2    1    2    0    0 -0.10793780577E+02 -0.39104748178E+02  0.27347831257E+01  0.50528855052E+02  0.29999985416E+02 0.  0.
        -12    1    1    2    0    0  0.10793780577E+02  0.39104748178E+02 -0.27347831257E+01  0.40659144948E+02  0.00000000000E+00 0.  1.
         11    1    3    3    0    0  0.46933112769E+01 -0.18108168307E+02 -0.33003713973E+01  0.18995404228E+02  0.51100000000E-03 0. -1.
        -11    1    3    3    0    0 -0.21564281143E+01 -0.16833051923E+02  0.28353262950E+01  0.17205838972E+02  0.51100000000E-03 0.  1.
        -12    1    3    3    0    0 -0.13330663739E+02 -0.41635279478E+01  0.31998282280E+01  0.14327611852E+02  0.00000000000E+00 0.  1.
</event>
<event>
 7    1  0.4520156E-012  0.5052886E+02  0.7816164E-02  0.1300439E+00
        -11   -1    0    0    0    0  0.00000000000E+00  0.00000000000E+00  0.45593999997E+02  0.45594000000E+02  0.51100000000E-03 0.  1.
         11   -1    0    0    0    0 -0.00000000000E+00 -0.00000000000E+00 -0.45593999997E+02  0.45594000000E+02  0.51100000000E-03 0. -1.
    9900012    2    1    2    0    0  0.38251086175E+02 -0.67885982928E+01 -0.11997295275E+02  0.50528858909E+02  0.29999997139E+02 0.  0.
         12    1    1    2    0    0 -0.38251086175E+02  0.67885982928E+01  0.11997295275E+02  0.40659141091E+02  0.00000000000E+00 0. -1.
         11    1    3    3    0    0 -0.80374101305E+00 -0.82836420996E+01 -0.44302332518E+01  0.94282391239E+01  0.51100000000E-03 0. -1.
        -11    1    3    3    0    0  0.15037722563E+02  0.45308172123E+01  0.10491424271E+00  0.15705808217E+02  0.51100000000E-03 0.  1.
        -12    1    3    3    0    0  0.24017104625E+02 -0.30357734055E+01 -0.76719762659E+01  0.25394811568E+02  0.00000000000E+00 0.  1.
</event>
<event>
 7    1  0.4520156E-012  0.5052886E+02  0.7816164E-02  0.1300439E+00
        -11   -1    0    0    0    0  0.00000000000E+00  0.00000000000E+00  0.45593999997E+02  0.45594000000E+02  0.51100000000E-03 0. -1.
         11   -1    0    0    0    0 -0.00000000000E+00 -0.00000000000E+00 -0.45593999997E+02  0.45594000000E+02  0.51100000000E-03 0.  1.
    9900012    2    1    2    0    0  0.46902644170E+01  0.36780215036E+02  0.16684809558E+02  0.50528859965E+02  0.30000000350E+02 0.  0.
        -12    1    1    2    0    0 -0.46902644170E+01 -0.36780215036E+02 -0.16684809558E+02  0.40659140035E+02  0.00000000000E+00 0.  1.
         11    1    3    3    0    0 -0.49152202353E+01  0.94531073265E+01 -0.57201126761E+01  0.12092986289E+02  0.51100000000E-03 0. -1.
        -11    1    3    3    0    0  0.29753330520E+01  0.31384696709E+01 -0.64440193132E+00  0.43723966832E+01  0.51100000000E-03 0.  1.
         12    1    3    3    0    0  0.66301516003E+01  0.24188638038E+02  0.23049324166E+02  0.34063476993E+02  0.00000000000E+00 0. -1.
</event>
<event>
 7    1  0.4520156E-012  0.5052884E+02  0.7816164E-02  0.1300439E+00
        -11   -1    0    0    0    0  0.00000000000E+00  0.00000000000E+00  0.45593999997E+02  0.45594000000E+02  0.51100000000E-03 0. -1.
         11   -1    0    0    0    0 -0.00000000000E+00 -0.00000000000E+00 -0.45593999997E+02  0.45594000000E+02  0.51100000000E-03 0.  1.
    9900012    2    1    2    0    0  0.29639315328E+00  0.17699216215E+02  0.36603509822E+02  0.50528843162E+02  0.29999949275E+02 0.  0.
        -12    1    1    2    0    0 -0.29639315328E+00 -0.17699216215E+02 -0.36603509822E+02  0.40659156838E+02  0.00000000000E+00 0.  1.
         11    1    3    3    0    0  0.89388317936E+01  0.11471526347E+02  0.31523303042E+02  0.34716239219E+02  0.51100000000E-03 0. -1.
        -11    1    3    3    0    0  0.22575855440E+01  0.26910045935E+01  0.13096307126E+01  0.37487772774E+01  0.51100000000E-03 0.  1.
        -12    1    3    3    0    0 -0.10900024184E+02  0.35366852740E+01  0.37705760672E+01  0.12063826666E+02  0.00000000000E+00 0.  1.
</event>
<event>
 7    1  0.4520156E-012  0.5052885E+02  0.7816164E-02  0.1300439E+00
        -11   -1    0    0    0    0  0.00000000000E+00  0.00000000000E+00  0.45593999997E+02  0.45594000000E+02  0.51100000000E-03 0.  1.
         11   -1    0    0    0    0 -0.00000000000E+00 -0.00000000000E+00 -0.45593999997E+02  0.45594000000E+02  0.51100000000E-03 0. -1.
    9900012    2    1    2    0    0 -0.24197756901E+02 -0.28285799722E+02  0.16356911449E+02  0.50528850266E+02  0.29999970869E+02 0.  0.
        -12    1    1    2    0    0  0.24197756901E+02  0.28285799722E+02 -0.16356911449E+02  0.40659149734E+02  0.00000000000E+00 0.  1.
         11    1    3    3    0    0 -0.18859633273E+02 -0.20436348399E+02  0.57994902140E+01  0.28407115131E+02  0.51100000000E-03 0. -1.
        -11    1    3    3    0    0 -0.78938023468E+01 -0.10242684063E+02  0.22756393431E+01  0.13130240934E+02  0.51100000000E-03 0.  1.
        -12    1    3    3    0    0  0.25556787191E+01  0.23932327398E+01  0.82817818919E+01  0.89914942010E+01  0.00000000000E+00 0.  1.
</event>
<event>
 7    1  0.4520156E-012  0.5052886E+02  0.7816164E-02  0.1300439E+00
        -11   -1    0    0    0    0  0.00000000000E+00  0.00000000000E+00  0.45593999997E+02  0.45594000000E+02  0.51100000000E-03 0. -1.
         11   -1    0    0    0    0 -0.00000000000E+00 -0.00000000000E+00 -0.45593999997E+02  0.45594000000E+02  0.51100000000E-03 0.  1.
    9900012    2    1    2    0    0  0.39022211533E+02  0.49487255382E+01  0.10292862535E+02  0.50528857159E+02  0.29999991821E+02 0.  0.
        -12    1    1    2    0    0 -0.39022211533E+02 -0.49487255382E+01 -0.10292862535E+02  0.40659142841E+02  0.00000000000E+00 0.  1.
         11    1    3    3    0    0  0.23873328140E+02  0.81142037892E+01  0.51413321032E+01  0.25733429536E+02  0.51100000000E-03 0. -1.
        -11    1    3    3    0    0  0.42744219498E+01  0.63182909871E+00  0.11042667802E+02  0.11857925766E+02  0.51100000000E-03 0.  1.
        -12    1    3    3    0    0  0.10874461443E+02 -0.37973073497E+01 -0.58911373709E+01  0.12937501858E+02  0.00000000000E+00 0.  1.
</event>
<event>
 7    1  0.4520156E-012  0.5052893E+02  0.7816164E-02  0.1300439E+00
        -11   -1    0    0    0    0  0.00000000000E+00  0.00000000000E+00  0.45593999997E+02  0.45594000000E+02  0.51100000000E-03 0.  1.
         11   -1    0    0    0    0 -0.00000000000E+00 -0.00000000000E+00 -0.45593999997E+02  0.45594000000E+02  0.51100000000E-03 0. -1.
    9900012    2    1    2    0    0 -0.36172437796E+02 -0.48255594205E+01  0.17928440263E+02  0.50528926596E+02  0.30000202881E+02 0.  0.
        -12    1    1    2    0    0  0.36172437796E+02  0.48255594205E+01 -0.17928440263E+02  0.40659073404E+02  0.00000000000E+00 0.  1.
         11    1    3    3    0    0 -0.20651483886E+02  0.18508462367E+01  0.52933198622E+01  0.21399267602E+02  0.51100000000E-03 0. -1.
        -11    1    3    3    0    0 -0.19934735137E+01 -0.24517171955E+01 -0.53612119948E+01  0.62231381288E+01  0.51100000000E-03 0.  1.
        -12    1    3    3    0    0 -0.13527480396E+02 -0.42246884617E+01  0.17996332395E+02  0.22906520865E+02  0.00000000000E+00 0.  1.
</event>
<event>
 7    1  0.4520156E-012  0.5052886E+02  0.7816164E-02  0.1300439E+00
        -11   -1    0    0    0    0  0.00000000000E+00  0.00000000000E+00  0.45593999997E+02  0.45594000000E+02  0.51100000000E-03 0. -1.
         11   -1    0    0    0    0 -0.00000000000E+00 -0.00000000000E+00 -0.45593999997E+02  0.45594000000E+02  0.51100000000E-03 0.  1.
    9900012    2    1    2    0    0  0.65557256990E+01 -0.78478242592E+01 -0.39352247640E+02  0.50528864749E+02  0.30000014891E+02 0.  0.
         12    1    1    2    0    0 -0.65557256990E+01  0.78478242592E+01  0.39352247640E+02  0.40659135251E+02  0.00000000000E+00 0. -1.
         11    1    3    3    0    0  0.57318273817E+01 -0.13308681298E+01 -0.10273351415E+01  0.59733133909E+01  0.51100000000E-03 0. -1.
        -11    1    3    3    0    0  0.80356000394E+01  0.27954997980E+01 -0.26634965102E+02  0.27960812816E+02  0.51100000000E-03 0.  1.
        -12    1    3    3    0    0 -0.72117017221E+01 -0.93124559273E+01 -0.11689947397E+02  0.16594738542E+02  0.00000000000E+00 0.  1.
</event>
<event>
 7    1  0.4520156E-012  0.5052888E+02  0.7816164E-02  0.1300439E+00
        -11   -1    0    0    0    0  0.00000000000E+00  0.00000000000E+00  0.45593999997E+02  0.45594000000E+02  0.51100000000E-03 0. -1.
         11   -1    0    0    0    0 -0.00000000000E+00 -0.00000000000E+00 -0.45593999997E+02  0.45594000000E+02  0.51100000000E-03 0.  1.
    9900012    2    1    2    0    0  0.18542085818E+02 -0.21724946553E+02  0.28937555277E+02  0.50528876120E+02  0.30000049455E+02 0.  0.
        -12    1    1    2    0    0 -0.18542085818E+02  0.21724946553E+02 -0.28937555277E+02  0.40659123880E+02  0.00000000000E+00 0.  1.
         11    1    3    3    0    0  0.26224581281E+01 -0.10298112292E+02  0.14016660141E+02  0.17589632321E+02  0.51100000000E-03 0. -1.
        -11    1    3    3    0    0 -0.13657481431E+01 -0.64559041564E+01  0.13341347177E+02  0.14884069041E+02  0.51100000000E-03 0.  1.
        -12    1    3    3    0    0  0.17285375833E+02 -0.49709301046E+01  0.15795479594E+01  0.18055174758E+02  0.00000000000E+00 0.  1.
</event>
<event>
 7    1  0.4520156E-012  0.5052888E+02  0.7816164E-02  0.1300439E+00
        -11   -1    0    0    0    0  0.00000000000E+00  0.00000000000E+00  0.45593999997E+02  0.45594000000E+02  0.51100000000E-03 0. -1.
         11   -1    0    0    0    0 -0.00000000000E+00 -0.00000000000E+00 -0.45593999997E+02  0.45594000000E+02  0.51100000000E-03 0.  1.
    9900012    2    1    2    0    0  0.30452016383E+02 -0.22222159186E+02  0.15232009640E+02  0.50528883207E+02  0.30000070997E+02 0.  0.
        -12    1    1    2    0    0 -0.30452016383E+02  0.22222159186E+02 -0.15232009640E+02  0.40659116793E+02  0.00000000000E+00 0.  1.
         11    1    3    3    0    0  0.71563389474E+01 -0.15931471137E+02  0.65596922496E+01  0.18656219403E+02  0.51100000000E-03 0. -1.
        -11    1    3    3    0    0  0.17680193561E+02 -0.12982069257E+02  0.61559812661E+01  0.22781998862E+02  0.51100000000E-03 0.  1.
        -12    1    3    3    0    0  0.56154838753E+01  0.66913812078E+01  0.25163361238E+01  0.90906649432E+01  0.00000000000E+00 0.  1.
</event>
<event>
 7    1  0.4520156E-012  0.5052886E+02  0.7816164E-02  0.1300439E+00
        -11   -1    0    0    0    0  0.00000000000E+00  0.00000000000E+00  0.45593999997E+02  0.45594000000E+02  0.51100000000E-03 0. -1.
         11   -1    0    0    0    0 -0.00000000000E+00 -0.00000000000E+00 -0.45593999997E+02  0.45594000000E+02  0.51100000000E-03 0.  1.
    9900012    2    1    2    0    0 -0.57358515416E+01 -0.24764168613E+02 -0.31733291658E+02  0.50528857861E+02  0.29999993956E+02 0.  0.
         12    1    1    2    0    0  0.57358515416E+01  0.24764168613E+02  0.31733291658E+02  0.40659142139E+02  0.00000000000E+00 0. -1.
         11    1    3    3    0    0 -0.26169615939E+01 -0.14807751424E+02 -0.15953074332E+01  0.15121606935E+02  0.51100000000E-03 0. -1.
        -11    1    3    3    0    0 -0.79792035194E+01 -0.10351812004E+02 -0.17357689910E+02  0.21728255793E+02  0.51100000000E-03 0.  1.
         12    1    3    3    0    0  0.48603135717E+01  0.39539481518E+00 -0.12780294315E+02  0.13678995133E+02  0.00000000000E+00 0. -1.
</event>
<event>
 7    1  0.4520156E-012  0.5052885E+02  0.7816164E-02  0.1300439E+00
        -11   -1    0    0    0    0  0.00000000000E+00  0.00000000000E+00  0.45593999997E+02  0.45594000000E+02  0.51100000000E-03 0.  1.
         11   -1    0    0    0    0 -0.00000000000E+00 -0.00000000000E+00 -0.45593999997E+02  0.45594000000E+02  0.51100000000E-03 0. -1.
    9900012    2    1    2    0    0  0.99145129640E+01  0.31676694067E+02 -0.23483092961E+02  0.50528853804E+02  0.29999981622E+02 0.  0.
         12    1    1    2    0    0 -0.99145129640E+01 -0.31676694067E+02  0.23483092961E+02  0.40659146196E+02  0.00000000000E+00 0. -1.
         11    1    3    3    0    0  0.64461258831E+01  0.22454455076E+02 -0.72163880881E+01  0.24450589951E+02  0.51100000000E-03 0. -1.
        -11    1    3    3    0    0  0.18345482696E+01  0.14553642102E+02 -0.10380640903E+02  0.17970302490E+02  0.51100000000E-03 0.  1.
         12    1    3    3    0    0  0.16338388113E+01 -0.53314031105E+01 -0.58860639707E+01  0.81079613624E+01  0.00000000000E+00 0. -1.
</event>
<event>
 7    1  0.4520156E-012  0.5052886E+02  0.7816164E-02  0.1300439E+00
        -11   -1    0    0    0    0  0.00000000000E+00  0.00000000000E+00  0.45593999997E+02  0.45594000000E+02  0.51100000000E-03 0. -1.
         11   -1    0    0    0    0 -0.00000000000E+00 -0.00000000000E+00 -0.45593999997E+02  0.45594000000E+02  0.51100000000E-03 0.  1.
    9900012    2    1    2    0    0 -0.24036661425E+02 -0.25725169279E+02  0.20337658375E+02  0.50528858653E+02  0.29999996360E+02 0.  0.
        -12    1    1    2    0    0  0.24036661425E+02  0.25725169279E+02 -0.20337658375E+02  0.40659141347E+02  0.00000000000E+00 0.  1.
         11    1    3    3    0    0 -0.35588898272E+01 -0.52936253153E+01 -0.19253980862E+01  0.66629816023E+01  0.51100000000E-03 0. -1.
        -11    1    3    3    0    0 -0.54130307078E+01 -0.12840011605E+02 -0.22441059900E+01  0.14113922609E+02  0.51100000000E-03 0.  1.
         12    1    3    3    0    0 -0.15064740890E+02 -0.75915323590E+01  0.24507162452E+02  0.29751954441E+02  0.00000000000E+00 0. -1.
</event>
<event>
 7    1  0.4520156E-012  0.5052885E+02  0.7816164E-02  0.1300439E+00
        -11   -1    0    0    0    0  0.00000000000E+00  0.00000000000E+00  0.45593999997E+02  0.45594000000E+02  0.51100000000E-03 0. -1.
         11   -1    0    0    0    0 -0.00000000000E+00 -0.00000000000E+00 -0.45593999997E+02  0.45594000000E+02  0.51100000000E-03 0.  1.
    9900012    2    1    2    0    0 -0.23758572507E+00  0.93777863743E+01  0.39562190287E+02  0.50528853125E+02  0.29999979559E+02 0.  0.
        -12    1    1    2    0    0  0.23758572507E+00 -0.93777863743E+01 -0.39562190287E+02  0.40659146875E+02  0.00000000000E+00 0.  1.
         11    1    3    3    0    0 -0.99289500053E+01  0.11362225862E+02  0.15506704447E+02  0.21636591872E+02  0.51100000000E-03 0. -1.
        -11    1    3    3    0    0  0.32974789167E+01 -0.64652875579E+01  0.67690697710E+01  0.99243950062E+01  0.51100000000E-03 0.  1.
        -12    1    3    3    0    0  0.63938853635E+01  0.44808480705E+01  0.17286416069E+02  0.18967866248E+02  0.00000000000E+00 0.  1.
</event>
<event>
 7    1  0.4520156E-012  0.5052886E+02  0.7816164E-02  0.1300439E+00
        -11   -1    0    0    0    0  0.00000000000E+00  0.00000000000E+00  0.45593999997E+02  0.45594000000E+02  0.51100000000E-03 0. -1.
         11   -1    0    0    0    0 -0.00000000000E+00 -0.00000000000E+00 -0.45593999997E+02  0.45594000000E+02  0.51100000000E-03 0.  1.
    9900012    2    1    2    0    0  0.76882443741E+01 -0.14444281296E+02  0.37221218974E+02  0.50528861967E+02  0.30000006435E+02 0.  0.
        -12    1    1    2    0    0 -0.76882443741E+01  0.14444281296E+02 -0.37221218974E+02  0.40659138033E+02  0.00000000000E+00 0.  1.
         11    1    3    3    0    0 -0.36719958652E+01 -0.19751371188E+01  0.26894449928E+01  0.49616363129E+01  0.51100000000E-03 0. -1.
        -11    1    3    3    0    0 -0.12348320435E+01  0.21616723390E+01 -0.26724961815E+01  0.36523791668E+01  0.51100000000E-03 0.  1.
         12    1    3    3    0    0  0.12595072283E+02 -0.14630816516E+02  0.37204270162E+02  0.41914846487E+02  0.00000000000E+00 0. -1.
</event>
<event>
 7    1  0.4520156E-012  0.5052886E+02  0.7816164E-02  0.1300439E+00
        -11   -1    0    0    0    0  0.00000000000E+00  0.00000000000E+00  0.45593999997E+02  0.45594000000E+02  0.51100000000E-03 0. -1.
         11   -1    0    0    0    0 -0.00000000000E+00 -0.00000000000E+00 -0.45593999997E+02  0.45594000000E+02  0.51100000000E-03 0.  1.
    9900012    2    1    2    0    0 -0.31721530845E+02 -0.55166581323E+01  0.24828949428E+02  0.50528858767E+02  0.29999996709E+02 0.  0.
        -12    1    1    2    0    0  0.31721530845E+02  0.55166581323E+01 -0.24828949428E+02  0.40659141233E+02  0.00000000000E+00 0.  1.
         11    1    3    3    0    0 -0.20176681457E+02  0.67757057727E+01  0.87382466012E+01  0.23007946828E+02  0.51100000000E-03 0. -1.
        -11    1    3    3    0    0 -0.26564787721E+01  0.14239688859E+01 -0.16192360324E+01  0.34214751854E+01  0.51100000000E-03 0.  1.
         12    1    3    3    0    0 -0.88883706154E+01 -0.13716332791E+02  0.17709938859E+02  0.24099436753E+02  0.00000000000E+00 0. -1.
</event>
<event>
 7    1  0.5540353E-012  0.5052886E+02  0.7816164E-02  0.1300439E+00
        -11   -1    0    0    0    0  0.00000000000E+00  0.00000000000E+00  0.45593999997E+02  0.45594000000E+02  0.51100000000E-03 0. -1.
         11   -1    0    0    0    0 -0.00000000000E+00 -0.00000000000E+00 -0.45593999997E+02  0.45594000000E+02  0.51100000000E-03 0.  1.
    9900012    2    1    2    0    0 -0.21004839866E+00 -0.83667447097E+01  0.39788429739E+02  0.50528859841E+02  0.29999999974E+02 0.  0.
        -12    1    1    2    0    0  0.21004839866E+00  0.83667447097E+01 -0.39788429739E+02  0.40659140159E+02  0.00000000000E+00 0.  1.
         11    1    3    3    0    0 -0.46403102815E+00 -0.48193144959E+01  0.70658363601E+00  0.48928905262E+01  0.51100000000E-03 0. -1.
        -11    1    3    3    0    0  0.65656217207E+01 -0.50571436941E+00  0.70260443563E+00  0.66224458364E+01  0.51100000000E-03 0.  1.
         12    1    3    3    0    0 -0.63116390912E+01 -0.30417158444E+01  0.38379241667E+02  0.39013523479E+02  0.00000000000E+00 0. -1.
</event>
<event>
 7    1  0.4520156E-012  0.5052892E+02  0.7816164E-02  0.1300439E+00
        -11   -1    0    0    0    0  0.00000000000E+00  0.00000000000E+00  0.45593999997E+02  0.45594000000E+02  0.51100000000E-03 0. -1.
         11   -1    0    0    0    0 -0.00000000000E+00 -0.00000000000E+00 -0.45593999997E+02  0.45594000000E+02  0.51100000000E-03 0.  1.
    9900012    2    1    2    0    0  0.24445526249E+01  0.97577629804E+01 -0.39395062380E+02  0.50528920868E+02  0.30000185469E+02 0.  0.
         12    1    1    2    0    0 -0.24445526249E+01 -0.97577629804E+01  0.39395062380E+02  0.40659079132E+02  0.00000000000E+00 0. -1.
         11    1    3    3    0    0 -0.21289589617E+01  0.39812656299E+01 -0.71844398662E+01  0.84852294446E+01  0.51100000000E-03 0. -1.
        -11    1    3    3    0    0  0.14084898490E+00  0.25002198179E+01 -0.35524190709E+02  0.35612344255E+02  0.51100000000E-03 0.  1.
         12    1    3    3    0    0  0.44326626017E+01  0.32762775326E+01  0.33135681949E+01  0.64313471678E+01  0.00000000000E+00 0. -1.
</event>
<event>
 7    1  0.4520156E-012  0.5052886E+02  0.7816164E-02  0.1300439E+00
        -11   -1    0    0    0    0  0.00000000000E+00  0.00000000000E+00  0.45593999997E+02  0.45594000000E+02  0.51100000000E-03 0.  1.
         11   -1    0    0    0    0 -0.00000000000E+00 -0.00000000000E+00 -0.45593999997E+02  0.45594000000E+02  0.51100000000E-03 0. -1.
    9900012    2    1    2    0    0 -0.18845848899E+02  0.29582521846E+02 -0.20563896303E+02  0.50528862642E+02  0.30000008488E+02 0.  0.
         12    1    1    2    0    0  0.18845848899E+02 -0.29582521846E+02  0.20563896303E+02  0.40659137358E+02  0.00000000000E+00 0. -1.
         11    1    3    3    0    0 -0.28637918695E+01  0.76440706844E+01 -0.52469189583E+01  0.97037765491E+01  0.51100000000E-03 0. -1.
        -11    1    3    3    0    0 -0.11238277367E+02  0.86060749210E+01 -0.21207005486E+02  0.25497068178E+02  0.51100000000E-03 0.  1.
         12    1    3    3    0    0 -0.47437796622E+01  0.13332376240E+02  0.58900281410E+01  0.15328017915E+02  0.00000000000E+00 0. -1.
</event>
<event>
 7    1  0.4520156E-012  0.5052886E+02  0.7816164E-02  0.1300439E+00
        -11   -1    0    0    0    0  0.00000000000E+00  0.00000000000E+00  0.45593999997E+02  0.45594000000E+02  0.51100000000E-03 0. -1.
         11   -1    0    0    0    0 -0.00000000000E+00 -0.00000000000E+00 -0.45593999997E+02  0.45594000000E+02  0.51100000000E-03 0.  1.
    9900012    2    1    2    0    0  0.14261787496E+02 -0.25056843876E+02 -0.28669175827E+02  0.50528860188E+02  0.30000001029E+02 0.  0.
         12    1    1    2    0    0 -0.14261787496E+02  0.25056843876E+02  0.28669175827E+02  0.40659139812E+02  0.00000000000E+00 0. -1.
         11    1    3    3    0    0  0.95366208011E+00 -0.30409276701E+01 -0.75515355576E+01  0.81964871742E+01  0.51100000000E-03 0. -1.
        -11    1    3    3    0    0  0.96402327806E+01 -0.92659145080E+01 -0.25135036222E+02  0.28470358373E+02  0.51100000000E-03 0.  1.
        -12    1    3    3    0    0  0.36678926350E+01 -0.12750001698E+02  0.40173959524E+01  0.13862014642E+02  0.00000000000E+00 0.  1.
</event>
<event>
 7    1  0.4520156E-012  0.5052886E+02  0.7816164E-02  0.1300439E+00
        -11   -1    0    0    0    0  0.00000000000E+00  0.00000000000E+00  0.45593999997E+02  0.45594000000E+02  0.51100000000E-03 0. -1.
         11   -1    0    0    0    0 -0.00000000000E+00 -0.00000000000E+00 -0.45593999997E+02  0.45594000000E+02  0.51100000000E-03 0.  1.
    9900012    2    1    2    0    0 -0.22871306704E+02  0.12235489163E+01 -0.33594219315E+02  0.50528864327E+02  0.30000013609E+02 0.  0.
         12    1    1    2    0    0  0.22871306704E+02 -0.12235489163E+01  0.33594219315E+02  0.40659135673E+02  0.00000000000E+00 0. -1.
         11    1    3    3    0    0 -0.12221608941E+01 -0.10333789265E+02 -0.96336668971E+01  0.14180564727E+02  0.51100000000E-03 0. -1.
        -11    1    3    3    0    0 -0.18323405914E+01 -0.17932749917E+01 -0.57818854218E+01  0.63248325299E+01  0.51100000000E-03 0.  1.
        -12    1    3    3    0    0 -0.19816805218E+02  0.13350613173E+02 -0.18178666996E+02  0.30023467070E+02  0.00000000000E+00 0.  1.
</event>
<event>
 7    1  0.4520156E-012  0.5052886E+02  0.7816164E-02  0.1300439E+00
        -11   -1    0    0    0    0  0.00000000000E+00  0.00000000000E+00  0.45593999997E+02  0.45594000000E+02  0.51100000000E-03 0. -1.
         11   -1    0    0    0    0 -0.00000000000E+00 -0.00000000000E+00 -0.45593999997E+02  0.45594000000E+02  0.51100000000E-03 0.  1.
    9900012    2    1    2    0    0  0.26240237225E+02  0.17158681233E+02 -0.25888122706E+02  0.50528864636E+02  0.30000014548E+02 0.  0.
         12    1    1    2    0    0 -0.26240237225E+02 -0.17158681233E+02  0.25888122706E+02  0.40659135364E+02  0.00000000000E+00 0. -1.
         11    1    3    3    0    0  0.10830905142E+02  0.30007381486E+01 -0.14353767460E+02  0.18230292817E+02  0.51100000000E-03 0. -1.
        -11    1    3    3    0    0  0.57170654676E+01  0.78762120650E+01 -0.16947402176E+02  0.19543131654E+02  0.51100000000E-03 0.  1.
         12    1    3    3    0    0  0.96922666151E+01  0.62817310197E+01  0.54130469302E+01  0.12755440165E+02  0.00000000000E+00 0. -1.
</event>
<event>
 7    1  0.4520156E-012  0.5052887E+02  0.7816164E-02  0.1300439E+00
        -11   -1    0    0    0    0  0.00000000000E+00  0.00000000000E+00  0.45593999997E+02  0.45594000000E+02  0.51100000000E-03 0. -1.
         11   -1    0    0    0    0 -0.00000000000E+00 -0.00000000000E+00 -0.45593999997E+02  0.45594000000E+02  0.51100000000E-03 0.  1.
    9900012    2    1    2    0    0  0.17303540923E+02 -0.21476305769E+02  0.29875083111E+02  0.50528870289E+02  0.30000031731E+02 0.  0.
        -12    1    1    2    0    0 -0.17303540923E+02  0.21476305769E+02 -0.29875083111E+02  0.40659129711E+02  0.00000000000E+00 0.  1.
         11    1    3    3    0    0  0.40126222212E+01 -0.12211055108E+02  0.18948541178E+02  0.22896685720E+02  0.51100000000E-03 0.  1.
        -11    1    3    3    0    0  0.14677383119E+02 -0.13582179233E+02  0.11489644903E+02  0.23063241493E+02  0.51100000000E-03 0. -1.
         12    1    3    3    0    0 -0.13864644163E+01  0.43169285722E+01 -0.56310296990E+00  0.45689430758E+01  0.00000000000E+00 0. -1.
</event>
<event>
 7    1  0.4520156E-012  0.5052886E+02  0.7816164E-02  0.1300439E+00
        -11   -1    0    0    0    0  0.00000000000E+00  0.00000000000E+00  0.45593999997E+02  0.45594000000E+02  0.51100000000E-03 0. -1.
         11   -1    0    0    0    0 -0.00000000000E+00 -0.00000000000E+00 -0.45593999997E+02  0.45594000000E+02  0.51100000000E-03 0.  1.
    9900012    2    1    2    0    0  0.48887763296E+01 -0.25509924941E+01 -0.40283471370E+02  0.50528858810E+02  0.29999996839E+02 0.  0.
         12    1    1    2    0    0 -0.48887763296E+01  0.25509924941E+01  0.40283471370E+02  0.40659141190E+02  0.00000000000E+00 0. -1.
         11    1    3    3    0    0 -0.25486875342E+01  0.59633680889E+01 -0.18247664092E+01  0.67370126777E+01  0.51100000000E-03 0. -1.
        -11    1    3    3    0    0 -0.42684396036E+01 -0.36786536014E+01 -0.35582859202E+01  0.66643430224E+01  0.51100000000E-03 0.  1.
        -12    1    3    3    0    0  0.11705903467E+02 -0.48357069817E+01 -0.34900419040E+02  0.37127503110E+02  0.00000000000E+00 0.  1.
</event>
<event>
 7    1  0.4520156E-012  0.5052884E+02  0.7816164E-02  0.1300439E+00
        -11   -1    0    0    0    0  0.00000000000E+00  0.00000000000E+00  0.45593999997E+02  0.45594000000E+02  0.51100000000E-03 0. -1.
         11   -1    0    0    0    0 -0.00000000000E+00 -0.00000000000E+00 -0.45593999997E+02  0.45594000000E+02  0.51100000000E-03 0.  1.
    9900012    2    1    2    0    0  0.12706297750E+02 -0.10577627841E+02  0.37146079072E+02  0.50528838626E+02  0.29999935488E+02 0.  0.
        -12    1    1    2    0    0 -0.12706297750E+02  0.10577627841E+02 -0.37146079072E+02  0.40659161374E+02  0.00000000000E+00 0.  1.
         11    1    3    3    0    0  0.87868999047E+01 -0.19218733137E+00  0.28380597970E+02  0.29710349835E+02  0.51100000000E-03 0. -1.
        -11    1    3    3    0    0  0.96406485787E+01 -0.54547519526E+01  0.68600388129E+01  0.13029065840E+02  0.51100000000E-03 0.  1.
        -12    1    3    3    0    0 -0.57212507337E+01 -0.49306885568E+01  0.19054422883E+01  0.77894229514E+01  0.00000000000E+00 0.  1.
</event>
<event>
 7    1  0.4520156E-012  0.5052887E+02  0.7816164E-02  0.1300439E+00
        -11   -1    0    0    0    0  0.00000000000E+00  0.00000000000E+00  0.45593999997E+02  0.45594000000E+02  0.51100000000E-03 0. -1.
         11   -1    0    0    0    0 -0.00000000000E+00 -0.00000000000E+00 -0.45593999997E+02  0.45594000000E+02  0.51100000000E-03 0.  1.
    9900012    2    1    2    0    0  0.11687459973E+02  0.35552302616E+01  0.38780520428E+02  0.50528866370E+02  0.30000019819E+02 0.  0.
        -12    1    1    2    0    0 -0.11687459973E+02 -0.35552302616E+01 -0.38780520428E+02  0.40659133630E+02  0.00000000000E+00 0.  1.
         11    1    3    3    0    0  0.73244671200E+00  0.81706141532E+01  0.35912391562E+01  0.89550216506E+01  0.51100000000E-03 0. -1.
        -11    1    3    3    0    0 -0.41340259197E+01 -0.43362608920E+01  0.49254786617E+01  0.77558796494E+01  0.51100000000E-03 0.  1.
        -12    1    3    3    0    0  0.15089039181E+02 -0.27912299956E+00  0.30263802611E+02  0.33817965070E+02  0.00000000000E+00 0.  1.
</event>
<event>
 7    1  0.4520156E-012  0.5052886E+02  0.7816164E-02  0.1300439E+00
        -11   -1    0    0    0    0  0.00000000000E+00  0.00000000000E+00  0.45593999997E+02  0.45594000000E+02  0.51100000000E-03 0.  1.
         11   -1    0    0    0    0 -0.00000000000E+00 -0.00000000000E+00 -0.45593999997E+02  0.45594000000E+02  0.51100000000E-03 0. -1.
    9900012    2    1    2    0    0  0.30117926945E+02  0.21732738945E+02  0.16545810434E+02  0.50528864392E+02  0.30000013806E+02 0.  0.
        -12    1    1    2    0    0 -0.30117926945E+02 -0.21732738945E+02 -0.16545810434E+02  0.40659135608E+02  0.00000000000E+00 0.  1.
         11    1    3    3    0    0  0.13009127212E+02 -0.18604722355E+01  0.59093763248E+01  0.14409006786E+02  0.51100000000E-03 0. -1.
        -11    1    3    3    0    0  0.16565840341E+02  0.14434574232E+02 -0.13228792457E+00  0.21972744476E+02  0.51100000000E-03 0.  1.
         12    1    3    3    0    0  0.54295939111E+00  0.91586369485E+01  0.10768722034E+02  0.14147113129E+02  0.00000000000E+00 0. -1.
</event>
<event>
 7    1  0.4520156E-012  0.5052886E+02  0.7816164E-02  0.1300439E+00
        -11   -1    0    0    0    0  0.00000000000E+00  0.00000000000E+00  0.45593999997E+02  0.45594000000E+02  0.51100000000E-03 0. -1.
         11   -1    0    0    0    0 -0.00000000000E+00 -0.00000000000E+00 -0.45593999997E+02  0.45594000000E+02  0.51100000000E-03 0.  1.
    9900012    2    1    2    0    0  0.23882720893E+02  0.23559665651E+02 -0.22972229186E+02  0.50528861831E+02  0.30000006022E+02 0.  0.
         12    1    1    2    0    0 -0.23882720893E+02 -0.23559665651E+02  0.22972229186E+02  0.40659138169E+02  0.00000000000E+00 0. -1.
         11    1    3    3    0    0  0.20115762792E+02  0.25166252531E+01 -0.48295413075E+01  0.20839908466E+02  0.51100000000E-03 0. -1.
        -11    1    3    3    0    0 -0.14180817895E+01  0.67345124842E+01 -0.13271575323E+01  0.70089914923E+01  0.51100000000E-03 0.  1.
        -12    1    3    3    0    0  0.51850398903E+01  0.14308527914E+02 -0.16815530346E+02  0.22679961873E+02  0.00000000000E+00 0.  1.
</event>
<event>
 7    1  0.4520156E-012  0.5052886E+02  0.7816164E-02  0.1300439E+00
        -11   -1    0    0    0    0  0.00000000000E+00  0.00000000000E+00  0.45593999997E+02  0.45594000000E+02  0.51100000000E-03 0. -1.
         11   -1    0    0    0    0 -0.00000000000E+00 -0.00000000000E+00 -0.45593999997E+02  0.45594000000E+02  0.51100000000E-03 0.  1.
    9900012    2    1    2    0    0  0.21954489064E+02 -0.24109780908E+02  0.24287538737E+02  0.50528860026E+02  0.30000000536E+02 0.  0.
        -12    1    1    2    0    0 -0.21954489064E+02  0.24109780908E+02 -0.24287538737E+02  0.40659139974E+02  0.00000000000E+00 0.  1.
         11    1    3    3    0    0  0.18156281947E+02 -0.34469191279E+01  0.10182581341E+02  0.21100160868E+02  0.51100000000E-03 0. -1.
        -11    1    3    3    0    0 -0.84807943160E+00 -0.60919788221E+01 -0.26904448009E+01  0.67134147927E+01  0.51100000000E-03 0.  1.
         12    1    3    3    0    0  0.46462865486E+01 -0.14570882958E+02  0.16795402198E+02  0.22715284366E+02  0.00000000000E+00 0. -1.
</event>
<event>
 7    1  0.4520156E-012  0.5052886E+02  0.7816164E-02  0.1300439E+00
        -11   -1    0    0    0    0  0.00000000000E+00  0.00000000000E+00  0.45593999997E+02  0.45594000000E+02  0.51100000000E-03 0. -1.
         11   -1    0    0    0    0 -0.00000000000E+00 -0.00000000000E+00 -0.45593999997E+02  0.45594000000E+02  0.51100000000E-03 0.  1.
    9900012    2    1    2    0    0  0.12833141053E+02  0.19771320625E+02  0.33129611793E+02  0.50528858271E+02  0.29999995201E+02 0.  0.
        -12    1    1    2    0    0 -0.12833141053E+02 -0.19771320625E+02 -0.33129611793E+02  0.40659141729E+02  0.00000000000E+00 0.  1.
         11    1    3    3    0    0  0.17963153343E+02  0.10302667756E+02  0.15624064405E+02  0.25940918058E+02  0.51100000000E-03 0. -1.
        -11    1    3    3    0    0  0.30833693133E+01 -0.36367838781E+00  0.27566806695E+00  0.31169570797E+01  0.51100000000E-03 0.  1.
         12    1    3    3    0    0 -0.82133816028E+01  0.98323312573E+01  0.17229879321E+02  0.21470983133E+02  0.00000000000E+00 0. -1.
</event>
<event>
 7    1  0.4520156E-012  0.5052887E+02  0.7816164E-02  0.1300439E+00
        -11   -1    0    0    0    0  0.00000000000E+00  0.00000000000E+00  0.45593999997E+02  0.45594000000E+02  0.51100000000E-03 0. -1.
         11   -1    0    0    0    0 -0.00000000000E+00 -0.00000000000E+00 -0.45593999997E+02  0.45594000000E+02  0.51100000000E-03 0.  1.
    9900012    2    1    2    0    0  0.27704679978E+02 -0.12716459376E+02 -0.26905526998E+02  0.50528868002E+02  0.30000024780E+02 0.  0.
         12    1    1    2    0    0 -0.27704679978E+02  0.12716459376E+02  0.26905526998E+02  0.40659131998E+02  0.00000000000E+00 0. -1.
         11    1    3    3    0    0 -0.24087823630E+01  0.94656246674E-01 -0.60928303207E+01  0.65523868823E+01  0.51100000000E-03 0. -1.
        -11    1    3    3    0    0  0.85353035566E+01 -0.44951813681E+01 -0.18336439916E+02  0.20719147941E+02  0.51100000000E-03 0.  1.
         12    1    3    3    0    0  0.21578158784E+02 -0.83159342551E+01 -0.24762567612E+01  0.23257333179E+02  0.00000000000E+00 0. -1.
</event>
<event>
 7    1  0.4520156E-012  0.5052889E+02  0.7816164E-02  0.1300439E+00
        -11   -1    0    0    0    0  0.00000000000E+00  0.00000000000E+00  0.45593999997E+02  0.45594000000E+02  0.51100000000E-03 0. -1.
         11   -1    0    0    0    0 -0.00000000000E+00 -0.00000000000E+00 -0.45593999997E+02  0.45594000000E+02  0.51100000000E-03 0.  1.
    9900012    2    1    2    0    0  0.11292786477E+02 -0.21448453925E+02  0.32643526720E+02  0.50528892301E+02  0.30000098637E+02 0.  0.
        -12    1    1    2    0    0 -0.11292786477E+02  0.21448453925E+02 -0.32643526720E+02  0.40659107699E+02  0.00000000000E+00 0.  1.
         11    1    3    3    0    0  0.37945754738E+01 -0.21119939651E+01  0.23261383112E+02  0.23663289418E+02  0.51100000000E-03 0. -1.
        -11    1    3    3    0    0  0.60755834432E+00  0.12940852741E+01  0.42964919352E+01  0.45280930918E+01  0.51100000000E-03 0.  1.
        -12    1    3    3    0    0  0.68906526586E+01 -0.20630545235E+02  0.50856516726E+01  0.22337509791E+02  0.00000000000E+00 0.  1.
</event>
<event>
 7    1  0.4520156E-012  0.5052886E+02  0.7816164E-02  0.1300439E+00
        -11   -1    0    0    0    0  0.00000000000E+00  0.00000000000E+00  0.45593999997E+02  0.45594000000E+02  0.51100000000E-03 0. -1.
         11   -1    0    0    0    0 -0.00000000000E+00 -0.00000000000E+00 -0.45593999997E+02  0.45594000000E+02  0.51100000000E-03 0.  1.
    9900012    2    1    2    0    0  0.47325180736E+01 -0.35288795343E+02  0.19633383417E+02  0.50528861439E+02  0.30000004831E+02 0.  0.
        -12    1    1    2    0    0 -0.47325180736E+01  0.35288795343E+02 -0.19633383417E+02  0.40659138561E+02  0.00000000000E+00 0.  1.
         11    1    3    3    0    0 -0.43594103570E+01 -0.19339679425E+02  0.96706024128E+01  0.22057837841E+02  0.51100000000E-03 0.  1.
        -11    1    3    3    0    0  0.28251159612E+01 -0.42474649690E+01  0.13751210125E+02  0.14666902161E+02  0.51100000000E-03 0. -1.
        -12    1    3    3    0    0  0.62668124694E+01 -0.11701650948E+02 -0.37884291202E+01  0.13804121437E+02  0.00000000000E+00 0.  1.
</event>
<event>
 7    1  0.4520156E-012  0.5052889E+02  0.7816164E-02  0.1300439E+00
        -11   -1    0    0    0    0  0.00000000000E+00  0.00000000000E+00  0.45593999997E+02  0.45594000000E+02  0.51100000000E-03 0. -1.
         11   -1    0    0    0    0 -0.00000000000E+00 -0.00000000000E+00 -0.45593999997E+02  0.45594000000E+02  0.51100000000E-03 0.  1.
    9900012    2    1    2    0    0 -0.14589631733E+02 -0.17883748833E+02  0.33473535272E+02  0.50528887982E+02  0.30000085511E+02 0.  0.
        -12    1    1    2    0    0  0.14589631733E+02  0.17883748833E+02 -0.33473535272E+02  0.40659112018E+02  0.00000000000E+00 0.  1.
         11    1    3    3    0    0 -0.32208534268E+01 -0.29117816843E+01  0.17540494296E+02  0.18069900658E+02  0.51100000000E-03 0. -1.
        -11    1    3    3    0    0 -0.27575460340E+01 -0.94894730367E+01  0.19322317169E+02  0.21702674943E+02  0.51100000000E-03 0.  1.
        -12    1    3    3    0    0 -0.86112322725E+01 -0.54824941118E+01 -0.33892761927E+01  0.10756312381E+02  0.00000000000E+00 0.  1.
</event>
<event>
 7    1  0.4520156E-012  0.5052885E+02  0.7816164E-02  0.1300439E+00
        -11   -1    0    0    0    0  0.00000000000E+00  0.00000000000E+00  0.45593999997E+02  0.45594000000E+02  0.51100000000E-03 0. -1.
         11   -1    0    0    0    0 -0.00000000000E+00 -0.00000000000E+00 -0.45593999997E+02  0.45594000000E+02  0.51100000000E-03 0.  1.
    9900012    2    1    2    0    0 -0.27461674570E+02  0.50826209019E+01 -0.29549779907E+02  0.50528854682E+02  0.29999984292E+02 0.  0.
         12    1    1    2    0    0  0.27461674570E+02 -0.50826209019E+01  0.29549779907E+02  0.40659145318E+02  0.00000000000E+00 0. -1.
         11    1    3    3    0    0  0.32730881922E+01 -0.98528560511E-01 -0.47955606132E+01  0.58069110590E+01  0.51100000000E-03 0. -1.
        -11    1    3    3    0    0 -0.26662750229E+02 -0.13293240674E+01 -0.10806722701E+02  0.28800253611E+02  0.51100000000E-03 0.  1.
         12    1    3    3    0    0 -0.40720125339E+01  0.65104735297E+01 -0.13947496592E+02  0.15921690013E+02  0.00000000000E+00 0. -1.
</event>
<event>
 7    1  0.4520156E-012  0.5052886E+02  0.7816164E-02  0.1300439E+00
        -11   -1    0    0    0    0  0.00000000000E+00  0.00000000000E+00  0.45593999997E+02  0.45594000000E+02  0.51100000000E-03 0.  1.
         11   -1    0    0    0    0 -0.00000000000E+00 -0.00000000000E+00 -0.45593999997E+02  0.45594000000E+02  0.51100000000E-03 0. -1.
    9900012    2    1    2    0    0 -0.24333348221E+02 -0.25261619176E+02  0.20564637680E+02  0.50528861274E+02  0.30000004328E+02 0.  0.
        -12    1    1    2    0    0  0.24333348221E+02  0.25261619176E+02 -0.20564637680E+02  0.40659138726E+02  0.00000000000E+00 0.  1.
         11    1    3    3    0    0 -0.20983465553E+02 -0.15217879407E+02  0.16632511567E+02  0.30798216208E+02  0.51100000000E-03 0. -1.
        -11    1    3    3    0    0 -0.59039293981E+01 -0.45326509402E+01  0.90994496264E+01  0.11755904501E+02  0.51100000000E-03 0.  1.
        -12    1    3    3    0    0  0.25540467302E+01 -0.55110888284E+01 -0.51673235139E+01  0.79747405645E+01  0.00000000000E+00 0.  1.
</event>
<event>
 7    1  0.4520156E-012  0.5052884E+02  0.7816164E-02  0.1300439E+00
        -11   -1    0    0    0    0  0.00000000000E+00  0.00000000000E+00  0.45593999997E+02  0.45594000000E+02  0.51100000000E-03 0. -1.
         11   -1    0    0    0    0 -0.00000000000E+00 -0.00000000000E+00 -0.45593999997E+02  0.45594000000E+02  0.51100000000E-03 0.  1.
    9900012    2    1    2    0    0  0.56851011712E+01  0.10256745226E+01  0.40246676569E+02  0.50528839182E+02  0.29999937178E+02 0.  0.
        -12    1    1    2    0    0 -0.56851011712E+01 -0.10256745226E+01 -0.40246676569E+02  0.40659160818E+02  0.00000000000E+00 0.  1.
         11    1    3    3    0    0 -0.33310450001E+00  0.12875201255E+01  0.28073989175E+01  0.31064699620E+01  0.51100000000E-03 0. -1.
        -11    1    3    3    0    0  0.51223150528E+01 -0.12115160598E+02  0.31495996119E+02  0.34132286762E+02  0.51100000000E-03 0.  1.
        -12    1    3    3    0    0  0.89589061843E+00  0.11853314995E+02  0.59432815329E+01  0.13290082459E+02  0.00000000000E+00 0.  1.
</event>
<event>
 7    1  0.4520156E-012  0.5052885E+02  0.7816164E-02  0.1300439E+00
        -11   -1    0    0    0    0  0.00000000000E+00  0.00000000000E+00  0.45593999997E+02  0.45594000000E+02  0.51100000000E-03 0. -1.
         11   -1    0    0    0    0 -0.00000000000E+00 -0.00000000000E+00 -0.45593999997E+02  0.45594000000E+02  0.51100000000E-03 0.  1.
    9900012    2    1    2    0    0  0.60753936260E+01 -0.30073866700E+02 -0.26679922767E+02  0.50528854106E+02  0.29999982540E+02 0.  0.
         12    1    1    2    0    0 -0.60753936260E+01  0.30073866700E+02  0.26679922767E+02  0.40659145894E+02  0.00000000000E+00 0. -1.
         11    1    3    3    0    0 -0.39051183208E+01 -0.60418462636E+01 -0.79243193023E+00  0.72375274782E+01  0.51100000000E-03 0.  1.
        -11    1    3    3    0    0  0.92829422623E+01 -0.28427746680E+02 -0.20283222778E+02  0.36134732944E+02  0.51100000000E-03 0. -1.
         12    1    3    3    0    0  0.69756968454E+00  0.43957262445E+01 -0.56042680589E+01  0.71565936840E+01  0.00000000000E+00 0. -1.
</event>
<event>
 7    1  0.4520156E-012  0.5052886E+02  0.7816164E-02  0.1300439E+00
        -11   -1    0    0    0    0  0.00000000000E+00  0.00000000000E+00  0.45593999997E+02  0.45594000000E+02  0.51100000000E-03 0. -1.
         11   -1    0    0    0    0 -0.00000000000E+00 -0.00000000000E+00 -0.45593999997E+02  0.45594000000E+02  0.51100000000E-03 0.  1.
    9900012    2    1    2    0    0  0.15486038351E+02  0.10132686673E+02 -0.36203268865E+02  0.50528863271E+02  0.30000010398E+02 0.  0.
         12    1    1    2    0    0 -0.15486038351E+02 -0.10132686673E+02  0.36203268865E+02  0.40659136729E+02  0.00000000000E+00 0. -1.
         11    1    3    3    0    0  0.68202445388E+01 -0.22719889598E+01  0.29677069517E+00  0.71948413818E+01  0.51100000000E-03 0. -1.
        -11    1    3    3    0    0 -0.22028187076E+01 -0.30758422260E-01  0.95365645949E+00  0.24005868538E+01  0.51100000000E-03 0.  1.
        -12    1    3    3    0    0  0.10868612520E+02  0.12435434055E+02 -0.37453696020E+02  0.40933435035E+02  0.00000000000E+00 0.  1.
</event>
<event>
 7    1  0.4520156E-012  0.5052886E+02  0.7816164E-02  0.1300439E+00
        -11   -1    0    0    0    0  0.00000000000E+00  0.00000000000E+00  0.45593999997E+02  0.45594000000E+02  0.51100000000E-03 0. -1.
         11   -1    0    0    0    0 -0.00000000000E+00 -0.00000000000E+00 -0.45593999997E+02  0.45594000000E+02  0.51100000000E-03 0.  1.
    9900012    2    1    2    0    0  0.35304022959E+00 -0.38676017098E+02  0.12538216433E+02  0.50528858257E+02  0.29999995157E+02 0.  0.
        -12    1    1    2    0    0 -0.35304022959E+00  0.38676017098E+02 -0.12538216433E+02  0.40659141743E+02  0.00000000000E+00 0.  1.
         11    1    3    3    0    0 -0.27553478017E+01 -0.20717203236E+01  0.58370053013E+01  0.67789820590E+01  0.51100000000E-03 0. -1.
        -11    1    3    3    0    0  0.58995084088E+01 -0.11898581720E+02  0.12479782785E+02  0.18224308630E+02  0.51100000000E-03 0.  1.
         12    1    3    3    0    0 -0.27911203776E+01 -0.24705715054E+02 -0.57785716536E+01  0.25525567568E+02  0.00000000000E+00 0. -1.
</event>
<event>
 7    1  0.4520156E-012  0.5052886E+02  0.7816164E-02  0.1300439E+00
        -11   -1    0    0    0    0  0.00000000000E+00  0.00000000000E+00  0.45593999997E+02  0.45594000000E+02  0.51100000000E-03 0.  1.
         11   -1    0    0    0    0 -0.00000000000E+00 -0.00000000000E+00 -0.45593999997E+02  0.45594000000E+02  0.51100000000E-03 0. -1.
    9900012    2    1    2    0    0  0.26166172958E+02 -0.29396796048E+02 -0.10213991403E+02  0.50528857786E+02  0.29999993726E+02 0.  0.
         12    1    1    2    0    0 -0.26166172958E+02  0.29396796048E+02  0.10213991403E+02  0.40659142214E+02  0.00000000000E+00 0. -1.
         11    1    3    3    0    0  0.20106118115E+02 -0.14590934444E+02  0.35893341139E+01  0.25100491494E+02  0.51100000000E-03 0. -1.
        -11    1    3    3    0    0  0.11960413025E+01  0.32248704936E+00  0.24201450743E+01  0.27187524963E+01  0.51100000000E-03 0.  1.
         12    1    3    3    0    0  0.48640135404E+01 -0.15128348654E+02 -0.16223470591E+02  0.22709613795E+02  0.00000000000E+00 0. -1.
</event>
<event>
 7    1  0.7353292E-012  0.5052885E+02  0.7816164E-02  0.1300439E+00
        -11   -1    0    0    0    0  0.00000000000E+00  0.00000000000E+00  0.45593999997E+02  0.45594000000E+02  0.51100000000E-03 0. -1.
         11   -1    0    0    0    0 -0.00000000000E+00 -0.00000000000E+00 -0.45593999997E+02  0.45594000000E+02  0.51100000000E-03 0.  1.
    9900012    2    1    2    0    0  0.77021559010E+01  0.24645064031E+02  0.31408020408E+02  0.50528854257E+02  0.29999983000E+02 0.  0.
        -12    1    1    2    0    0 -0.77021559010E+01 -0.24645064031E+02 -0.31408020408E+02  0.40659145743E+02  0.00000000000E+00 0.  1.
         11    1    3    3    0    0 -0.70502781937E+00  0.93380717211E+01  0.19254627718E+01  0.95605467856E+01  0.51100000000E-03 0. -1.
        -11    1    3    3    0    0  0.21733547775E+01  0.16709904867E+01 -0.36712092403E+01  0.45818618205E+01  0.51100000000E-03 0.  1.
         12    1    3    3    0    0  0.62338289428E+01  0.13636001823E+02  0.33153766876E+02  0.36386445651E+02  0.00000000000E+00 0. -1.
</event>
<event>
 7    1  0.4520156E-012  0.5052886E+02  0.7816164E-02  0.1300439E+00
        -11   -1    0    0    0    0  0.00000000000E+00  0.00000000000E+00  0.45593999997E+02  0.45594000000E+02  0.51100000000E-03 0. -1.
         11   -1    0    0    0    0 -0.00000000000E+00 -0.00000000000E+00 -0.45593999997E+02  0.45594000000E+02  0.51100000000E-03 0.  1.
    9900012    2    1    2    0    0  0.22402888277E+02 -0.21921798866E+01 -0.33859576930E+02  0.50528855817E+02  0.29999987741E+02 0.  0.
         12    1    1    2    0    0 -0.22402888277E+02  0.21921798866E+01  0.33859576930E+02  0.40659144183E+02  0.00000000000E+00 0. -1.
         11    1    3    3    0    0 -0.27946931572E+00 -0.56520242192E+01 -0.17424477058E+02  0.18320367951E+02  0.51100000000E-03 0. -1.
        -11    1    3    3    0    0  0.98474162101E+01 -0.53449379154E+01 -0.28799402134E+01  0.11568665577E+02  0.51100000000E-03 0.  1.
        -12    1    3    3    0    0  0.12834941383E+02  0.88047822480E+01 -0.13555159659E+02  0.20639822289E+02  0.00000000000E+00 0.  1.
</event>
<event>
 7    1  0.4520156E-012  0.5052886E+02  0.7816164E-02  0.1300439E+00
        -11   -1    0    0    0    0  0.00000000000E+00  0.00000000000E+00  0.45593999997E+02  0.45594000000E+02  0.51100000000E-03 0. -1.
         11   -1    0    0    0    0 -0.00000000000E+00 -0.00000000000E+00 -0.45593999997E+02  0.45594000000E+02  0.51100000000E-03 0.  1.
    9900012    2    1    2    0    0  0.27133492114E+02 -0.36655477883E+01 -0.30058321542E+02  0.50528864141E+02  0.30000013043E+02 0.  0.
         12    1    1    2    0    0 -0.27133492114E+02  0.36655477883E+01  0.30058321542E+02  0.40659135859E+02  0.00000000000E+00 0. -1.
         11    1    3    3    0    0 -0.28507953115E+01  0.56480771064E+00 -0.96466487181E-01  0.29078080581E+01  0.51100000000E-03 0. -1.
        -11    1    3    3    0    0  0.22442549724E+02 -0.10282302773E+01 -0.32074292496E+02  0.39159743807E+02  0.51100000000E-03 0.  1.
         12    1    3    3    0    0  0.75417377014E+01 -0.32021252216E+01  0.21124374412E+01  0.84613122762E+01  0.00000000000E+00 0. -1.
</event>
<event>
 7    1  0.4520156E-012  0.5052885E+02  0.7816164E-02  0.1300439E+00
        -11   -1    0    0    0    0  0.00000000000E+00  0.00000000000E+00  0.45593999997E+02  0.45594000000E+02  0.51100000000E-03 0. -1.
         11   -1    0    0    0    0 -0.00000000000E+00 -0.00000000000E+00 -0.45593999997E+02  0.45594000000E+02  0.51100000000E-03 0.  1.
    9900012    2    1    2    0    0  0.18471770780E+02  0.61452406847E+01 -0.35695881340E+02  0.50528852893E+02  0.29999978855E+02 0.  0.
         12    1    1    2    0    0 -0.18471770780E+02 -0.61452406847E+01  0.35695881340E+02  0.40659147107E+02  0.00000000000E+00 0. -1.
         11    1    3    3    0    0  0.71587203582E-01  0.39290592894E+01 -0.45921471155E+01  0.60440422747E+01  0.51100000000E-03 0. -1.
        -11    1    3    3    0    0 -0.37330808302E+01  0.42144504294E+01  0.71328320732E+00  0.56750557796E+01  0.51100000000E-03 0.  1.
        -12    1    3    3    0    0  0.22133264406E+02 -0.19982690341E+01 -0.31817017432E+02  0.38809754839E+02  0.00000000000E+00 0.  1.
</event>
<event>
 7    1  0.4520156E-012  0.5052886E+02  0.7816164E-02  0.1300439E+00
        -11   -1    0    0    0    0  0.00000000000E+00  0.00000000000E+00  0.45593999997E+02  0.45594000000E+02  0.51100000000E-03 0. -1.
         11   -1    0    0    0    0 -0.00000000000E+00 -0.00000000000E+00 -0.45593999997E+02  0.45594000000E+02  0.51100000000E-03 0.  1.
    9900012    2    1    2    0    0  0.92493047707E+01  0.10723557101E+01  0.39578604745E+02  0.50528861555E+02  0.30000005182E+02 0.  0.
        -12    1    1    2    0    0 -0.92493047707E+01 -0.10723557101E+01 -0.39578604745E+02  0.40659138445E+02  0.00000000000E+00 0.  1.
         11    1    3    3    0    0 -0.36144781622E+01  0.79799431580E+01  0.11591757243E+02  0.14529720624E+02  0.51100000000E-03 0. -1.
        -11    1    3    3    0    0 -0.13989831926E+01  0.63446440781E+00  0.15555949777E+02  0.15631611330E+02  0.51100000000E-03 0.  1.
        -12    1    3    3    0    0  0.14262766126E+02 -0.75420518557E+01  0.12430897726E+02  0.20367529600E+02  0.00000000000E+00 0.  1.
</event>
<event>
 7    1  0.4520156E-012  0.5052887E+02  0.7816164E-02  0.1300439E+00
        -11   -1    0    0    0    0  0.00000000000E+00  0.00000000000E+00  0.45593999997E+02  0.45594000000E+02  0.51100000000E-03 0. -1.
         11   -1    0    0    0    0 -0.00000000000E+00 -0.00000000000E+00 -0.45593999997E+02  0.45594000000E+02  0.51100000000E-03 0.  1.
    9900012    2    1    2    0    0 -0.62865705445E+01 -0.97400212052E+01 -0.38971470944E+02  0.50528873966E+02  0.30000042907E+02 0.  0.
         12    1    1    2    0    0  0.62865705445E+01  0.97400212052E+01  0.38971470944E+02  0.40659126034E+02  0.00000000000E+00 0. -1.
         11    1    3    3    0    0  0.82846554945E+01 -0.42101056779E+01 -0.18890686994E+02  0.21052756633E+02  0.51100000000E-03 0. -1.
        -11    1    3    3    0    0 -0.46110760301E+01 -0.96842190619E+01 -0.89106231458E+01  0.13944365389E+02  0.51100000000E-03 0.  1.
         12    1    3    3    0    0 -0.99601500088E+01  0.41543035346E+01 -0.11170160804E+02  0.15531751944E+02  0.00000000000E+00 0. -1.
</event>
<event>
 7    1  0.4675289E-012  0.5052889E+02  0.7816164E-02  0.1300439E+00
        -11   -1    0    0    0    0  0.00000000000E+00  0.00000000000E+00  0.45593999997E+02  0.45594000000E+02  0.51100000000E-03 0. -1.
         11   -1    0    0    0    0 -0.00000000000E+00 -0.00000000000E+00 -0.45593999997E+02  0.45594000000E+02  0.51100000000E-03 0.  1.
    9900012    2    1    2    0    0  0.16878248814E+02 -0.16672376314E+02  0.33019997060E+02  0.50528885145E+02  0.30000076887E+02 0.  0.
        -12    1    1    2    0    0 -0.16878248814E+02  0.16672376314E+02 -0.33019997060E+02  0.40659114855E+02  0.00000000000E+00 0.  1.
         11    1    3    3    0    0  0.82399268057E+00  0.30934924783E+01  0.65821597554E+01  0.73193911603E+01  0.51100000000E-03 0. -1.
        -11    1    3    3    0    0 -0.22104133875E+01 -0.10793494861E+02  0.16527490645E+01  0.11140782665E+02  0.51100000000E-03 0.  1.
         12    1    3    3    0    0  0.18264669521E+02 -0.89723739314E+01  0.24785088240E+02  0.32068711320E+02  0.00000000000E+00 0. -1.
</event>
<event>
 7    1  0.4520156E-012  0.5052887E+02  0.7816164E-02  0.1300439E+00
        -11   -1    0    0    0    0  0.00000000000E+00  0.00000000000E+00  0.45593999997E+02  0.45594000000E+02  0.51100000000E-03 0. -1.
         11   -1    0    0    0    0 -0.00000000000E+00 -0.00000000000E+00 -0.45593999997E+02  0.45594000000E+02  0.51100000000E-03 0.  1.
    9900012    2    1    2    0    0  0.94756323079E+01  0.48077516713E+01  0.39246183356E+02  0.50528868286E+02  0.30000025642E+02 0.  0.
        -12    1    1    2    0    0 -0.94756323079E+01 -0.48077516713E+01 -0.39246183356E+02  0.40659131714E+02  0.00000000000E+00 0.  1.
         11    1    3    3    0    0  0.51370138846E+01  0.40851445639E+01  0.39944753166E+02  0.40480373313E+02  0.51100000000E-03 0. -1.
        -11    1    3    3    0    0  0.29119106039E+01  0.46330520515E+01  0.98182576420E+00  0.55595302652E+01  0.51100000000E-03 0.  1.
        -12    1    3    3    0    0  0.14267078194E+01 -0.39104449441E+01 -0.16803955748E+01  0.44889647081E+01  0.00000000000E+00 0.  1.
</event>
<event>
 7    1  0.4520156E-012  0.5052886E+02  0.7816164E-02  0.1300439E+00
        -11   -1    0    0    0    0  0.00000000000E+00  0.00000000000E+00  0.45593999997E+02  0.45594000000E+02  0.51100000000E-03 0. -1.
         11   -1    0    0    0    0 -0.00000000000E+00 -0.00000000000E+00 -0.45593999997E+02  0.45594000000E+02  0.51100000000E-03 0.  1.
    9900012    2    1    2    0    0  0.14091287924E+01  0.35408588925E+01 -0.40480146762E+02  0.50528860713E+02  0.30000002625E+02 0.  0.
         12    1    1    2    0    0 -0.14091287924E+01 -0.35408588925E+01  0.40480146762E+02  0.40659139287E+02  0.00000000000E+00 0. -1.
         11    1    3    3    0    0  0.11883588938E+00  0.29584823409E+01  0.69603499071E+00  0.30415793101E+01  0.51100000000E-03 0. -1.
        -11    1    3    3    0    0 -0.20144540822E+01  0.87708817612E+01 -0.50953161752E+01  0.10341597522E+02  0.51100000000E-03 0.  1.
        -12    1    3    3    0    0  0.33047469853E+01 -0.81885052097E+01 -0.36080865577E+02  0.37145683882E+02  0.00000000000E+00 0.  1.
</event>
<event>
 7    1  0.4520156E-012  0.5052884E+02  0.7816164E-02  0.1300439E+00
        -11   -1    0    0    0    0  0.00000000000E+00  0.00000000000E+00  0.45593999997E+02  0.45594000000E+02  0.51100000000E-03 0. -1.
         11   -1    0    0    0    0 -0.00000000000E+00 -0.00000000000E+00 -0.45593999997E+02  0.45594000000E+02  0.51100000000E-03 0.  1.
    9900012    2    1    2    0    0  0.19271973354E+02  0.19643410375E+02 -0.29931499477E+02  0.50528841264E+02  0.29999943507E+02 0.  0.
         12    1    1    2    0    0 -0.19271973354E+02 -0.19643410375E+02  0.29931499477E+02  0.40659158736E+02  0.00000000000E+00 0. -1.
         11    1    3    3    0    0  0.13086986292E+02  0.44949127064E+01 -0.17661038926E+01  0.13949644212E+02  0.51100000000E-03 0. -1.
        -11    1    3    3    0    0  0.97387570057E+01  0.16042916539E+02 -0.18989911077E+02  0.26698975299E+02  0.51100000000E-03 0.  1.
         12    1    3    3    0    0 -0.35537699428E+01 -0.89441887007E+00 -0.91754845081E+01  0.98802217525E+01  0.00000000000E+00 0. -1.
</event>
<event>
 7    1  0.4520156E-012  0.5052886E+02  0.7816164E-02  0.1300439E+00
        -11   -1    0    0    0    0  0.00000000000E+00  0.00000000000E+00  0.45593999997E+02  0.45594000000E+02  0.51100000000E-03 0. -1.
         11   -1    0    0    0    0 -0.00000000000E+00 -0.00000000000E+00 -0.45593999997E+02  0.45594000000E+02  0.51100000000E-03 0.  1.
    9900012    2    1    2    0    0  0.67803474371E+00 -0.25314936466E+02 -0.31809747938E+02  0.50528858307E+02  0.29999995309E+02 0.  0.
         12    1    1    2    0    0 -0.67803474371E+00  0.25314936466E+02  0.31809747938E+02  0.40659141693E+02  0.00000000000E+00 0. -1.
         11    1    3    3    0    0 -0.60690529759E+01 -0.85836067923E+01 -0.21194936963E+00  0.10514591404E+02  0.51100000000E-03 0. -1.
        -11    1    3    3    0    0 -0.53502716587E+01 -0.67100001192E+01 -0.84849355342E+01  0.12068290670E+02  0.51100000000E-03 0.  1.
        -12    1    3    3    0    0  0.12097359378E+02 -0.10021329554E+02 -0.23112863034E+02  0.27945976233E+02  0.00000000000E+00 0.  1.
</event>
<event>
 7    1  0.4520156E-012  0.5052886E+02  0.7816164E-02  0.1300439E+00
        -11   -1    0    0    0    0  0.00000000000E+00  0.00000000000E+00  0.45593999997E+02  0.45594000000E+02  0.51100000000E-03 0. -1.
         11   -1    0    0    0    0 -0.00000000000E+00 -0.00000000000E+00 -0.45593999997E+02  0.45594000000E+02  0.51100000000E-03 0.  1.
    9900012    2    1    2    0    0 -0.24939539316E+02  0.53383323424E+01 -0.31665238904E+02  0.50528858736E+02  0.29999996613E+02 0.  0.
         12    1    1    2    0    0  0.24939539316E+02 -0.53383323424E+01  0.31665238904E+02  0.40659141264E+02  0.00000000000E+00 0. -1.
         11    1    3    3    0    0 -0.50511505115E+01  0.90904110284E+01 -0.40828349938E+01  0.11172252951E+02  0.51100000000E-03 0. -1.
        -11    1    3    3    0    0 -0.14727376445E+02  0.48851876016E+01 -0.82759098845E+01  0.17585544050E+02  0.51100000000E-03 0.  1.
         12    1    3    3    0    0 -0.51610123596E+01 -0.86372662876E+01 -0.19306494026E+02  0.21771061735E+02  0.00000000000E+00 0. -1.
</event>
<event>
 7    1  0.4520156E-012  0.5052886E+02  0.7816164E-02  0.1300439E+00
        -11   -1    0    0    0    0  0.00000000000E+00  0.00000000000E+00  0.45593999997E+02  0.45594000000E+02  0.51100000000E-03 0. -1.
         11   -1    0    0    0    0 -0.00000000000E+00 -0.00000000000E+00 -0.45593999997E+02  0.45594000000E+02  0.51100000000E-03 0.  1.
    9900012    2    1    2    0    0 -0.83074665674E+01 -0.20663898054E+01  0.39747722643E+02  0.50528862984E+02  0.30000009525E+02 0.  0.
        -12    1    1    2    0    0  0.83074665674E+01  0.20663898054E+01 -0.39747722643E+02  0.40659137016E+02  0.00000000000E+00 0.  1.
         11    1    3    3    0    0 -0.36345187031E+01 -0.79923085274E+00  0.13909732765E+01  0.39728205441E+01  0.51100000000E-03 0. -1.
        -11    1    3    3    0    0  0.98776185766E+00 -0.12927847724E+02  0.14860322649E+02  0.19721412469E+02  0.51100000000E-03 0.  1.
         12    1    3    3    0    0 -0.56607097220E+01  0.11660688771E+02  0.23496426717E+02  0.26834629971E+02  0.00000000000E+00 0. -1.
</event>
<event>
 7    1  0.4520156E-012  0.5052884E+02  0.7816164E-02  0.1300439E+00
        -11   -1    0    0    0    0  0.00000000000E+00  0.00000000000E+00  0.45593999997E+02  0.45594000000E+02  0.51100000000E-03 0.  1.
         11   -1    0    0    0    0 -0.00000000000E+00 -0.00000000000E+00 -0.45593999997E+02  0.45594000000E+02  0.51100000000E-03 0. -1.
    9900012    2    1    2    0    0 -0.14074691647E+02 -0.31665282121E+02 -0.21269241251E+02  0.50528835472E+02  0.29999925900E+02 0.  0.
         12    1    1    2    0    0  0.14074691647E+02  0.31665282121E+02  0.21269241251E+02  0.40659164528E+02  0.00000000000E+00 0. -1.
         11    1    3    3    0    0  0.63057195494E+00 -0.11312484610E+02 -0.15065773780E+01  0.11429772732E+02  0.51100000000E-03 0. -1.
        -11    1    3    3    0    0  0.22003261949E+01 -0.66318018404E+01  0.29961563217E+01  0.76025774563E+01  0.51100000000E-03 0.  1.
        -12    1    3    3    0    0 -0.16905589797E+02 -0.13720995670E+02 -0.22758820195E+02  0.31496485284E+02  0.00000000000E+00 0.  1.
</event>
<event>
 7    1  0.4573748E-012  0.5052886E+02  0.7816164E-02  0.1300439E+00
        -11   -1    0    0    0    0  0.00000000000E+00  0.00000000000E+00  0.45593999997E+02  0.45594000000E+02  0.51100000000E-03 0. -1.
         11   -1    0    0    0    0 -0.00000000000E+00 -0.00000000000E+00 -0.45593999997E+02  0.45594000000E+02  0.51100000000E-03 0.  1.
    9900012    2    1    2    0    0 -0.40883345874E+01 -0.33427028141E+02  0.22783434471E+02  0.50528861097E+02  0.30000003790E+02 0.  0.
        -12    1    1    2    0    0  0.40883345874E+01  0.33427028141E+02 -0.22783434471E+02  0.40659138903E+02  0.00000000000E+00 0.  1.
         11    1    3    3    0    0  0.62001487003E+01 -0.11404193885E+02  0.13009316841E+02  0.18377698632E+02  0.51100000000E-03 0. -1.
        -11    1    3    3    0    0  0.42131073606E+01 -0.39918962456E+00 -0.28003982824E+00  0.42412319619E+01  0.51100000000E-03 0.  1.
         12    1    3    3    0    0 -0.14501590648E+02 -0.21623644632E+02  0.10054157459E+02  0.27909930503E+02  0.00000000000E+00 0. -1.
</event>
<event>
 7    1  0.4520156E-012  0.5052893E+02  0.7816164E-02  0.1300439E+00
        -11   -1    0    0    0    0  0.00000000000E+00  0.00000000000E+00  0.45593999997E+02  0.45594000000E+02  0.51100000000E-03 0. -1.
         11   -1    0    0    0    0 -0.00000000000E+00 -0.00000000000E+00 -0.45593999997E+02  0.45594000000E+02  0.51100000000E-03 0.  1.
    9900012    2    1    2    0    0 -0.24584994586E+02 -0.28482053415E+02  0.15411384719E+02  0.50528928386E+02  0.30000208323E+02 0.  0.
        -12    1    1    2    0    0  0.24584994586E+02  0.28482053415E+02 -0.15411384719E+02  0.40659071614E+02  0.00000000000E+00 0.  1.
         11    1    3    3    0    0 -0.63375406747E+01 -0.21523593740E+01 -0.19968047177E+00  0.66960395183E+01  0.51100000000E-03 0.  1.
        -11    1    3    3    0    0 -0.71268705360E+01  0.13180264339E+01  0.11719378334E+02  0.13779452315E+02  0.51100000000E-03 0. -1.
         12    1    3    3    0    0 -0.11120583376E+02 -0.27647720474E+02  0.38916868568E+01  0.30053436553E+02  0.00000000000E+00 0. -1.
</event>
<event>
 7    1  0.4520156E-012  0.5052900E+02  0.7816164E-02  0.1300438E+00
        -11   -1    0    0    0    0  0.00000000000E+00  0.00000000000E+00  0.45593999997E+02  0.45594000000E+02  0.51100000000E-03 0. -1.
         11   -1    0    0    0    0 -0.00000000000E+00 -0.00000000000E+00 -0.45593999997E+02  0.45594000000E+02  0.51100000000E-03 0.  1.
    9900012    2    1    2    0    0  0.74945812514E+01  0.18175531433E+01 -0.39920951443E+02  0.50528995933E+02  0.30000413636E+02 0.  0.
         12    1    1    2    0    0 -0.74945812514E+01 -0.18175531433E+01  0.39920951443E+02  0.40659004067E+02  0.00000000000E+00 0. -1.
         11    1    3    3    0    0  0.10505812139E+01  0.31739892811E+01 -0.45883704864E+00  0.33746793243E+01  0.51100000000E-03 0. -1.
        -11    1    3    3    0    0  0.40338593431E+01  0.58538693670E+01 -0.14674904637E+00  0.71106499921E+01  0.51100000000E-03 0.  1.
        -12    1    3    3    0    0  0.24101406944E+01 -0.72103055049E+01 -0.39315365348E+02  0.40043666617E+02  0.00000000000E+00 0.  1.
</event>
<event>
 7    1  0.4520156E-012  0.5052886E+02  0.7816164E-02  0.1300439E+00
        -11   -1    0    0    0    0  0.00000000000E+00  0.00000000000E+00  0.45593999997E+02  0.45594000000E+02  0.51100000000E-03 0. -1.
         11   -1    0    0    0    0 -0.00000000000E+00 -0.00000000000E+00 -0.45593999997E+02  0.45594000000E+02  0.51100000000E-03 0.  1.
    9900012    2    1    2    0    0 -0.33528457415E+02  0.88224200999E+01 -0.21240832087E+02  0.50528862026E+02  0.30000006613E+02 0.  0.
         12    1    1    2    0    0  0.33528457415E+02 -0.88224200999E+01  0.21240832087E+02  0.40659137974E+02  0.00000000000E+00 0. -1.
         11    1    3    3    0    0 -0.13931592029E+02 -0.20028362110E+01  0.46972834995E+01  0.14837960839E+02  0.51100000000E-03 0. -1.
        -11    1    3    3    0    0 -0.13622109539E+01  0.30427769745E+01 -0.39605388495E+00  0.33572264357E+01  0.51100000000E-03 0.  1.
        -12    1    3    3    0    0 -0.18234654433E+02  0.77824793364E+01 -0.25542061701E+02  0.32333674750E+02  0.00000000000E+00 0.  1.
</event>
<event>
 7    1  0.4520156E-012  0.5052886E+02  0.7816164E-02  0.1300439E+00
        -11   -1    0    0    0    0  0.00000000000E+00  0.00000000000E+00  0.45593999997E+02  0.45594000000E+02  0.51100000000E-03 0. -1.
         11   -1    0    0    0    0 -0.00000000000E+00 -0.00000000000E+00 -0.45593999997E+02  0.45594000000E+02  0.51100000000E-03 0.  1.
    9900012    2    1    2    0    0 -0.47716986611E+01  0.20666999577E+02 -0.34688204621E+02  0.50528861797E+02  0.30000005917E+02 0.  0.
         12    1    1    2    0    0  0.47716986611E+01 -0.20666999577E+02  0.34688204621E+02  0.40659138203E+02  0.00000000000E+00 0. -1.
         11    1    3    3    0    0 -0.15153107659E+02  0.10035662700E+02 -0.90178888271E+01  0.20289246332E+02  0.51100000000E-03 0. -1.
        -11    1    3    3    0    0  0.28069685707E+01  0.67413857083E+01 -0.14039201787E+02  0.15824807768E+02  0.51100000000E-03 0.  1.
         12    1    3    3    0    0  0.75744404276E+01  0.38899511683E+01 -0.11631114007E+02  0.14414807696E+02  0.00000000000E+00 0. -1.
</event>
<event>
 7    1  0.4520156E-012  0.5052886E+02  0.7816164E-02  0.1300439E+00
        -11   -1    0    0    0    0  0.00000000000E+00  0.00000000000E+00  0.45593999997E+02  0.45594000000E+02  0.51100000000E-03 0. -1.
         11   -1    0    0    0    0 -0.00000000000E+00 -0.00000000000E+00 -0.45593999997E+02  0.45594000000E+02  0.51100000000E-03 0.  1.
    9900012    2    1    2    0    0 -0.88384756680E+01 -0.17679343748E+02 -0.35531502474E+02  0.50528861844E+02  0.30000006062E+02 0.  0.
         12    1    1    2    0    0  0.88384756680E+01  0.17679343748E+02  0.35531502474E+02  0.40659138156E+02  0.00000000000E+00 0. -1.
         11    1    3    3    0    0  0.29724283027E+01 -0.54433588406E+01 -0.80427727346E+00  0.62539865427E+01  0.51100000000E-03 0. -1.
        -11    1    3    3    0    0 -0.42191353349E+00 -0.83642655122E+01 -0.96086287009E+00  0.84298402301E+01  0.51100000000E-03 0.  1.
        -12    1    3    3    0    0 -0.11388990437E+02 -0.38717193957E+01 -0.33766362330E+02  0.35845035072E+02  0.00000000000E+00 0.  1.
</event>
<event>
 7    1  0.4520156E-012  0.5052886E+02  0.7816164E-02  0.1300439E+00
        -11   -1    0    0    0    0  0.00000000000E+00  0.00000000000E+00  0.45593999997E+02  0.45594000000E+02  0.51100000000E-03 0.  1.
         11   -1    0    0    0    0 -0.00000000000E+00 -0.00000000000E+00 -0.45593999997E+02  0.45594000000E+02  0.51100000000E-03 0. -1.
    9900012    2    1    2    0    0  0.49915803754E+01 -0.31965180308E+02 -0.24626762340E+02  0.50528855270E+02  0.29999986080E+02 0.  0.
         12    1    1    2    0    0 -0.49915803754E+01  0.31965180308E+02  0.24626762340E+02  0.40659144730E+02  0.00000000000E+00 0. -1.
         11    1    3    3    0    0  0.14390573109E+01 -0.16510175954E+02 -0.41918593154E+01  0.17094691595E+02  0.51100000000E-03 0. -1.
        -11    1    3    3    0    0  0.10488722115E+01 -0.20592778859E+02 -0.17299192960E+02  0.26915139817E+02  0.51100000000E-03 0.  1.
         12    1    3    3    0    0  0.25036508531E+01  0.51377745041E+01 -0.31357100646E+01  0.65190238578E+01  0.00000000000E+00 0. -1.
</event>
<event>
 7    1  0.4520156E-012  0.5052886E+02  0.7816164E-02  0.1300439E+00
        -11   -1    0    0    0    0  0.00000000000E+00  0.00000000000E+00  0.45593999997E+02  0.45594000000E+02  0.51100000000E-03 0. -1.
         11   -1    0    0    0    0 -0.00000000000E+00 -0.00000000000E+00 -0.45593999997E+02  0.45594000000E+02  0.51100000000E-03 0.  1.
    9900012    2    1    2    0    0 -0.11949820043E+02  0.25388056182E+02  0.29424720839E+02  0.50528858443E+02  0.29999995722E+02 0.  0.
        -12    1    1    2    0    0  0.11949820043E+02 -0.25388056182E+02 -0.29424720839E+02  0.40659141557E+02  0.00000000000E+00 0.  1.
         11    1    3    3    0    0 -0.61384141080E+01  0.53892984853E+01 -0.37414025181E+01  0.89845845195E+01  0.51100000000E-03 0. -1.
        -11    1    3    3    0    0 -0.50461228711E+01  0.27284698636E+01  0.23273931621E+01  0.61906916429E+01  0.51100000000E-03 0.  1.
        -12    1    3    3    0    0 -0.76528306401E+00  0.17270287833E+02  0.30838730195E+02  0.35353582280E+02  0.00000000000E+00 0.  1.
</event>
<event>
 7    1  0.4520156E-012  0.5052890E+02  0.7816164E-02  0.1300439E+00
        -11   -1    0    0    0    0  0.00000000000E+00  0.00000000000E+00  0.45593999997E+02  0.45594000000E+02  0.51100000000E-03 0. -1.
         11   -1    0    0    0    0 -0.00000000000E+00 -0.00000000000E+00 -0.45593999997E+02  0.45594000000E+02  0.51100000000E-03 0.  1.
    9900012    2    1    2    0    0 -0.36773291162E+02  0.77026838181E+01 -0.15542084762E+02  0.50528896719E+02  0.30000112066E+02 0.  0.
         12    1    1    2    0    0  0.36773291162E+02 -0.77026838181E+01  0.15542084762E+02  0.40659103281E+02  0.00000000000E+00 0. -1.
         11    1    3    3    0    0 -0.20458353491E+02  0.39732063890E+01  0.67159816615E+01  0.21896004350E+02  0.51100000000E-03 0. -1.
        -11    1    3    3    0    0  0.15144066107E+00  0.50874599634E+00 -0.31904101322E+01  0.32342655790E+01  0.51100000000E-03 0.  1.
         12    1    3    3    0    0 -0.16466378333E+02  0.32207314328E+01 -0.19067656291E+02  0.25398626790E+02  0.00000000000E+00 0. -1.
</event>
<event>
 7    1  0.4520156E-012  0.5052885E+02  0.7816164E-02  0.1300439E+00
        -11   -1    0    0    0    0  0.00000000000E+00  0.00000000000E+00  0.45593999997E+02  0.45594000000E+02  0.51100000000E-03 0. -1.
         11   -1    0    0    0    0 -0.00000000000E+00 -0.00000000000E+00 -0.45593999997E+02  0.45594000000E+02  0.51100000000E-03 0.  1.
    9900012    2    1    2    0    0  0.90946612762E-01  0.15593646292E+02  0.37549913604E+02  0.50528854809E+02  0.29999984679E+02 0.  0.
        -12    1    1    2    0    0 -0.90946612762E-01 -0.15593646292E+02 -0.37549913604E+02  0.40659145191E+02  0.00000000000E+00 0.  1.
         11    1    3    3    0    0 -0.33412492007E+01  0.77112229046E+01  0.12594534781E+01  0.84978307956E+01  0.51100000000E-03 0. -1.
        -11    1    3    3    0    0  0.44267750814E+00  0.13213246898E+02  0.15558718369E+02  0.20417139234E+02  0.51100000000E-03 0.  1.
        -12    1    3    3    0    0  0.29895183053E+01 -0.53308235105E+01  0.20731741757E+02  0.21613884780E+02  0.00000000000E+00 0.  1.
</event>
<event>
 7    1  0.4520156E-012  0.5052886E+02  0.7816164E-02  0.1300439E+00
        -11   -1    0    0    0    0  0.00000000000E+00  0.00000000000E+00  0.45593999997E+02  0.45594000000E+02  0.51100000000E-03 0. -1.
         11   -1    0    0    0    0 -0.00000000000E+00 -0.00000000000E+00 -0.45593999997E+02  0.45594000000E+02  0.51100000000E-03 0.  1.
    9900012    2    1    2    0    0 -0.18550062436E+02  0.10677622846E+02  0.34569478698E+02  0.50528864452E+02  0.30000013989E+02 0.  0.
        -12    1    1    2    0    0  0.18550062436E+02 -0.10677622846E+02 -0.34569478698E+02  0.40659135548E+02  0.00000000000E+00 0.  1.
         11    1    3    3    0    0 -0.71543928881E+01  0.13178292107E+02  0.13656545168E+01  0.15057148899E+02  0.51100000000E-03 0. -1.
        -11    1    3    3    0    0 -0.65536043613E-01 -0.88059123428E+00  0.12539176422E+01  0.15336380308E+01  0.51100000000E-03 0.  1.
         12    1    3    3    0    0 -0.11330133504E+02 -0.16200780269E+01  0.31949906539E+02  0.33938077522E+02  0.00000000000E+00 0. -1.
</event>
<event>
 7    1  0.4520156E-012  0.5052882E+02  0.7816164E-02  0.1300439E+00
        -11   -1    0    0    0    0  0.00000000000E+00  0.00000000000E+00  0.45593999997E+02  0.45594000000E+02  0.51100000000E-03 0. -1.
         11   -1    0    0    0    0 -0.00000000000E+00 -0.00000000000E+00 -0.45593999997E+02  0.45594000000E+02  0.51100000000E-03 0.  1.
    9900012    2    1    2    0    0 -0.17183742443E+02 -0.21331006294E+02  0.30047895819E+02  0.50528820508E+02  0.29999880416E+02 0.  0.
        -12    1    1    2    0    0  0.17183742443E+02  0.21331006294E+02 -0.30047895819E+02  0.40659179492E+02  0.00000000000E+00 0.  1.
         11    1    3    3    0    0 -0.13016316900E+01  0.57573012410E+01  0.54349374274E+01  0.80236717117E+01  0.51100000000E-03 0. -1.
        -11    1    3    3    0    0  0.26410679880E+01 -0.14215980153E+01  0.22560032480E+01  0.37530963151E+01  0.51100000000E-03 0.  1.
         12    1    3    3    0    0 -0.18523178741E+02 -0.25666709520E+02  0.22356955143E+02  0.38752052481E+02  0.00000000000E+00 0. -1.
</event>
<event>
 7    1  0.4520156E-012  0.5052886E+02  0.7816164E-02  0.1300439E+00
        -11   -1    0    0    0    0  0.00000000000E+00  0.00000000000E+00  0.45593999997E+02  0.45594000000E+02  0.51100000000E-03 0.  1.
         11   -1    0    0    0    0 -0.00000000000E+00 -0.00000000000E+00 -0.45593999997E+02  0.45594000000E+02  0.51100000000E-03 0. -1.
    9900012    2    1    2    0    0 -0.33110602317E+02 -0.22920380141E+02 -0.56133688016E+01  0.50528859320E+02  0.29999998388E+02 0.  0.
         12    1    1    2    0    0  0.33110602317E+02  0.22920380141E+02  0.56133688016E+01  0.40659140680E+02  0.00000000000E+00 0. -1.
         11    1    3    3    0    0 -0.77044632697E+01 -0.10360785611E+02 -0.82547822446E+01  0.15324688020E+02  0.51100000000E-03 0. -1.
        -11    1    3    3    0    0 -0.16853478931E+02 -0.17480112122E+02 -0.18723955445E+01  0.24353643202E+02  0.51100000000E-03 0.  1.
         12    1    3    3    0    0 -0.85526601158E+01  0.49205175919E+01  0.45138089875E+01  0.10850528098E+02  0.00000000000E+00 0. -1.
</event>
<event>
 7    1  0.4520156E-012  0.5052887E+02  0.7816164E-02  0.1300439E+00
        -11   -1    0    0    0    0  0.00000000000E+00  0.00000000000E+00  0.45593999997E+02  0.45594000000E+02  0.51100000000E-03 0. -1.
         11   -1    0    0    0    0 -0.00000000000E+00 -0.00000000000E+00 -0.45593999997E+02  0.45594000000E+02  0.51100000000E-03 0.  1.
    9900012    2    1    2    0    0  0.40759441928E+01 -0.19604761378E+02 -0.35386507072E+02  0.50528869752E+02  0.30000030100E+02 0.  0.
         12    1    1    2    0    0 -0.40759441928E+01  0.19604761378E+02  0.35386507072E+02  0.40659130248E+02  0.00000000000E+00 0. -1.
         11    1    3    3    0    0  0.11189541587E+02 -0.64565167542E+01 -0.14251448172E+02  0.19235285930E+02  0.51100000000E-03 0. -1.
        -11    1    3    3    0    0 -0.10753786919E+02 -0.53906559852E+01 -0.18957653425E+02  0.22452076267E+02  0.51100000000E-03 0.  1.
         12    1    3    3    0    0  0.36401895248E+01 -0.77575886388E+01 -0.21774054746E+01  0.88415075562E+01  0.00000000000E+00 0. -1.
</event>
<event>
 7    1  0.4520156E-012  0.5052885E+02  0.7816164E-02  0.1300439E+00
        -11   -1    0    0    0    0  0.00000000000E+00  0.00000000000E+00  0.45593999997E+02  0.45594000000E+02  0.51100000000E-03 0. -1.
         11   -1    0    0    0    0 -0.00000000000E+00 -0.00000000000E+00 -0.45593999997E+02  0.45594000000E+02  0.51100000000E-03 0.  1.
    9900012    2    1    2    0    0  0.29682269377E+02  0.19933342839E+00 -0.27786503420E+02  0.50528848244E+02  0.29999964722E+02 0.  0.
         12    1    1    2    0    0 -0.29682269377E+02 -0.19933342839E+00  0.27786503420E+02  0.40659151756E+02  0.00000000000E+00 0. -1.
         11    1    3    3    0    0  0.90662909456E+01  0.43036297616E+00 -0.61523086320E+01  0.10965114936E+02  0.51100000000E-03 0. -1.
        -11    1    3    3    0    0  0.21694188865E+02 -0.95733843480E+01 -0.15875671803E+02  0.28536371070E+02  0.51100000000E-03 0.  1.
         12    1    3    3    0    0 -0.10782104330E+01  0.93423548002E+01 -0.57585229855E+01  0.11027362238E+02  0.00000000000E+00 0. -1.
</event>
<event>
 7    1  0.4520156E-012  0.5052885E+02  0.7816164E-02  0.1300439E+00
        -11   -1    0    0    0    0  0.00000000000E+00  0.00000000000E+00  0.45593999997E+02  0.45594000000E+02  0.51100000000E-03 0. -1.
         11   -1    0    0    0    0 -0.00000000000E+00 -0.00000000000E+00 -0.45593999997E+02  0.45594000000E+02  0.51100000000E-03 0.  1.
    9900012    2    1    2    0    0  0.23488131613E+02  0.13605714068E+02 -0.30271410652E+02  0.50528854844E+02  0.29999984783E+02 0.  0.
         12    1    1    2    0    0 -0.23488131613E+02 -0.13605714068E+02  0.30271410652E+02  0.40659145156E+02  0.00000000000E+00 0. -1.
         11    1    3    3    0    0  0.50579830772E+01  0.25681520698E+01 -0.11195541700E+02  0.12550647477E+02  0.51100000000E-03 0.  1.
        -11    1    3    3    0    0  0.11979132205E+02  0.12383893241E+02  0.58778006272E+00  0.17239660839E+02  0.51100000000E-03 0. -1.
         12    1    3    3    0    0  0.64510163306E+01 -0.13463312430E+01 -0.19663649015E+02  0.20738546528E+02  0.00000000000E+00 0. -1.
</event>
<event>
 7    1  0.4520156E-012  0.5052887E+02  0.7816164E-02  0.1300439E+00
        -11   -1    0    0    0    0  0.00000000000E+00  0.00000000000E+00  0.45593999997E+02  0.45594000000E+02  0.51100000000E-03 0. -1.
         11   -1    0    0    0    0 -0.00000000000E+00 -0.00000000000E+00 -0.45593999997E+02  0.45594000000E+02  0.51100000000E-03 0.  1.
    9900012    2    1    2    0    0  0.39863233306E+01 -0.30176745696E+02 -0.26956221090E+02  0.50528872981E+02  0.30000039914E+02 0.  0.
         12    1    1    2    0    0 -0.39863233306E+01  0.30176745696E+02  0.26956221090E+02  0.40659127019E+02  0.00000000000E+00 0. -1.
         11    1    3    3    0    0  0.62367582683E+01  0.13458432749E+00 -0.64218072422E+01  0.89529255082E+01  0.51100000000E-03 0. -1.
        -11    1    3    3    0    0  0.44462250175E+01 -0.19645852478E+00 -0.60072107962E+01  0.74762353273E+01  0.51100000000E-03 0.  1.
         12    1    3    3    0    0 -0.66966599552E+01 -0.30114871499E+02 -0.14527203051E+02  0.34099712146E+02  0.00000000000E+00 0. -1.
</event>
<event>
 7    1  0.4520156E-012  0.5052886E+02  0.7816164E-02  0.1300439E+00
        -11   -1    0    0    0    0  0.00000000000E+00  0.00000000000E+00  0.45593999997E+02  0.45594000000E+02  0.51100000000E-03 0. -1.
         11   -1    0    0    0    0 -0.00000000000E+00 -0.00000000000E+00 -0.45593999997E+02  0.45594000000E+02  0.51100000000E-03 0.  1.
    9900012    2    1    2    0    0  0.40006144559E+00  0.50472935979E+01 -0.40342659563E+02  0.50528863235E+02  0.30000010289E+02 0.  0.
         12    1    1    2    0    0 -0.40006144559E+00 -0.50472935979E+01  0.40342659563E+02  0.40659136765E+02  0.00000000000E+00 0. -1.
         11    1    3    3    0    0  0.97641786695E+01  0.10248144445E+02 -0.27778928791E+02  0.31177436307E+02  0.51100000000E-03 0. -1.
        -11    1    3    3    0    0  0.27067215014E+00  0.20480252475E+01 -0.18973219033E+00  0.20745287157E+01  0.51100000000E-03 0.  1.
        -12    1    3    3    0    0 -0.96347893741E+01 -0.72488760946E+01 -0.12373998583E+02  0.17276898212E+02  0.00000000000E+00 0.  1.
</event>
<event>
 7    1  0.4520156E-012  0.5052882E+02  0.7816164E-02  0.1300439E+00
        -11   -1    0    0    0    0  0.00000000000E+00  0.00000000000E+00  0.45593999997E+02  0.45594000000E+02  0.51100000000E-03 0. -1.
         11   -1    0    0    0    0 -0.00000000000E+00 -0.00000000000E+00 -0.45593999997E+02  0.45594000000E+02  0.51100000000E-03 0.  1.
    9900012    2    1    2    0    0 -0.29636719408E+02 -0.90840528679E+01 -0.26311848479E+02  0.50528824847E+02  0.29999893604E+02 0.  0.
         12    1    1    2    0    0  0.29636719408E+02  0.90840528679E+01  0.26311848479E+02  0.40659175153E+02  0.00000000000E+00 0. -1.
         11    1    3    3    0    0 -0.15692326677E+02 -0.87426912121E+01 -0.22600576934E+01  0.18105016631E+02  0.51100000000E-03 0. -1.
        -11    1    3    3    0    0 -0.14443287531E+02 -0.62722574560E+01 -0.16490019217E+02  0.22800668901E+02  0.51100000000E-03 0.  1.
         12    1    3    3    0    0  0.49889480003E+00  0.59308958001E+01 -0.75617715679E+01  0.96231393141E+01  0.00000000000E+00 0. -1.
</event>
<event>
 7    1  0.4520156E-012  0.5052887E+02  0.7816164E-02  0.1300439E+00
        -11   -1    0    0    0    0  0.00000000000E+00  0.00000000000E+00  0.45593999997E+02  0.45594000000E+02  0.51100000000E-03 0. -1.
         11   -1    0    0    0    0 -0.00000000000E+00 -0.00000000000E+00 -0.45593999997E+02  0.45594000000E+02  0.51100000000E-03 0.  1.
    9900012    2    1    2    0    0 -0.33977684619E+02  0.28013453199E+01  0.22154784324E+02  0.50528867495E+02  0.30000023237E+02 0.  0.
        -12    1    1    2    0    0  0.33977684619E+02 -0.28013453199E+01 -0.22154784324E+02  0.40659132505E+02  0.00000000000E+00 0.  1.
         11    1    3    3    0    0 -0.47144217062E+00  0.45079097455E+01  0.61095830431E+00  0.45734864496E+01  0.51100000000E-03 0. -1.
        -11    1    3    3    0    0 -0.60774039357E+00  0.25502110848E+01  0.10758583976E+02  0.11073393987E+02  0.51100000000E-03 0.  1.
         12    1    3    3    0    0 -0.32898502054E+02 -0.42567755104E+01  0.10785242044E+02  0.34881987058E+02  0.00000000000E+00 0. -1.
</event>
<event>
 7    1  0.4520156E-012  0.5052884E+02  0.7816164E-02  0.1300439E+00
        -11   -1    0    0    0    0  0.00000000000E+00  0.00000000000E+00  0.45593999997E+02  0.45594000000E+02  0.51100000000E-03 0. -1.
         11   -1    0    0    0    0 -0.00000000000E+00 -0.00000000000E+00 -0.45593999997E+02  0.45594000000E+02  0.51100000000E-03 0.  1.
    9900012    2    1    2    0    0 -0.12223095909E+02  0.21242469491E+00  0.38777801368E+02  0.50528842645E+02  0.29999947704E+02 0.  0.
        -12    1    1    2    0    0  0.12223095909E+02 -0.21242469491E+00 -0.38777801368E+02  0.40659157355E+02  0.00000000000E+00 0.  1.
         11    1    3    3    0    0 -0.11966073680E+02 -0.35385325197E+00  0.11500214744E+01  0.12026415970E+02  0.51100000000E-03 0. -1.
        -11    1    3    3    0    0 -0.29279539473E+01  0.64820459754E+00  0.55060745390E+01  0.62697639994E+01  0.51100000000E-03 0.  1.
         12    1    3    3    0    0  0.26709317187E+01 -0.81926650655E-01  0.32121705355E+02  0.32232662675E+02  0.00000000000E+00 0. -1.
</event>
<event>
 7    1  0.4520156E-012  0.5052885E+02  0.7816164E-02  0.1300439E+00
        -11   -1    0    0    0    0  0.00000000000E+00  0.00000000000E+00  0.45593999997E+02  0.45594000000E+02  0.51100000000E-03 0. -1.
         11   -1    0    0    0    0 -0.00000000000E+00 -0.00000000000E+00 -0.45593999997E+02  0.45594000000E+02  0.51100000000E-03 0.  1.
    9900012    2    1    2    0    0  0.23693175377E+02 -0.32002949623E+02  0.82226125819E+01  0.50528847259E+02  0.29999961727E+02 0.  0.
         12    1    1    2    0    0 -0.23693175377E+02  0.32002949623E+02 -0.82226125819E+01  0.40659152741E+02  0.00000000000E+00 0. -1.
         11    1    3    3    0    0  0.13775194041E+02 -0.18772822988E+02 -0.99232904038E+01  0.25310996553E+02  0.51100000000E-03 0. -1.
        -11    1    3    3    0    0 -0.22389012184E+00 -0.25970747735E+01  0.42978153981E+01  0.50265437055E+01  0.51100000000E-03 0.  1.
        -12    1    3    3    0    0  0.10141871458E+02 -0.10633051861E+02  0.13848087588E+02  0.20191307000E+02  0.00000000000E+00 0.  1.
</event>
<event>
 7    1  0.4520156E-012  0.5052886E+02  0.7816164E-02  0.1300439E+00
        -11   -1    0    0    0    0  0.00000000000E+00  0.00000000000E+00  0.45593999997E+02  0.45594000000E+02  0.51100000000E-03 0. -1.
         11   -1    0    0    0    0 -0.00000000000E+00 -0.00000000000E+00 -0.45593999997E+02  0.45594000000E+02  0.51100000000E-03 0.  1.
    9900012    2    1    2    0    0  0.17002924461E+02  0.27497928743E+02 -0.24656241783E+02  0.50528858540E+02  0.29999996018E+02 0.  0.
         12    1    1    2    0    0 -0.17002924461E+02 -0.27497928743E+02  0.24656241783E+02  0.40659141460E+02  0.00000000000E+00 0. -1.
         11    1    3    3    0    0  0.13719196136E+02  0.23583370659E+02 -0.17437407076E+02  0.32379852996E+02  0.51100000000E-03 0. -1.
        -11    1    3    3    0    0  0.31774985996E+01 -0.12960983661E+01 -0.11120925852E+02  0.11638357289E+02  0.51100000000E-03 0.  1.
         12    1    3    3    0    0  0.10622972561E+00  0.52106564504E+01  0.39020911448E+01  0.65106482550E+01  0.00000000000E+00 0. -1.
</event>
<event>
 7    1  0.4520156E-012  0.5052886E+02  0.7816164E-02  0.1300439E+00
        -11   -1    0    0    0    0  0.00000000000E+00  0.00000000000E+00  0.45593999997E+02  0.45594000000E+02  0.51100000000E-03 0.  1.
         11   -1    0    0    0    0 -0.00000000000E+00 -0.00000000000E+00 -0.45593999997E+02  0.45594000000E+02  0.51100000000E-03 0. -1.
    9900012    2    1    2    0    0  0.33911224552E+02  0.53545694870E+01  0.21783550887E+02  0.50528860139E+02  0.30000000879E+02 0.  0.
        -12    1    1    2    0    0 -0.33911224552E+02 -0.53545694870E+01 -0.21783550887E+02  0.40659139861E+02  0.00000000000E+00 0.  1.
         11    1    3    3    0    0  0.51627835980E+01  0.36112669213E+01 -0.51221721119E+01  0.81198664190E+01  0.51100000000E-03 0. -1.
        -11    1    3    3    0    0  0.44573538163E+01 -0.57956697560E+01  0.68468539280E+01  0.10016845808E+02  0.51100000000E-03 0.  1.
        -12    1    3    3    0    0  0.24291087137E+02  0.75389723216E+01  0.20058869071E+02  0.32392147912E+02  0.00000000000E+00 0.  1.
</event>
<event>
 7    1  0.4520156E-012  0.5052885E+02  0.7816164E-02  0.1300439E+00
        -11   -1    0    0    0    0  0.00000000000E+00  0.00000000000E+00  0.45593999997E+02  0.45594000000E+02  0.51100000000E-03 0. -1.
         11   -1    0    0    0    0 -0.00000000000E+00 -0.00000000000E+00 -0.45593999997E+02  0.45594000000E+02  0.51100000000E-03 0.  1.
    9900012    2    1    2    0    0  0.69545226297E+01  0.29768354941E+01 -0.39949213633E+02  0.50528848454E+02  0.29999965360E+02 0.  0.
         12    1    1    2    0    0 -0.69545226297E+01 -0.29768354941E+01  0.39949213633E+02  0.40659151546E+02  0.00000000000E+00 0. -1.
         11    1    3    3    0    0  0.10376420333E+02  0.65068460638E+01 -0.25954942947E+02  0.28699620351E+02  0.51100000000E-03 0. -1.
        -11    1    3    3    0    0  0.33269354627E+01  0.17144178428E+01 -0.12631473657E+02  0.13174287651E+02  0.51100000000E-03 0.  1.
        -12    1    3    3    0    0 -0.67488331661E+01 -0.52444284125E+01 -0.13627970289E+01  0.86549404516E+01  0.00000000000E+00 0.  1.
</event>
<event>
 7    1  0.4520156E-012  0.5052886E+02  0.7816164E-02  0.1300439E+00
        -11   -1    0    0    0    0  0.00000000000E+00  0.00000000000E+00  0.45593999997E+02  0.45594000000E+02  0.51100000000E-03 0. -1.
         11   -1    0    0    0    0 -0.00000000000E+00 -0.00000000000E+00 -0.45593999997E+02  0.45594000000E+02  0.51100000000E-03 0.  1.
    9900012    2    1    2    0    0 -0.27914151123E+02 -0.12857146637E+02  0.26620662335E+02  0.50528859383E+02  0.29999998582E+02 0.  0.
        -12    1    1    2    0    0  0.27914151123E+02  0.12857146637E+02 -0.26620662335E+02  0.40659140617E+02  0.00000000000E+00 0.  1.
         11    1    3    3    0    0 -0.18357345612E+02 -0.63974862155E+01  0.39109334357E+01  0.19829658807E+02  0.51100000000E-03 0.  1.
        -11    1    3    3    0    0 -0.10879862318E+02  0.83151238563E+00  0.60753049150E+01  0.12488880934E+02  0.51100000000E-03 0. -1.
        -12    1    3    3    0    0  0.13230568071E+01 -0.72911728068E+01  0.16634423984E+02  0.18210319643E+02  0.00000000000E+00 0.  1.
</event>
<event>
 7    1  0.4520156E-012  0.5052886E+02  0.7816164E-02  0.1300439E+00
        -11   -1    0    0    0    0  0.00000000000E+00  0.00000000000E+00  0.45593999997E+02  0.45594000000E+02  0.51100000000E-03 0. -1.
         11   -1    0    0    0    0 -0.00000000000E+00 -0.00000000000E+00 -0.45593999997E+02  0.45594000000E+02  0.51100000000E-03 0.  1.
    9900012    2    1    2    0    0 -0.15271983864E+01  0.22587332842E+02 -0.33773443334E+02  0.50528863088E+02  0.30000009842E+02 0.  0.
         12    1    1    2    0    0  0.15271983864E+01 -0.22587332842E+02  0.33773443334E+02  0.40659136912E+02  0.00000000000E+00 0. -1.
         11    1    3    3    0    0 -0.56647041413E-01  0.15462181803E+02 -0.72332616711E+01  0.17070511113E+02  0.51100000000E-03 0. -1.
        -11    1    3    3    0    0  0.54048721106E+01  0.10904036645E+02 -0.12986311775E+02  0.17797610835E+02  0.51100000000E-03 0.  1.
        -12    1    3    3    0    0 -0.68754234556E+01 -0.37788856055E+01 -0.13553869888E+02  0.15660741140E+02  0.00000000000E+00 0.  1.
</event>
<event>
 7    1  0.4520156E-012  0.5052886E+02  0.7816164E-02  0.1300439E+00
        -11   -1    0    0    0    0  0.00000000000E+00  0.00000000000E+00  0.45593999997E+02  0.45594000000E+02  0.51100000000E-03 0. -1.
         11   -1    0    0    0    0 -0.00000000000E+00 -0.00000000000E+00 -0.45593999997E+02  0.45594000000E+02  0.51100000000E-03 0.  1.
    9900012    2    1    2    0    0 -0.86718793830E+01 -0.21437058421E+02 -0.33442739051E+02  0.50528858826E+02  0.29999996888E+02 0.  0.
         12    1    1    2    0    0  0.86718793830E+01  0.21437058421E+02  0.33442739051E+02  0.40659141174E+02  0.00000000000E+00 0. -1.
         11    1    3    3    0    0  0.10282190538E+01  0.44135610047E+01 -0.53230056892E+00  0.45629047022E+01  0.51100000000E-03 0. -1.
        -11    1    3    3    0    0 -0.49305566015E+01  0.81773460374E+00 -0.52321775224E+01  0.72356589313E+01  0.51100000000E-03 0.  1.
        -12    1    3    3    0    0 -0.47695418353E+01 -0.26668354030E+02 -0.27678260959E+02  0.38730295193E+02  0.00000000000E+00 0.  1.
</event>
<event>
 7    1  0.4520156E-012  0.5052886E+02  0.7816164E-02  0.1300439E+00
        -11   -1    0    0    0    0  0.00000000000E+00  0.00000000000E+00  0.45593999997E+02  0.45594000000E+02  0.51100000000E-03 0. -1.
         11   -1    0    0    0    0 -0.00000000000E+00 -0.00000000000E+00 -0.45593999997E+02  0.45594000000E+02  0.51100000000E-03 0.  1.
    9900012    2    1    2    0    0  0.37000569862E+02 -0.16516350424E+02  0.33665542052E+01  0.50528859715E+02  0.29999999591E+02 0.  0.
        -12    1    1    2    0    0 -0.37000569862E+02  0.16516350424E+02 -0.33665542052E+01  0.40659140285E+02  0.00000000000E+00 0.  1.
         11    1    3    3    0    0  0.25688997557E+02 -0.10853890464E+02  0.10064976674E+02  0.29648529296E+02  0.51100000000E-03 0. -1.
        -11    1    3    3    0    0  0.61520097468E+01 -0.45169135391E+01  0.42408312628E+01  0.87312302629E+01  0.51100000000E-03 0.  1.
        -12    1    3    3    0    0  0.51595625589E+01 -0.11455464208E+01 -0.10939253732E+02  0.12149100157E+02  0.00000000000E+00 0.  1.
</event>
<event>
 7    1  0.4520156E-012  0.5052886E+02  0.7816164E-02  0.1300439E+00
        -11   -1    0    0    0    0  0.00000000000E+00  0.00000000000E+00  0.45593999997E+02  0.45594000000E+02  0.51100000000E-03 0. -1.
         11   -1    0    0    0    0 -0.00000000000E+00 -0.00000000000E+00 -0.45593999997E+02  0.45594000000E+02  0.51100000000E-03 0.  1.
    9900012    2    1    2    0    0  0.15828417169E+02  0.32120523929E+02 -0.19258733586E+02  0.50528859984E+02  0.30000000406E+02 0.  0.
         12    1    1    2    0    0 -0.15828417169E+02 -0.32120523929E+02  0.19258733586E+02  0.40659140016E+02  0.00000000000E+00 0. -1.
         11    1    3    3    0    0 -0.39356262810E+01  0.96060626193E+01 -0.77052424198E+01  0.12928122612E+02  0.51100000000E-03 0. -1.
        -11    1    3    3    0    0  0.15670629291E+01  0.15621673822E+02 -0.17069446588E+01  0.15792594453E+02  0.51100000000E-03 0.  1.
         12    1    3    3    0    0  0.18196980521E+02  0.68927874872E+01 -0.98465465072E+01  0.21808142918E+02  0.00000000000E+00 0. -1.
</event>
<event>
 7    1  0.4520156E-012  0.5052887E+02  0.7816164E-02  0.1300439E+00
        -11   -1    0    0    0    0  0.00000000000E+00  0.00000000000E+00  0.45593999997E+02  0.45594000000E+02  0.51100000000E-03 0. -1.
         11   -1    0    0    0    0 -0.00000000000E+00 -0.00000000000E+00 -0.45593999997E+02  0.45594000000E+02  0.51100000000E-03 0.  1.
    9900012    2    1    2    0    0 -0.37044135588E+01  0.38754321723E+02 -0.11727950352E+02  0.50528868781E+02  0.30000027145E+02 0.  0.
         12    1    1    2    0    0  0.37044135588E+01 -0.38754321723E+02  0.11727950352E+02  0.40659131219E+02  0.00000000000E+00 0. -1.
         11    1    3    3    0    0 -0.37229916953E+01  0.29812392726E+02 -0.27877660129E+01  0.30173018855E+02  0.51100000000E-03 0. -1.
        -11    1    3    3    0    0 -0.13477032562E+01  0.38576583653E+01  0.44057644311E+01  0.60090425705E+01  0.51100000000E-03 0.  1.
         12    1    3    3    0    0  0.13662813927E+01  0.50842706322E+01 -0.13345948770E+02  0.14346807355E+02  0.00000000000E+00 0. -1.
</event>
<event>
 7    1  0.4520156E-012  0.5052881E+02  0.7816164E-02  0.1300439E+00
        -11   -1    0    0    0    0  0.00000000000E+00  0.00000000000E+00  0.45593999997E+02  0.45594000000E+02  0.51100000000E-03 0. -1.
         11   -1    0    0    0    0 -0.00000000000E+00 -0.00000000000E+00 -0.45593999997E+02  0.45594000000E+02  0.51100000000E-03 0.  1.
    9900012    2    1    2    0    0 -0.72627151721E+01 -0.20789710171E+02  0.34179100265E+02  0.50528806998E+02  0.29999839349E+02 0.  0.
        -12    1    1    2    0    0  0.72627151721E+01  0.20789710171E+02 -0.34179100265E+02  0.40659193002E+02  0.00000000000E+00 0.  1.
         11    1    3    3    0    0  0.27690228677E+01 -0.11187262547E+02  0.54816508180E+01  0.12762085523E+02  0.51100000000E-03 0. -1.
        -11    1    3    3    0    0  0.17225008527E+01  0.50040019609E+01  0.34428530009E+01  0.63134999691E+01  0.51100000000E-03 0.  1.
        -12    1    3    3    0    0 -0.11754238892E+02 -0.14606449585E+02  0.25254596446E+02  0.31453221505E+02  0.00000000000E+00 0.  1.
</event>
<event>
 7    1  0.4520156E-012  0.5052875E+02  0.7816164E-02  0.1300439E+00
        -11   -1    0    0    0    0  0.00000000000E+00  0.00000000000E+00  0.45593999997E+02  0.45594000000E+02  0.51100000000E-03 0.  1.
         11   -1    0    0    0    0 -0.00000000000E+00 -0.00000000000E+00 -0.45593999997E+02  0.45594000000E+02  0.51100000000E-03 0. -1.
    9900012    2    1    2    0    0  0.35422279780E+02 -0.19905366317E+02  0.14876778464E+01  0.50528748919E+02  0.29999662814E+02 0.  0.
         12    1    1    2    0    0 -0.35422279780E+02  0.19905366317E+02 -0.14876778464E+01  0.40659251081E+02  0.00000000000E+00 0. -1.
         11    1    3    3    0    0  0.21779708749E+01 -0.42526205812E+01 -0.72269805032E+01  0.86635781519E+01  0.51100000000E-03 0. -1.
        -11    1    3    3    0    0  0.22229575081E+01 -0.79210866951E+01  0.51276682967E+01  0.96942321478E+01  0.51100000000E-03 0.  1.
        -12    1    3    3    0    0  0.31021351397E+02 -0.77316590410E+01  0.35869900529E+01  0.32170938620E+02  0.00000000000E+00 0.  1.
</event>
<event>
 7    1  0.4520156E-012  0.5052885E+02  0.7816164E-02  0.1300439E+00
        -11   -1    0    0    0    0  0.00000000000E+00  0.00000000000E+00  0.45593999997E+02  0.45594000000E+02  0.51100000000E-03 0. -1.
         11   -1    0    0    0    0 -0.00000000000E+00 -0.00000000000E+00 -0.45593999997E+02  0.45594000000E+02  0.51100000000E-03 0.  1.
    9900012    2    1    2    0    0  0.30062306631E+01  0.30314920139E+02  0.26928330680E+02  0.50528846061E+02  0.29999958088E+02 0.  0.
        -12    1    1    2    0    0 -0.30062306631E+01 -0.30314920139E+02 -0.26928330680E+02  0.40659153939E+02  0.00000000000E+00 0.  1.
         11    1    3    3    0    0  0.38167403391E+00  0.62395739918E+01  0.76418987531E+01  0.98730226112E+01  0.51100000000E-03 0. -1.
        -11    1    3    3    0    0 -0.85141740784E+01  0.10651979957E+02  0.18775856018E+02  0.23205357285E+02  0.51100000000E-03 0.  1.
        -12    1    3    3    0    0  0.11138730708E+02  0.13423366190E+02  0.51057590881E+00  0.17450466166E+02  0.00000000000E+00 0.  1.
</event>
<event>
 7    1  0.4520156E-012  0.5052886E+02  0.7816164E-02  0.1300439E+00
        -11   -1    0    0    0    0  0.00000000000E+00  0.00000000000E+00  0.45593999997E+02  0.45594000000E+02  0.51100000000E-03 0. -1.
         11   -1    0    0    0    0 -0.00000000000E+00 -0.00000000000E+00 -0.45593999997E+02  0.45594000000E+02  0.51100000000E-03 0.  1.
    9900012    2    1    2    0    0  0.50804289679E+01 -0.19045383980E+02 -0.35561611054E+02  0.50528860926E+02  0.30000003272E+02 0.  0.
         12    1    1    2    0    0 -0.50804289679E+01  0.19045383980E+02  0.35561611054E+02  0.40659139074E+02  0.00000000000E+00 0. -1.
         11    1    3    3    0    0 -0.35543869850E+01 -0.15848857549E+02 -0.30122563063E+02  0.34222635173E+02  0.51100000000E-03 0. -1.
        -11    1    3    3    0    0  0.32289611418E+01 -0.76644737744E+01 -0.23477076329E+01  0.86418794070E+01  0.51100000000E-03 0.  1.
        -12    1    3    3    0    0  0.54058548111E+01  0.44679473434E+01 -0.30913403583E+01  0.76643463461E+01  0.00000000000E+00 0.  1.
</event>
<event>
 7    1  0.4520156E-012  0.5052885E+02  0.7816164E-02  0.1300439E+00
        -11   -1    0    0    0    0  0.00000000000E+00  0.00000000000E+00  0.45593999997E+02  0.45594000000E+02  0.51100000000E-03 0. -1.
         11   -1    0    0    0    0 -0.00000000000E+00 -0.00000000000E+00 -0.45593999997E+02  0.45594000000E+02  0.51100000000E-03 0.  1.
    9900012    2    1    2    0    0  0.29628720514E+00  0.93749036128E+01  0.39562476248E+02  0.50528854279E+02  0.29999983066E+02 0.  0.
        -12    1    1    2    0    0 -0.29628720514E+00 -0.93749036128E+01 -0.39562476248E+02  0.40659145721E+02  0.00000000000E+00 0.  1.
         11    1    3    3    0    0 -0.20886583118E+01 -0.25574169614E+01  0.16729968528E+01  0.37015934121E+01  0.51100000000E-03 0. -1.
        -11    1    3    3    0    0 -0.60963109214E+01  0.15881013730E+02  0.17559890643E+02  0.24448340713E+02  0.51100000000E-03 0.  1.
         12    1    3    3    0    0  0.84812564384E+01 -0.39486931561E+01  0.20329588753E+02  0.22378920154E+02  0.00000000000E+00 0. -1.
</event>
<event>
 7    1  0.4520156E-012  0.5052886E+02  0.7816164E-02  0.1300439E+00
        -11   -1    0    0    0    0  0.00000000000E+00  0.00000000000E+00  0.45593999997E+02  0.45594000000E+02  0.51100000000E-03 0. -1.
         11   -1    0    0    0    0 -0.00000000000E+00 -0.00000000000E+00 -0.45593999997E+02  0.45594000000E+02  0.51100000000E-03 0.  1.
    9900012    2    1    2    0    0  0.27332410930E+02  0.81479124608E+01 -0.28977867307E+02  0.50528856399E+02  0.29999989510E+02 0.  0.
         12    1    1    2    0    0 -0.27332410930E+02 -0.81479124608E+01  0.28977867307E+02  0.40659143601E+02  0.00000000000E+00 0. -1.
         11    1    3    3    0    0  0.67081266651E+01 -0.47498666419E+00  0.13423457037E+01  0.68575847013E+01  0.51100000000E-03 0. -1.
        -11    1    3    3    0    0  0.58915521745E+01 -0.66845621064E+01 -0.37904581153E+01  0.96830434557E+01  0.51100000000E-03 0.  1.
        -12    1    3    3    0    0  0.14732732090E+02  0.15307461231E+02 -0.26529754896E+02  0.33988228242E+02  0.00000000000E+00 0.  1.
</event>
<event>
 7    1  0.4520156E-012  0.5052886E+02  0.7816164E-02  0.1300439E+00
        -11   -1    0    0    0    0  0.00000000000E+00  0.00000000000E+00  0.45593999997E+02  0.45594000000E+02  0.51100000000E-03 0. -1.
         11   -1    0    0    0    0 -0.00000000000E+00 -0.00000000000E+00 -0.45593999997E+02  0.45594000000E+02  0.51100000000E-03 0.  1.
    9900012    2    1    2    0    0  0.13911998776E+02  0.17393406374E+02 -0.34016048754E+02  0.50528857510E+02  0.29999992887E+02 0.  0.
         12    1    1    2    0    0 -0.13911998776E+02 -0.17393406374E+02  0.34016048754E+02  0.40659142490E+02  0.00000000000E+00 0. -1.
         11    1    3    3    0    0  0.10658308937E+02 -0.22735242306E+01 -0.81515113926E+01  0.13609393817E+02  0.51100000000E-03 0. -1.
        -11    1    3    3    0    0  0.58293399323E+01 -0.64061263188E+00 -0.62011174033E+01  0.85349543585E+01  0.51100000000E-03 0.  1.
        -12    1    3    3    0    0 -0.25756500933E+01  0.20307543236E+02 -0.19663419958E+02  0.28384509334E+02  0.00000000000E+00 0.  1.
</event>
<event>
 7    1  0.4520156E-012  0.5052886E+02  0.7816164E-02  0.1300439E+00
        -11   -1    0    0    0    0  0.00000000000E+00  0.00000000000E+00  0.45593999997E+02  0.45594000000E+02  0.51100000000E-03 0. -1.
         11   -1    0    0    0    0 -0.00000000000E+00 -0.00000000000E+00 -0.45593999997E+02  0.45594000000E+02  0.51100000000E-03 0.  1.
    9900012    2    1    2    0    0 -0.10484175521E+01 -0.32085186470E+02 -0.24952107424E+02  0.50528855456E+02  0.29999986643E+02 0.  0.
         12    1    1    2    0    0  0.10484175521E+01  0.32085186470E+02  0.24952107424E+02  0.40659144544E+02  0.00000000000E+00 0. -1.
         11    1    3    3    0    0 -0.54257253637E+01 -0.13482228423E+02 -0.37152517610E+01  0.15000402490E+02  0.51100000000E-03 0. -1.
        -11    1    3    3    0    0  0.33872655222E+01 -0.21088537245E+02 -0.93004778327E+01  0.23295897901E+02  0.51100000000E-03 0.  1.
        -12    1    3    3    0    0  0.99004228942E+00  0.24855791976E+01 -0.11936377830E+02  0.12232555064E+02  0.00000000000E+00 0.  1.
</event>
<event>
 7    1  0.4520156E-012  0.5052886E+02  0.7816164E-02  0.1300439E+00
        -11   -1    0    0    0    0  0.00000000000E+00  0.00000000000E+00  0.45593999997E+02  0.45594000000E+02  0.51100000000E-03 0. -1.
         11   -1    0    0    0    0 -0.00000000000E+00 -0.00000000000E+00 -0.45593999997E+02  0.45594000000E+02  0.51100000000E-03 0.  1.
    9900012    2    1    2    0    0 -0.54696568061E+01  0.13766482416E+02  0.37864661205E+02  0.50528858938E+02  0.29999997229E+02 0.  0.
        -12    1    1    2    0    0  0.54696568061E+01 -0.13766482416E+02 -0.37864661205E+02  0.40659141062E+02  0.00000000000E+00 0.  1.
         11    1    3    3    0    0 -0.34201845313E+01 -0.14697482267E+01  0.77494461958E+00  0.38024152196E+01  0.51100000000E-03 0. -1.
        -11    1    3    3    0    0 -0.52338315816E+00 -0.50895172540E+01  0.18308804695E+02  0.19010245802E+02  0.51100000000E-03 0.  1.
         12    1    3    3    0    0 -0.15260891167E+01  0.20325747896E+02  0.18780911891E+02  0.27716197917E+02  0.00000000000E+00 0. -1.
</event>
<event>
 7    1  0.4520156E-012  0.5052886E+02  0.7816164E-02  0.1300439E+00
        -11   -1    0    0    0    0  0.00000000000E+00  0.00000000000E+00  0.45593999997E+02  0.45594000000E+02  0.51100000000E-03 0. -1.
         11   -1    0    0    0    0 -0.00000000000E+00 -0.00000000000E+00 -0.45593999997E+02  0.45594000000E+02  0.51100000000E-03 0.  1.
    9900012    2    1    2    0    0  0.18677555904E+02  0.18393541492E+02  0.31080417259E+02  0.50528858345E+02  0.29999995425E+02 0.  0.
        -12    1    1    2    0    0 -0.18677555904E+02 -0.18393541492E+02 -0.31080417259E+02  0.40659141655E+02  0.00000000000E+00 0.  1.
         11    1    3    3    0    0  0.58541890643E+01  0.15797524578E+02  0.15062478152E+02  0.22598928309E+02  0.51100000000E-03 0. -1.
        -11    1    3    3    0    0 -0.27751870291E+01  0.22622138441E+01  0.10957563647E+02  0.11527683023E+02  0.51100000000E-03 0.  1.
         12    1    3    3    0    0  0.15598553868E+02  0.33380306945E+00  0.50603754600E+01  0.16402247013E+02  0.00000000000E+00 0. -1.
</event>
<event>
 7    1  0.4520156E-012  0.5052888E+02  0.7816164E-02  0.1300439E+00
        -11   -1    0    0    0    0  0.00000000000E+00  0.00000000000E+00  0.45593999997E+02  0.45594000000E+02  0.51100000000E-03 0. -1.
         11   -1    0    0    0    0 -0.00000000000E+00 -0.00000000000E+00 -0.45593999997E+02  0.45594000000E+02  0.51100000000E-03 0.  1.
    9900012    2    1    2    0    0  0.64122975659E+00 -0.49039469746E+01 -0.40357209730E+02  0.50528877423E+02  0.30000053416E+02 0.  0.
         12    1    1    2    0    0 -0.64122975659E+00  0.49039469746E+01  0.40357209730E+02  0.40659122577E+02  0.00000000000E+00 0. -1.
         11    1    3    3    0    0  0.17897522478E+01  0.30996536835E+01 -0.32502183428E+01  0.48347684126E+01  0.51100000000E-03 0. -1.
        -11    1    3    3    0    0  0.97870571186E+01  0.28352247183E+01 -0.21385056617E+02  0.23688512681E+02  0.51100000000E-03 0.  1.
        -12    1    3    3    0    0 -0.10935579610E+02 -0.10838825376E+02 -0.15721934770E+02  0.22005596330E+02  0.00000000000E+00 0.  1.
</event>
<event>
 7    1  0.4520156E-012  0.5052886E+02  0.7816164E-02  0.1300439E+00
        -11   -1    0    0    0    0  0.00000000000E+00  0.00000000000E+00  0.45593999997E+02  0.45594000000E+02  0.51100000000E-03 0. -1.
         11   -1    0    0    0    0 -0.00000000000E+00 -0.00000000000E+00 -0.45593999997E+02  0.45594000000E+02  0.51100000000E-03 0.  1.
    9900012    2    1    2    0    0  0.20221675187E+02 -0.14731461539E+02 -0.32050486960E+02  0.50528858091E+02  0.29999994652E+02 0.  0.
         12    1    1    2    0    0 -0.20221675187E+02  0.14731461539E+02  0.32050486960E+02  0.40659141909E+02  0.00000000000E+00 0. -1.
         11    1    3    3    0    0  0.94791556445E+01 -0.25176268912E+01 -0.24150344130E+02  0.26065915652E+02  0.51100000000E-03 0. -1.
        -11    1    3    3    0    0  0.45959544046E+01  0.28064769385E+01  0.16500608358E+01  0.56322118851E+01  0.51100000000E-03 0.  1.
        -12    1    3    3    0    0  0.61465651381E+01 -0.15020311586E+02 -0.95502036658E+01  0.18830730554E+02  0.00000000000E+00 0.  1.
</event>
<event>
 7    1  0.4520156E-012  0.5052883E+02  0.7816164E-02  0.1300439E+00
        -11   -1    0    0    0    0  0.00000000000E+00  0.00000000000E+00  0.45593999997E+02  0.45594000000E+02  0.51100000000E-03 0. -1.
         11   -1    0    0    0    0 -0.00000000000E+00 -0.00000000000E+00 -0.45593999997E+02  0.45594000000E+02  0.51100000000E-03 0.  1.
    9900012    2    1    2    0    0 -0.31116134128E+01 -0.25188352756E+02  0.31765275634E+02  0.50528831432E+02  0.29999913620E+02 0.  0.
        -12    1    1    2    0    0  0.31116134128E+01  0.25188352756E+02 -0.31765275634E+02  0.40659168568E+02  0.00000000000E+00 0.  1.
         11    1    3    3    0    0  0.42904151711E+01 -0.17941652376E+01 -0.93586864279E+00  0.47436843927E+01  0.51100000000E-03 0. -1.
        -11    1    3    3    0    0 -0.38871276490E+01 -0.60790634673E+01 -0.14264154558E+01  0.73552318327E+01  0.51100000000E-03 0.  1.
        -12    1    3    3    0    0 -0.35149009349E+01 -0.17315124051E+02  0.34127559732E+02  0.38429915206E+02  0.00000000000E+00 0.  1.
</event>
<event>
 7    1  0.6998546E-012  0.5052886E+02  0.7816164E-02  0.1300439E+00
        -11   -1    0    0    0    0  0.00000000000E+00  0.00000000000E+00  0.45593999997E+02  0.45594000000E+02  0.51100000000E-03 0. -1.
         11   -1    0    0    0    0 -0.00000000000E+00 -0.00000000000E+00 -0.45593999997E+02  0.45594000000E+02  0.51100000000E-03 0.  1.
    9900012    2    1    2    0    0 -0.21472522145E+02  0.18362120502E+01  0.34477885659E+02  0.50528862264E+02  0.30000007338E+02 0.  0.
        -12    1    1    2    0    0  0.21472522145E+02 -0.18362120502E+01 -0.34477885659E+02  0.40659137736E+02  0.00000000000E+00 0.  1.
         11    1    3    3    0    0 -0.45797933819E+01  0.36627826517E+01  0.22708535110E+02  0.23453529613E+02  0.51100000000E-03 0. -1.
        -11    1    3    3    0    0 -0.90919051836E+01  0.61342040635E+01  0.14186667709E+00  0.10968651958E+02  0.51100000000E-03 0.  1.
         12    1    3    3    0    0 -0.78008235792E+01 -0.79607746650E+01  0.11627483871E+02  0.16106680693E+02  0.00000000000E+00 0. -1.
</event>
<event>
 7    1  0.4520156E-012  0.5052886E+02  0.7816164E-02  0.1300439E+00
        -11   -1    0    0    0    0  0.00000000000E+00  0.00000000000E+00  0.45593999997E+02  0.45594000000E+02  0.51100000000E-03 0. -1.
         11   -1    0    0    0    0 -0.00000000000E+00 -0.00000000000E+00 -0.45593999997E+02  0.45594000000E+02  0.51100000000E-03 0.  1.
    9900012    2    1    2    0    0 -0.18572463036E+02 -0.21464157438E+02 -0.29112182966E+02  0.50528860378E+02  0.30000001606E+02 0.  0.
         12    1    1    2    0    0  0.18572463036E+02  0.21464157438E+02  0.29112182966E+02  0.40659139622E+02  0.00000000000E+00 0. -1.
         11    1    3    3    0    0  0.16145117368E+01 -0.34333261293E+01  0.38066427653E+01  0.53744679608E+01  0.51100000000E-03 0. -1.
        -11    1    3    3    0    0 -0.32469334717E+01 -0.11286483243E+02 -0.18481816042E+02  0.21897598166E+02  0.51100000000E-03 0.  1.
         12    1    3    3    0    0 -0.16940041301E+02 -0.67443480655E+01 -0.14437009689E+02  0.23256794251E+02  0.00000000000E+00 0. -1.
</event>
<event>
 7    1  0.4520156E-012  0.5052888E+02  0.7816164E-02  0.1300439E+00
        -11   -1    0    0    0    0  0.00000000000E+00  0.00000000000E+00  0.45593999997E+02  0.45594000000E+02  0.51100000000E-03 0. -1.
         11   -1    0    0    0    0 -0.00000000000E+00 -0.00000000000E+00 -0.45593999997E+02  0.45594000000E+02  0.51100000000E-03 0.  1.
    9900012    2    1    2    0    0  0.28241097731E+01 -0.81508868185E+01 -0.39733510053E+02  0.50528875894E+02  0.30000048767E+02 0.  0.
         12    1    1    2    0    0 -0.28241097731E+01  0.81508868185E+01  0.39733510053E+02  0.40659124106E+02  0.00000000000E+00 0. -1.
         11    1    3    3    0    0 -0.75941403138E+01  0.20383188908E+01 -0.35874578558E+01  0.86426596100E+01  0.51100000000E-03 0. -1.
        -11    1    3    3    0    0 -0.18780789571E+00 -0.10475173590E+02 -0.19748170410E+02  0.22355195556E+02  0.51100000000E-03 0.  1.
        -12    1    3    3    0    0  0.10606057983E+02  0.28596788046E+00 -0.16397881787E+02  0.19531020728E+02  0.00000000000E+00 0.  1.
</event>
<event>
 7    1  0.4520156E-012  0.5052886E+02  0.7816164E-02  0.1300439E+00
        -11   -1    0    0    0    0  0.00000000000E+00  0.00000000000E+00  0.45593999997E+02  0.45594000000E+02  0.51100000000E-03 0. -1.
         11   -1    0    0    0    0 -0.00000000000E+00 -0.00000000000E+00 -0.45593999997E+02  0.45594000000E+02  0.51100000000E-03 0.  1.
    9900012    2    1    2    0    0  0.16974108830E+02  0.25193108263E+02 -0.27025032451E+02  0.50528862607E+02  0.30000008381E+02 0.  0.
         12    1    1    2    0    0 -0.16974108830E+02 -0.25193108263E+02  0.27025032451E+02  0.40659137393E+02  0.00000000000E+00 0. -1.
         11    1    3    3    0    0  0.63852451491E+01  0.14101974409E+02 -0.52498128499E+01  0.16346179158E+02  0.51100000000E-03 0. -1.
        -11    1    3    3    0    0  0.82644771084E+00 -0.95535104129E+00  0.39493413584E+01  0.41464453279E+01  0.51100000000E-03 0.  1.
        -12    1    3    3    0    0  0.97624159701E+01  0.12046484896E+02 -0.25724560960E+02  0.30036238121E+02  0.00000000000E+00 0.  1.
</event>
<event>
 7    1  0.4520156E-012  0.5052886E+02  0.7816164E-02  0.1300439E+00
        -11   -1    0    0    0    0  0.00000000000E+00  0.00000000000E+00  0.45593999997E+02  0.45594000000E+02  0.51100000000E-03 0. -1.
         11   -1    0    0    0    0 -0.00000000000E+00 -0.00000000000E+00 -0.45593999997E+02  0.45594000000E+02  0.51100000000E-03 0.  1.
    9900012    2    1    2    0    0 -0.51946211063E+01  0.12242095837E+02 -0.38422816263E+02  0.50528858242E+02  0.29999995112E+02 0.  0.
         12    1    1    2    0    0  0.51946211063E+01 -0.12242095837E+02  0.38422816263E+02  0.40659141758E+02  0.00000000000E+00 0. -1.
         11    1    3    3    0    0 -0.26330204502E+01  0.14398930359E+01 -0.13602154848E+02  0.13929275122E+02  0.51100000000E-03 0. -1.
        -11    1    3    3    0    0 -0.76077166611E+01 -0.35411957003E+01 -0.18149104823E+02  0.19995185068E+02  0.51100000000E-03 0.  1.
         12    1    3    3    0    0  0.50461160050E+01  0.14343398501E+02 -0.66715565919E+01  0.16604398052E+02  0.00000000000E+00 0. -1.
</event>
<event>
 7    1  0.4520156E-012  0.5052886E+02  0.7816164E-02  0.1300439E+00
        -11   -1    0    0    0    0  0.00000000000E+00  0.00000000000E+00  0.45593999997E+02  0.45594000000E+02  0.51100000000E-03 0. -1.
         11   -1    0    0    0    0 -0.00000000000E+00 -0.00000000000E+00 -0.45593999997E+02  0.45594000000E+02  0.51100000000E-03 0.  1.
    9900012    2    1    2    0    0 -0.34354093654E+02 -0.32362616207E+00 -0.21745283524E+02  0.50528857852E+02  0.29999993926E+02 0.  0.
         12    1    1    2    0    0  0.34354093654E+02  0.32362616207E+00  0.21745283524E+02  0.40659142148E+02  0.00000000000E+00 0. -1.
         11    1    3    3    0    0 -0.18519513875E+02  0.29328438400E+01 -0.32660241364E+01  0.19032626751E+02  0.51100000000E-03 0. -1.
        -11    1    3    3    0    0 -0.11820776880E+02 -0.10826845026E+02 -0.78657635374E+01  0.17855575475E+02  0.51100000000E-03 0.  1.
         12    1    3    3    0    0 -0.40138028994E+01  0.75703750238E+01 -0.10613495850E+02  0.13640655625E+02  0.00000000000E+00 0. -1.
</event>
<event>
 7    1  0.4520156E-012  0.5052886E+02  0.7816164E-02  0.1300439E+00
        -11   -1    0    0    0    0  0.00000000000E+00  0.00000000000E+00  0.45593999997E+02  0.45594000000E+02  0.51100000000E-03 0. -1.
         11   -1    0    0    0    0 -0.00000000000E+00 -0.00000000000E+00 -0.45593999997E+02  0.45594000000E+02  0.51100000000E-03 0.  1.
    9900012    2    1    2    0    0  0.92545923645E+01  0.28545058112E+02 -0.27435333139E+02  0.50528864164E+02  0.30000013114E+02 0.  0.
         12    1    1    2    0    0 -0.92545923645E+01 -0.28545058112E+02  0.27435333139E+02  0.40659135836E+02  0.00000000000E+00 0. -1.
         11    1    3    3    0    0  0.40380144281E+01  0.51124196685E+01 -0.38747672797E+01  0.75799879368E+01  0.51100000000E-03 0. -1.
        -11    1    3    3    0    0  0.10242379513E+01  0.21215772448E+02 -0.28862302950E+02  0.35835605140E+02  0.51100000000E-03 0.  1.
         12    1    3    3    0    0  0.41923399850E+01  0.22168659954E+01  0.53017370899E+01  0.71132710873E+01  0.00000000000E+00 0. -1.
</event>
<event>
 7    1  0.4520156E-012  0.5052886E+02  0.7816164E-02  0.1300439E+00
        -11   -1    0    0    0    0  0.00000000000E+00  0.00000000000E+00  0.45593999997E+02  0.45594000000E+02  0.51100000000E-03 0. -1.
         11   -1    0    0    0    0 -0.00000000000E+00 -0.00000000000E+00 -0.45593999997E+02  0.45594000000E+02  0.51100000000E-03 0.  1.
    9900012    2    1    2    0    0  0.24374947106E+01  0.73514612544E+01  0.39914662478E+02  0.50528860268E+02  0.30000001269E+02 0.  0.
        -12    1    1    2    0    0 -0.24374947106E+01 -0.73514612544E+01 -0.39914662478E+02  0.40659139732E+02  0.00000000000E+00 0.  1.
         11    1    3    3    0    0 -0.28483701573E+01 -0.18639918717E+01  0.40026630731E+01  0.52544257715E+01  0.51100000000E-03 0. -1.
        -11    1    3    3    0    0 -0.34356067666E+00 -0.24672877601E+01 -0.32076117687E+01  0.40613195331E+01  0.51100000000E-03 0.  1.
         12    1    3    3    0    0  0.56294255446E+01  0.11682740886E+02  0.39119611174E+02  0.41213114963E+02  0.00000000000E+00 0. -1.
</event>
<event>
 7    1  0.4520156E-012  0.5052887E+02  0.7816164E-02  0.1300439E+00
        -11   -1    0    0    0    0  0.00000000000E+00  0.00000000000E+00  0.45593999997E+02  0.45594000000E+02  0.51100000000E-03 0. -1.
         11   -1    0    0    0    0 -0.00000000000E+00 -0.00000000000E+00 -0.45593999997E+02  0.45594000000E+02  0.51100000000E-03 0.  1.
    9900012    2    1    2    0    0  0.57888680846E+01  0.13604225854E+02  0.37875831397E+02  0.50528873610E+02  0.30000041825E+02 0.  0.
        -12    1    1    2    0    0 -0.57888680846E+01 -0.13604225854E+02 -0.37875831397E+02  0.40659126390E+02  0.00000000000E+00 0.  1.
         11    1    3    3    0    0  0.30940696215E+01  0.99132371570E+00  0.12849720470E+02  0.13254105249E+02  0.51100000000E-03 0. -1.
        -11    1    3    3    0    0  0.11489682888E+02 -0.23658622693E+00  0.14399175763E+02  0.18422948972E+02  0.51100000000E-03 0.  1.
         12    1    3    3    0    0 -0.87948844249E+01  0.12849488365E+02  0.10626935164E+02  0.18851819389E+02  0.00000000000E+00 0. -1.
</event>
<event>
 7    1  0.4520156E-012  0.5052886E+02  0.7816164E-02  0.1300439E+00
        -11   -1    0    0    0    0  0.00000000000E+00  0.00000000000E+00  0.45593999997E+02  0.45594000000E+02  0.51100000000E-03 0.  1.
         11   -1    0    0    0    0 -0.00000000000E+00 -0.00000000000E+00 -0.45593999997E+02  0.45594000000E+02  0.51100000000E-03 0. -1.
    9900012    2    1    2    0    0  0.15147873360E+02 -0.24229576285E+02 -0.28924652023E+02  0.50528856761E+02  0.29999990611E+02 0.  0.
         12    1    1    2    0    0 -0.15147873360E+02  0.24229576285E+02  0.28924652023E+02  0.40659143239E+02  0.00000000000E+00 0. -1.
         11    1    3    3    0    0 -0.28598909562E+01 -0.41428117632E+00 -0.12507770941E+02  0.12837248122E+02  0.51100000000E-03 0. -1.
        -11    1    3    3    0    0 -0.80798351836E+00 -0.11168504003E+02 -0.64903024382E+01  0.12942656027E+02  0.51100000000E-03 0.  1.
        -12    1    3    3    0    0  0.18815747834E+02 -0.12646791106E+02 -0.99265786436E+01  0.24748952612E+02  0.00000000000E+00 0.  1.
</event>
<event>
 7    1  0.4520156E-012  0.5052888E+02  0.7816164E-02  0.1300439E+00
        -11   -1    0    0    0    0  0.00000000000E+00  0.00000000000E+00  0.45593999997E+02  0.45594000000E+02  0.51100000000E-03 0.  1.
         11   -1    0    0    0    0 -0.00000000000E+00 -0.00000000000E+00 -0.45593999997E+02  0.45594000000E+02  0.51100000000E-03 0. -1.
    9900012    2    1    2    0    0 -0.35860598687E+02 -0.18585103625E+02  0.46664394244E+01  0.50528877139E+02  0.30000052552E+02 0.  0.
         12    1    1    2    0    0  0.35860598687E+02  0.18585103625E+02 -0.46664394244E+01  0.40659122861E+02  0.00000000000E+00 0. -1.
         11    1    3    3    0    0 -0.62678561904E+01 -0.67885508103E+01  0.52750947345E+01  0.10639411076E+02  0.51100000000E-03 0. -1.
        -11    1    3    3    0    0 -0.20765127265E+02 -0.19227840149E+02  0.43253003849E+00  0.28303487941E+02  0.51100000000E-03 0.  1.
         12    1    3    3    0    0 -0.88276152311E+01  0.74312873344E+01 -0.10411853486E+01  0.11585978122E+02  0.00000000000E+00 0. -1.
</event>
<event>
 7    1  0.4520156E-012  0.5052886E+02  0.7816164E-02  0.1300439E+00
        -11   -1    0    0    0    0  0.00000000000E+00  0.00000000000E+00  0.45593999997E+02  0.45594000000E+02  0.51100000000E-03 0. -1.
         11   -1    0    0    0    0 -0.00000000000E+00 -0.00000000000E+00 -0.45593999997E+02  0.45594000000E+02  0.51100000000E-03 0.  1.
    9900012    2    1    2    0    0  0.12706663816E+02 -0.28795798476E+02  0.25739232781E+02  0.50528863028E+02  0.30000009659E+02 0.  0.
        -12    1    1    2    0    0 -0.12706663816E+02  0.28795798476E+02 -0.25739232781E+02  0.40659136972E+02  0.00000000000E+00 0.  1.
         11    1    3    3    0    0  0.55799091555E+01  0.28015982631E+01 -0.22283468386E+00  0.62477191493E+01  0.51100000000E-03 0.  1.
        -11    1    3    3    0    0  0.29575112319E+00 -0.21250743936E+02  0.85548647929E+01  0.22909982506E+02  0.51100000000E-03 0. -1.
        -12    1    3    3    0    0  0.68310035369E+01 -0.10346652803E+02  0.17407202672E+02  0.21371161373E+02  0.00000000000E+00 0.  1.
</event>
<event>
 7    1  0.4520156E-012  0.5052885E+02  0.7816164E-02  0.1300439E+00
        -11   -1    0    0    0    0  0.00000000000E+00  0.00000000000E+00  0.45593999997E+02  0.45594000000E+02  0.51100000000E-03 0. -1.
         11   -1    0    0    0    0 -0.00000000000E+00 -0.00000000000E+00 -0.45593999997E+02  0.45594000000E+02  0.51100000000E-03 0.  1.
    9900012    2    1    2    0    0 -0.14017342743E+02 -0.11944280442E+01 -0.38147785725E+02  0.50528854514E+02  0.29999983781E+02 0.  0.
         12    1    1    2    0    0  0.14017342743E+02  0.11944280442E+01  0.38147785725E+02  0.40659145486E+02  0.00000000000E+00 0. -1.
         11    1    3    3    0    0 -0.94675235600E+01  0.91905026896E+01 -0.16237224732E+02  0.20922399703E+02  0.51100000000E-03 0. -1.
        -11    1    3    3    0    0 -0.28172094236E+01  0.41232733350E+01 -0.80105266613E+01  0.94396286783E+01  0.51100000000E-03 0.  1.
         12    1    3    3    0    0 -0.17326097599E+01 -0.14508204069E+02 -0.13900034331E+02  0.20166826133E+02  0.00000000000E+00 0. -1.
</event>
<event>
 7    1  0.4520156E-012  0.5052888E+02  0.7816164E-02  0.1300439E+00
        -11   -1    0    0    0    0  0.00000000000E+00  0.00000000000E+00  0.45593999997E+02  0.45594000000E+02  0.51100000000E-03 0. -1.
         11   -1    0    0    0    0 -0.00000000000E+00 -0.00000000000E+00 -0.45593999997E+02  0.45594000000E+02  0.51100000000E-03 0.  1.
    9900012    2    1    2    0    0 -0.25703440328E+02 -0.26996518079E+02  0.16238381017E+02  0.50528882313E+02  0.30000068277E+02 0.  0.
        -12    1    1    2    0    0  0.25703440328E+02  0.26996518079E+02 -0.16238381017E+02  0.40659117687E+02  0.00000000000E+00 0.  1.
         11    1    3    3    0    0 -0.13712648318E+02 -0.14431989785E+02  0.58528370476E+01  0.20750295295E+02  0.51100000000E-03 0. -1.
        -11    1    3    3    0    0 -0.67159852188E+01 -0.17314563438E+02  0.18294425581E+01  0.18661335023E+02  0.51100000000E-03 0.  1.
         12    1    3    3    0    0 -0.52748067907E+01  0.47500351442E+01  0.85561014113E+01  0.11117251995E+02  0.00000000000E+00 0. -1.
</event>
<event>
 7    1  0.6583479E-012  0.5052885E+02  0.7816164E-02  0.1300439E+00
        -11   -1    0    0    0    0  0.00000000000E+00  0.00000000000E+00  0.45593999997E+02  0.45594000000E+02  0.51100000000E-03 0. -1.
         11   -1    0    0    0    0 -0.00000000000E+00 -0.00000000000E+00 -0.45593999997E+02  0.45594000000E+02  0.51100000000E-03 0.  1.
    9900012    2    1    2    0    0 -0.81301634517E+00 -0.14824400920E+02  0.37851581494E+02  0.50528854906E+02  0.29999984972E+02 0.  0.
        -12    1    1    2    0    0  0.81301634517E+00  0.14824400920E+02 -0.37851581494E+02  0.40659145094E+02  0.00000000000E+00 0.  1.
         11    1    3    3    0    0 -0.67340426099E+01  0.20410994630E+01  0.77601503433E+01  0.10475368753E+02  0.51100000000E-03 0. -1.
        -11    1    3    3    0    0 -0.23785116667E-01  0.16590845023E+01 -0.19547637228E+01  0.25640258561E+01  0.51100000000E-03 0.  1.
         12    1    3    3    0    0  0.59448113814E+01 -0.18524584885E+02  0.32046194873E+02  0.37489460297E+02  0.00000000000E+00 0. -1.
</event>
<event>
 7    1  0.4520156E-012  0.5052885E+02  0.7816164E-02  0.1300439E+00
        -11   -1    0    0    0    0  0.00000000000E+00  0.00000000000E+00  0.45593999997E+02  0.45594000000E+02  0.51100000000E-03 0. -1.
         11   -1    0    0    0    0 -0.00000000000E+00 -0.00000000000E+00 -0.45593999997E+02  0.45594000000E+02  0.51100000000E-03 0.  1.
    9900012    2    1    2    0    0 -0.29507308956E+02  0.26216872462E+02 -0.97550273817E+01  0.50528852902E+02  0.29999978881E+02 0.  0.
         12    1    1    2    0    0  0.29507308956E+02 -0.26216872462E+02  0.97550273817E+01  0.40659147098E+02  0.00000000000E+00 0. -1.
         11    1    3    3    0    0  0.19219622173E+01  0.23195333505E+01  0.37482988202E+01  0.48087335168E+01  0.51100000000E-03 0. -1.
        -11    1    3    3    0    0 -0.11370152559E+02  0.18989779944E+02 -0.11580706093E+02  0.24980089380E+02  0.51100000000E-03 0.  1.
        -12    1    3    3    0    0 -0.20059118614E+02  0.49075591678E+01 -0.19226201088E+01  0.20740030005E+02  0.00000000000E+00 0.  1.
</event>
<event>
 7    1  0.4520156E-012  0.5052886E+02  0.7816164E-02  0.1300439E+00
        -11   -1    0    0    0    0  0.00000000000E+00  0.00000000000E+00  0.45593999997E+02  0.45594000000E+02  0.51100000000E-03 0. -1.
         11   -1    0    0    0    0 -0.00000000000E+00 -0.00000000000E+00 -0.45593999997E+02  0.45594000000E+02  0.51100000000E-03 0.  1.
    9900012    2    1    2    0    0 -0.13044744723E+02  0.13636299744E+02 -0.36014602028E+02  0.50528860869E+02  0.30000003099E+02 0.  0.
         12    1    1    2    0    0  0.13044744723E+02 -0.13636299744E+02  0.36014602028E+02  0.40659139131E+02  0.00000000000E+00 0. -1.
         11    1    3    3    0    0 -0.86380796051E+01  0.41266906846E+01 -0.60449739120E+01  0.11322000933E+02  0.51100000000E-03 0. -1.
        -11    1    3    3    0    0 -0.69408710299E+01  0.12464645036E+02 -0.69668989612E+01  0.15877050983E+02  0.51100000000E-03 0.  1.
         12    1    3    3    0    0  0.25342059120E+01 -0.29550359761E+01 -0.23002729155E+02  0.23329808953E+02  0.00000000000E+00 0. -1.
</event>
<event>
 7    1  0.6450247E-012  0.5052886E+02  0.7816164E-02  0.1300439E+00
        -11   -1    0    0    0    0  0.00000000000E+00  0.00000000000E+00  0.45593999997E+02  0.45594000000E+02  0.51100000000E-03 0. -1.
         11   -1    0    0    0    0 -0.00000000000E+00 -0.00000000000E+00 -0.45593999997E+02  0.45594000000E+02  0.51100000000E-03 0.  1.
    9900012    2    1    2    0    0  0.19060558891E+02  0.31453543320E+02  0.17335958512E+02  0.50528858960E+02  0.29999997295E+02 0.  0.
        -12    1    1    2    0    0 -0.19060558891E+02 -0.31453543320E+02 -0.17335958512E+02  0.40659141040E+02  0.00000000000E+00 0.  1.
         11    1    3    3    0    0 -0.15052979110E+01  0.10997398590E+02  0.28126354148E+01  0.11450747389E+02  0.51100000000E-03 0. -1.
        -11    1    3    3    0    0 -0.32903819105E+01 -0.67212305060E+00 -0.11699078067E+01  0.35562686976E+01  0.51100000000E-03 0.  1.
         12    1    3    3    0    0  0.23856238712E+02  0.21128267781E+02  0.15693230903E+02  0.35521842873E+02  0.00000000000E+00 0. -1.
</event>
<event>
 7    1  0.4520156E-012  0.5052893E+02  0.7816164E-02  0.1300439E+00
        -11   -1    0    0    0    0  0.00000000000E+00  0.00000000000E+00  0.45593999997E+02  0.45594000000E+02  0.51100000000E-03 0. -1.
         11   -1    0    0    0    0 -0.00000000000E+00 -0.00000000000E+00 -0.45593999997E+02  0.45594000000E+02  0.51100000000E-03 0.  1.
    9900012    2    1    2    0    0  0.30832863060E+02  0.79172760106E+01 -0.25294485737E+02  0.50528933205E+02  0.30000222970E+02 0.  0.
         12    1    1    2    0    0 -0.30832863060E+02 -0.79172760106E+01  0.25294485737E+02  0.40659066795E+02  0.00000000000E+00 0. -1.
         11    1    3    3    0    0  0.46640430621E+01  0.53819935592E+01  0.17546175622E+01  0.73347007715E+01  0.51100000000E-03 0. -1.
        -11    1    3    3    0    0  0.26849150310E+02  0.76469264104E+01 -0.19503759039E+02  0.34055087326E+02  0.51100000000E-03 0.  1.
        -12    1    3    3    0    0 -0.68033031162E+00 -0.51116439590E+01 -0.75453442601E+01  0.91391451077E+01  0.00000000000E+00 0.  1.
</event>
<event>
 7    1  0.4520156E-012  0.5052886E+02  0.7816164E-02  0.1300439E+00
        -11   -1    0    0    0    0  0.00000000000E+00  0.00000000000E+00  0.45593999997E+02  0.45594000000E+02  0.51100000000E-03 0. -1.
         11   -1    0    0    0    0 -0.00000000000E+00 -0.00000000000E+00 -0.45593999997E+02  0.45594000000E+02  0.51100000000E-03 0.  1.
    9900012    2    1    2    0    0  0.26696112383E+02 -0.19738096865E+02  0.23471060246E+02  0.50528861381E+02  0.30000004653E+02 0.  0.
        -12    1    1    2    0    0 -0.26696112383E+02  0.19738096865E+02 -0.23471060246E+02  0.40659138619E+02  0.00000000000E+00 0.  1.
         11    1    3    3    0    0  0.64191047400E+01 -0.16923756828E+02  0.38930404229E+01  0.18514162548E+02  0.51100000000E-03 0. -1.
        -11    1    3    3    0    0 -0.18957029331E-01  0.38928024255E+01  0.38614387479E+01  0.54831541615E+01  0.51100000000E-03 0.  1.
         12    1    3    3    0    0  0.20295964672E+02 -0.67071424617E+01  0.15716581075E+02  0.26531544672E+02  0.00000000000E+00 0. -1.
</event>
<event>
 7    1  0.5232120E-012  0.5052886E+02  0.7816164E-02  0.1300439E+00
        -11   -1    0    0    0    0  0.00000000000E+00  0.00000000000E+00  0.45593999997E+02  0.45594000000E+02  0.51100000000E-03 0. -1.
         11   -1    0    0    0    0 -0.00000000000E+00 -0.00000000000E+00 -0.45593999997E+02  0.45594000000E+02  0.51100000000E-03 0.  1.
    9900012    2    1    2    0    0 -0.35330808907E+02  0.15119334902E+02  0.13277998953E+02  0.50528860780E+02  0.30000002827E+02 0.  0.
        -12    1    1    2    0    0  0.35330808907E+02 -0.15119334902E+02 -0.13277998953E+02  0.40659139220E+02  0.00000000000E+00 0.  1.
         11    1    3    3    0    0  0.19407967781E+01 -0.35506437131E+00 -0.33076015678E+01  0.38513622569E+01  0.51100000000E-03 0. -1.
        -11    1    3    3    0    0 -0.24016677595E+01 -0.87894740881E+00  0.63212220714E+01  0.68189739193E+01  0.51100000000E-03 0.  1.
         12    1    3    3    0    0 -0.34869937926E+02  0.16353346682E+02  0.10264378449E+02  0.39858524604E+02  0.00000000000E+00 0. -1.
</event>
<event>
 7    1  0.4520156E-012  0.5052884E+02  0.7816164E-02  0.1300439E+00
        -11   -1    0    0    0    0  0.00000000000E+00  0.00000000000E+00  0.45593999997E+02  0.45594000000E+02  0.51100000000E-03 0. -1.
         11   -1    0    0    0    0 -0.00000000000E+00 -0.00000000000E+00 -0.45593999997E+02  0.45594000000E+02  0.51100000000E-03 0.  1.
    9900012    2    1    2    0    0  0.36619326601E+02 -0.95424853052E+01  0.14870557980E+02  0.50528836197E+02  0.29999928104E+02 0.  0.
        -12    1    1    2    0    0 -0.36619326601E+02  0.95424853052E+01 -0.14870557980E+02  0.40659163803E+02  0.00000000000E+00 0.  1.
         11    1    3    3    0    0  0.18581201778E+02 -0.78961144000E+01  0.23221926108E+01  0.20322457059E+02  0.51100000000E-03 0.  1.
        -11    1    3    3    0    0  0.11184199824E+02 -0.61233662584E+01 -0.25761424836E+01  0.13008399225E+02  0.51100000000E-03 0. -1.
        -12    1    3    3    0    0  0.68539249992E+01  0.44769953532E+01  0.15124507853E+02  0.17197979913E+02  0.00000000000E+00 0.  1.
</event>
<event>
 7    1  0.4520156E-012  0.5052886E+02  0.7816164E-02  0.1300439E+00
        -11   -1    0    0    0    0  0.00000000000E+00  0.00000000000E+00  0.45593999997E+02  0.45594000000E+02  0.51100000000E-03 0.  1.
         11   -1    0    0    0    0 -0.00000000000E+00 -0.00000000000E+00 -0.45593999997E+02  0.45594000000E+02  0.51100000000E-03 0. -1.
    9900012    2    1    2    0    0  0.16009022990E+02  0.37037534141E+02  0.50097581608E+01  0.50528862907E+02  0.30000009291E+02 0.  0.
        -12    1    1    2    0    0 -0.16009022990E+02 -0.37037534141E+02 -0.50097581608E+01  0.40659137093E+02  0.00000000000E+00 0.  1.
         11    1    3    3    0    0 -0.30869059372E+01  0.18552599484E+02  0.94417988573E+01  0.21044607428E+02  0.51100000000E-03 0. -1.
        -11    1    3    3    0    0 -0.85084737888E-01  0.87364773734E+00  0.24064311617E+01  0.25615251275E+01  0.51100000000E-03 0.  1.
        -12    1    3    3    0    0  0.19181013665E+02  0.17611286920E+02 -0.68384718583E+01  0.26922730351E+02  0.00000000000E+00 0.  1.
</event>
<event>
 7    1  0.4520156E-012  0.5052886E+02  0.7816164E-02  0.1300439E+00
        -11   -1    0    0    0    0  0.00000000000E+00  0.00000000000E+00  0.45593999997E+02  0.45594000000E+02  0.51100000000E-03 0. -1.
         11   -1    0    0    0    0 -0.00000000000E+00 -0.00000000000E+00 -0.45593999997E+02  0.45594000000E+02  0.51100000000E-03 0.  1.
    9900012    2    1    2    0    0 -0.31159705113E+02  0.71400447826E+01  0.25124849717E+02  0.50528861599E+02  0.30000005317E+02 0.  0.
        -12    1    1    2    0    0  0.31159705113E+02 -0.71400447826E+01 -0.25124849717E+02  0.40659138401E+02  0.00000000000E+00 0.  1.
         11    1    3    3    0    0 -0.21741815329E+02  0.99161051943E+01  0.22593418352E+02  0.32886140381E+02  0.51100000000E-03 0. -1.
        -11    1    3    3    0    0  0.27001367641E+00  0.50138461141E+01  0.49126834085E+00  0.50450872227E+01  0.51100000000E-03 0.  1.
        -12    1    3    3    0    0 -0.96879034599E+01 -0.77899065257E+01  0.20401630240E+01  0.12597633996E+02  0.00000000000E+00 0.  1.
</event>
<event>
 7    1  0.4520156E-012  0.5052887E+02  0.7816164E-02  0.1300439E+00
        -11   -1    0    0    0    0  0.00000000000E+00  0.00000000000E+00  0.45593999997E+02  0.45594000000E+02  0.51100000000E-03 0. -1.
         11   -1    0    0    0    0 -0.00000000000E+00 -0.00000000000E+00 -0.45593999997E+02  0.45594000000E+02  0.51100000000E-03 0.  1.
    9900012    2    1    2    0    0 -0.20680766765E+02 -0.63491348920E+00 -0.35000966610E+02  0.50528869503E+02  0.30000029342E+02 0.  0.
         12    1    1    2    0    0  0.20680766765E+02  0.63491348920E+00  0.35000966610E+02  0.40659130497E+02  0.00000000000E+00 0. -1.
         11    1    3    3    0    0 -0.34463856194E+01 -0.90973717151E+01 -0.76552658691E+01  0.12379129281E+02  0.51100000000E-03 0. -1.
        -11    1    3    3    0    0 -0.10225292683E+02  0.25196046015E+01 -0.13988026960E+01  0.10623637185E+02  0.51100000000E-03 0.  1.
        -12    1    3    3    0    0 -0.70090884631E+01  0.59428536244E+01 -0.25946898045E+02  0.27526103038E+02  0.00000000000E+00 0.  1.
</event>
<event>
 7    1  0.4520156E-012  0.5052882E+02  0.7816164E-02  0.1300439E+00
        -11   -1    0    0    0    0  0.00000000000E+00  0.00000000000E+00  0.45593999997E+02  0.45594000000E+02  0.51100000000E-03 0.  1.
         11   -1    0    0    0    0 -0.00000000000E+00 -0.00000000000E+00 -0.45593999997E+02  0.45594000000E+02  0.51100000000E-03 0. -1.
    9900012    2    1    2    0    0  0.64283082387E+00 -0.40574585371E+02 -0.25414405147E+01  0.50528817404E+02  0.29999870981E+02 0.  0.
        -12    1    1    2    0    0 -0.64283082387E+00  0.40574585371E+02  0.25414405147E+01  0.40659182596E+02  0.00000000000E+00 0.  1.
         11    1    3    3    0    0 -0.16801019758E+01 -0.13732143770E+02  0.25103402803E+01  0.14060452473E+02  0.51100000000E-03 0. -1.
        -11    1    3    3    0    0 -0.40349085723E+01 -0.28983562841E+02 -0.28220376248E+01  0.29398831589E+02  0.51100000000E-03 0.  1.
        -12    1    3    3    0    0  0.63578413719E+01  0.21411212401E+01 -0.22297431702E+01  0.70695333425E+01  0.00000000000E+00 0.  1.
</event>
<event>
 7    1  0.4520156E-012  0.5052885E+02  0.7816164E-02  0.1300439E+00
        -11   -1    0    0    0    0  0.00000000000E+00  0.00000000000E+00  0.45593999997E+02  0.45594000000E+02  0.51100000000E-03 0. -1.
         11   -1    0    0    0    0 -0.00000000000E+00 -0.00000000000E+00 -0.45593999997E+02  0.45594000000E+02  0.51100000000E-03 0.  1.
    9900012    2    1    2    0    0 -0.13602090685E+02 -0.16953303188E+02  0.34361822394E+02  0.50528853449E+02  0.29999980545E+02 0.  0.
        -12    1    1    2    0    0  0.13602090685E+02  0.16953303188E+02 -0.34361822394E+02  0.40659146551E+02  0.00000000000E+00 0.  1.
         11    1    3    3    0    0 -0.22166118516E+01  0.43246049879E+01  0.55300376994E+00  0.48909497883E+01  0.51100000000E-03 0.  1.
        -11    1    3    3    0    0  0.43230081750E+01 -0.44166212828E+01  0.13792896342E+02  0.15114196406E+02  0.51100000000E-03 0. -1.
         12    1    3    3    0    0 -0.15708487008E+02 -0.16861286893E+02  0.20015922282E+02  0.30523707255E+02  0.00000000000E+00 0. -1.
</event>
<event>
 7    1  0.4520156E-012  0.5052886E+02  0.7816164E-02  0.1300439E+00
        -11   -1    0    0    0    0  0.00000000000E+00  0.00000000000E+00  0.45593999997E+02  0.45594000000E+02  0.51100000000E-03 0.  1.
         11   -1    0    0    0    0 -0.00000000000E+00 -0.00000000000E+00 -0.45593999997E+02  0.45594000000E+02  0.51100000000E-03 0. -1.
    9900012    2    1    2    0    0 -0.27582473282E+02  0.29544698971E+02  0.44140331028E+01  0.50528858865E+02  0.29999997006E+02 0.  0.
         12    1    1    2    0    0  0.27582473282E+02 -0.29544698971E+02 -0.44140331028E+01  0.40659141135E+02  0.00000000000E+00 0. -1.
         11    1    3    3    0    0 -0.12105156796E+01  0.11458966019E+01 -0.39965482627E+01  0.43302223396E+01  0.51100000000E-03 0. -1.
        -11    1    3    3    0    0 -0.17013554356E+02  0.47225037846E+01 -0.36460675105E+01  0.18029333941E+02  0.51100000000E-03 0.  1.
        -12    1    3    3    0    0 -0.93584032465E+01  0.23676298584E+02  0.12056648876E+02  0.28169302584E+02  0.00000000000E+00 0.  1.
</event>
<event>
 7    1  0.4520156E-012  0.5052883E+02  0.7816164E-02  0.1300439E+00
        -11   -1    0    0    0    0  0.00000000000E+00  0.00000000000E+00  0.45593999997E+02  0.45594000000E+02  0.51100000000E-03 0.  1.
         11   -1    0    0    0    0 -0.00000000000E+00 -0.00000000000E+00 -0.45593999997E+02  0.45594000000E+02  0.51100000000E-03 0. -1.
    9900012    2    1    2    0    0 -0.24904481485E+02  0.27598649659E+02  0.16469662459E+02  0.50528825850E+02  0.29999896654E+02 0.  0.
         12    1    1    2    0    0  0.24904481485E+02 -0.27598649659E+02 -0.16469662459E+02  0.40659174150E+02  0.00000000000E+00 0. -1.
         11    1    3    3    0    0 -0.76515231483E-01  0.33527232044E+01  0.37581677578E+01  0.50369070493E+01  0.51100000000E-03 0. -1.
        -11    1    3    3    0    0  0.27015842342E+01  0.13142450622E+02  0.74435916561E+01  0.15343716066E+02  0.51100000000E-03 0.  1.
         12    1    3    3    0    0 -0.27529550488E+02  0.11103475833E+02  0.52679030450E+01  0.30148202735E+02  0.00000000000E+00 0. -1.
</event>
<event>
 7    1  0.4520156E-012  0.5052885E+02  0.7816164E-02  0.1300439E+00
        -11   -1    0    0    0    0  0.00000000000E+00  0.00000000000E+00  0.45593999997E+02  0.45594000000E+02  0.51100000000E-03 0. -1.
         11   -1    0    0    0    0 -0.00000000000E+00 -0.00000000000E+00 -0.45593999997E+02  0.45594000000E+02  0.51100000000E-03 0.  1.
    9900012    2    1    2    0    0  0.76121460277E+01  0.16755255197E+02 -0.36255800951E+02  0.50528850397E+02  0.29999971267E+02 0.  0.
         12    1    1    2    0    0 -0.76121460277E+01 -0.16755255197E+02  0.36255800951E+02  0.40659149603E+02  0.00000000000E+00 0. -1.
         11    1    3    3    0    0 -0.71969463370E+01  0.14119416642E+01 -0.10802511704E+02  0.13056947393E+02  0.51100000000E-03 0. -1.
        -11    1    3    3    0    0  0.79794245726E+00 -0.35284092285E+01 -0.57899545749E+01  0.68271486060E+01  0.51100000000E-03 0.  1.
        -12    1    3    3    0    0  0.14011149907E+02  0.18871722762E+02 -0.19663334672E+02  0.30644754398E+02  0.00000000000E+00 0.  1.
</event>
<event>
 7    1  0.4520156E-012  0.5052874E+02  0.7816164E-02  0.1300439E+00
        -11   -1    0    0    0    0  0.00000000000E+00  0.00000000000E+00  0.45593999997E+02  0.45594000000E+02  0.51100000000E-03 0. -1.
         11   -1    0    0    0    0 -0.00000000000E+00 -0.00000000000E+00 -0.45593999997E+02  0.45594000000E+02  0.51100000000E-03 0.  1.
    9900012    2    1    2    0    0  0.93918304720E+01  0.27381657901E+02  0.28551946075E+02  0.50528741600E+02  0.29999640565E+02 0.  0.
        -12    1    1    2    0    0 -0.93918304720E+01 -0.27381657901E+02 -0.28551946075E+02  0.40659258400E+02  0.00000000000E+00 0.  1.
         11    1    3    3    0    0 -0.59096389444E+00  0.23112670388E+02  0.15803796111E+02  0.28005441303E+02  0.51100000000E-03 0. -1.
        -11    1    3    3    0    0  0.64504188904E+01  0.57179495902E+01  0.15555575243E+02  0.17784228203E+02  0.51100000000E-03 0.  1.
         12    1    3    3    0    0  0.35323754760E+01 -0.14489620778E+01 -0.28074252797E+01  0.47390720935E+01  0.00000000000E+00 0. -1.
</event>
<event>
 7    1  0.4520156E-012  0.5052886E+02  0.7816164E-02  0.1300439E+00
        -11   -1    0    0    0    0  0.00000000000E+00  0.00000000000E+00  0.45593999997E+02  0.45594000000E+02  0.51100000000E-03 0.  1.
         11   -1    0    0    0    0 -0.00000000000E+00 -0.00000000000E+00 -0.45593999997E+02  0.45594000000E+02  0.51100000000E-03 0. -1.
    9900012    2    1    2    0    0  0.11483839394E+02 -0.38324523686E+02  0.72469191980E+01  0.50528861779E+02  0.30000005863E+02 0.  0.
         12    1    1    2    0    0 -0.11483839394E+02  0.38324523686E+02 -0.72469191980E+01  0.40659138221E+02  0.00000000000E+00 0. -1.
         11    1    3    3    0    0  0.63561890406E+01 -0.28699924180E+01  0.67153138991E+01  0.96816029987E+01  0.51100000000E-03 0.  1.
        -11    1    3    3    0    0  0.57952617293E+00  0.23221483014E+01 -0.13563229173E+01  0.27509699083E+01  0.51100000000E-03 0. -1.
        -12    1    3    3    0    0  0.45481241808E+01 -0.37776679570E+02  0.18879282163E+01  0.38096288872E+02  0.00000000000E+00 0.  1.
</event>
<event>
 7    1  0.4520156E-012  0.5052886E+02  0.7816164E-02  0.1300439E+00
        -11   -1    0    0    0    0  0.00000000000E+00  0.00000000000E+00  0.45593999997E+02  0.45594000000E+02  0.51100000000E-03 0.  1.
         11   -1    0    0    0    0 -0.00000000000E+00 -0.00000000000E+00 -0.45593999997E+02  0.45594000000E+02  0.51100000000E-03 0. -1.
    9900012    2    1    2    0    0  0.19691673687E+01 -0.37901669844E+02 -0.14585997719E+02  0.50528861709E+02  0.30000005652E+02 0.  0.
        -12    1    1    2    0    0 -0.19691673687E+01  0.37901669844E+02  0.14585997719E+02  0.40659138291E+02  0.00000000000E+00 0.  1.
         11    1    3    3    0    0 -0.37923970954E+01 -0.32827796413E+01 -0.24134591506E+01  0.55663006778E+01  0.51100000000E-03 0. -1.
        -11    1    3    3    0    0 -0.62704235198E+01 -0.24805768329E+02 -0.14268155869E+02  0.29295471078E+02  0.51100000000E-03 0.  1.
         12    1    3    3    0    0  0.12031987984E+02 -0.98131218737E+01  0.20956173006E+01  0.15667089954E+02  0.00000000000E+00 0. -1.
</event>
<event>
 7    1  0.4520156E-012  0.5052894E+02  0.7816164E-02  0.1300439E+00
        -11   -1    0    0    0    0  0.00000000000E+00  0.00000000000E+00  0.45593999997E+02  0.45594000000E+02  0.51100000000E-03 0. -1.
         11   -1    0    0    0    0 -0.00000000000E+00 -0.00000000000E+00 -0.45593999997E+02  0.45594000000E+02  0.51100000000E-03 0.  1.
    9900012    2    1    2    0    0 -0.21582836470E+02 -0.28836691542E+02 -0.18862286808E+02  0.50528936155E+02  0.30000231935E+02 0.  0.
         12    1    1    2    0    0  0.21582836470E+02  0.28836691542E+02  0.18862286808E+02  0.40659063845E+02  0.00000000000E+00 0. -1.
         11    1    3    3    0    0 -0.75891298803E+01 -0.56387334558E+01 -0.51985520969E+00  0.94689205840E+01  0.51100000000E-03 0. -1.
        -11    1    3    3    0    0 -0.12147472704E+02 -0.14909723790E+02  0.16863668803E+01  0.19305563709E+02  0.51100000000E-03 0.  1.
        -12    1    3    3    0    0 -0.18462338851E+01 -0.82882342954E+01 -0.20028798479E+02  0.21754451862E+02  0.00000000000E+00 0.  1.
</event>
<event>
 7    1  0.4520156E-012  0.5052885E+02  0.7816164E-02  0.1300439E+00
        -11   -1    0    0    0    0  0.00000000000E+00  0.00000000000E+00  0.45593999997E+02  0.45594000000E+02  0.51100000000E-03 0. -1.
         11   -1    0    0    0    0 -0.00000000000E+00 -0.00000000000E+00 -0.45593999997E+02  0.45594000000E+02  0.51100000000E-03 0.  1.
    9900012    2    1    2    0    0  0.30797427857E+02 -0.15518047301E+02  0.21537768759E+02  0.50528845585E+02  0.29999956642E+02 0.  0.
        -12    1    1    2    0    0 -0.30797427857E+02  0.15518047301E+02 -0.21537768759E+02  0.40659154415E+02  0.00000000000E+00 0.  1.
         11    1    3    3    0    0  0.23351573138E+01 -0.10094729075E+02  0.42046128961E+00  0.10369826552E+02  0.51100000000E-03 0. -1.
        -11    1    3    3    0    0  0.11406382045E+01 -0.28178022688E+01 -0.25115629589E+01  0.39432237950E+01  0.51100000000E-03 0.  1.
        -12    1    3    3    0    0  0.27321632338E+02 -0.26055159572E+01  0.23628870428E+02  0.36215795238E+02  0.00000000000E+00 0.  1.
</event>
<event>
 7    1  0.4520156E-012  0.5052887E+02  0.7816164E-02  0.1300439E+00
        -11   -1    0    0    0    0  0.00000000000E+00  0.00000000000E+00  0.45593999997E+02  0.45594000000E+02  0.51100000000E-03 0. -1.
         11   -1    0    0    0    0 -0.00000000000E+00 -0.00000000000E+00 -0.45593999997E+02  0.45594000000E+02  0.51100000000E-03 0.  1.
    9900012    2    1    2    0    0 -0.13048846774E+02  0.45952863364E+01  0.38233171421E+02  0.50528874880E+02  0.30000045685E+02 0.  0.
        -12    1    1    2    0    0  0.13048846774E+02 -0.45952863364E+01 -0.38233171421E+02  0.40659125120E+02  0.00000000000E+00 0.  1.
         11    1    3    3    0    0 -0.15520258439E+02 -0.17463938576E+01  0.59381758179E+01  0.16708986978E+02  0.51100000000E-03 0. -1.
        -11    1    3    3    0    0 -0.83883700448E+00  0.26573328267E+01  0.29430362345E+01  0.40529653108E+01  0.51100000000E-03 0.  1.
         12    1    3    3    0    0  0.33102486697E+01  0.36843473674E+01  0.29351959368E+02  0.29766922591E+02  0.00000000000E+00 0. -1.
</event>
<event>
 7    1  0.4520156E-012  0.5052886E+02  0.7816164E-02  0.1300439E+00
        -11   -1    0    0    0    0  0.00000000000E+00  0.00000000000E+00  0.45593999997E+02  0.45594000000E+02  0.51100000000E-03 0. -1.
         11   -1    0    0    0    0 -0.00000000000E+00 -0.00000000000E+00 -0.45593999997E+02  0.45594000000E+02  0.51100000000E-03 0.  1.
    9900012    2    1    2    0    0 -0.18874512972E+02 -0.30823410298E+02  0.18623536680E+02  0.50528856124E+02  0.29999988673E+02 0.  0.
        -12    1    1    2    0    0  0.18874512972E+02  0.30823410298E+02 -0.18623536680E+02  0.40659143876E+02  0.00000000000E+00 0.  1.
         11    1    3    3    0    0 -0.55396042531E+01 -0.39216802839E+01  0.12654447198E+02  0.14359729304E+02  0.51100000000E-03 0. -1.
        -11    1    3    3    0    0  0.37665721750E+01 -0.55204107856E+01 -0.30453310361E+01  0.73441161873E+01  0.51100000000E-03 0.  1.
         12    1    3    3    0    0 -0.17101480894E+02 -0.21381319228E+02  0.90144205175E+01  0.28825010632E+02  0.00000000000E+00 0. -1.
</event>
<event>
 7    1  0.4520156E-012  0.5052885E+02  0.7816164E-02  0.1300439E+00
        -11   -1    0    0    0    0  0.00000000000E+00  0.00000000000E+00  0.45593999997E+02  0.45594000000E+02  0.51100000000E-03 0. -1.
         11   -1    0    0    0    0 -0.00000000000E+00 -0.00000000000E+00 -0.45593999997E+02  0.45594000000E+02  0.51100000000E-03 0.  1.
    9900012    2    1    2    0    0 -0.26724872634E+00 -0.20445167843E+01 -0.40606832111E+02  0.50528852384E+02  0.29999977308E+02 0.  0.
         12    1    1    2    0    0  0.26724872634E+00  0.20445167843E+01  0.40606832111E+02  0.40659147616E+02  0.00000000000E+00 0. -1.
         11    1    3    3    0    0  0.36748721785E+01 -0.34250154955E+01 -0.39642230904E+01  0.63992563352E+01  0.51100000000E-03 0.  1.
        -11    1    3    3    0    0 -0.27801693498E+01 -0.98777928895E+01 -0.70596764723E+01  0.12455487391E+02  0.51100000000E-03 0. -1.
         12    1    3    3    0    0 -0.11619515550E+01  0.11258291601E+02 -0.29582932548E+02  0.31674108659E+02  0.00000000000E+00 0. -1.
</event>
<event>
 7    1  0.4520156E-012  0.5052885E+02  0.7816164E-02  0.1300439E+00
        -11   -1    0    0    0    0  0.00000000000E+00  0.00000000000E+00  0.45593999997E+02  0.45594000000E+02  0.51100000000E-03 0. -1.
         11   -1    0    0    0    0 -0.00000000000E+00 -0.00000000000E+00 -0.45593999997E+02  0.45594000000E+02  0.51100000000E-03 0.  1.
    9900012    2    1    2    0    0 -0.14024649209E+02 -0.15460344470E+00 -0.38163483418E+02  0.50528853990E+02  0.29999982188E+02 0.  0.
         12    1    1    2    0    0  0.14024649209E+02  0.15460344470E+00  0.38163483418E+02  0.40659146010E+02  0.00000000000E+00 0. -1.
         11    1    3    3    0    0  0.56092625090E+01 -0.63271057080E+01 -0.12980882040E+02  0.15491913740E+02  0.51100000000E-03 0. -1.
        -11    1    3    3    0    0  0.21537505408E+00 -0.26354979760E+01 -0.27809356178E+01  0.38374261123E+01  0.51100000000E-03 0.  1.
        -12    1    3    3    0    0 -0.19849286772E+02  0.88080002393E+01 -0.22401665760E+02  0.31199514137E+02  0.00000000000E+00 0.  1.
</event>
<event>
 7    1  0.4520156E-012  0.5052887E+02  0.7816164E-02  0.1300439E+00
        -11   -1    0    0    0    0  0.00000000000E+00  0.00000000000E+00  0.45593999997E+02  0.45594000000E+02  0.51100000000E-03 0. -1.
         11   -1    0    0    0    0 -0.00000000000E+00 -0.00000000000E+00 -0.45593999997E+02  0.45594000000E+02  0.51100000000E-03 0.  1.
    9900012    2    1    2    0    0 -0.26615448355E+02 -0.15977615594E+02  0.26258298749E+02  0.50528873787E+02  0.30000042363E+02 0.  0.
        -12    1    1    2    0    0  0.26615448355E+02  0.15977615594E+02 -0.26258298749E+02  0.40659126213E+02  0.00000000000E+00 0.  1.
         11    1    3    3    0    0 -0.10231138370E+02 -0.41332663250E+01  0.41232773344E+00  0.11042196216E+02  0.51100000000E-03 0. -1.
        -11    1    3    3    0    0 -0.21001553972E+02 -0.10180456308E+02  0.15447224653E+02  0.27987920780E+02  0.51100000000E-03 0.  1.
         12    1    3    3    0    0  0.46172439863E+01 -0.16638929614E+01  0.10398746362E+02  0.11498756790E+02  0.00000000000E+00 0. -1.
</event>
<event>
 7    1  0.4520156E-012  0.5052889E+02  0.7816164E-02  0.1300439E+00
        -11   -1    0    0    0    0  0.00000000000E+00  0.00000000000E+00  0.45593999997E+02  0.45594000000E+02  0.51100000000E-03 0. -1.
         11   -1    0    0    0    0 -0.00000000000E+00 -0.00000000000E+00 -0.45593999997E+02  0.45594000000E+02  0.51100000000E-03 0.  1.
    9900012    2    1    2    0    0 -0.30597574988E+02  0.28048104562E+00 -0.26774486231E+02  0.50528888135E+02  0.30000085974E+02 0.  0.
         12    1    1    2    0    0  0.30597574988E+02 -0.28048104562E+00  0.26774486231E+02  0.40659111865E+02  0.00000000000E+00 0. -1.
         11    1    3    3    0    0 -0.12323343049E+02  0.23969107981E+01 -0.92778232602E+00  0.12588516417E+02  0.51100000000E-03 0. -1.
        -11    1    3    3    0    0 -0.11320106081E+02  0.39257141667E+01 -0.17068957816E+01  0.12102459538E+02  0.51100000000E-03 0.  1.
        -12    1    3    3    0    0 -0.69541258588E+01 -0.60421439192E+01 -0.24139808123E+02  0.25837912180E+02  0.00000000000E+00 0.  1.
</event>
<event>
 7    1  0.4520156E-012  0.5052888E+02  0.7816164E-02  0.1300439E+00
        -11   -1    0    0    0    0  0.00000000000E+00  0.00000000000E+00  0.45593999997E+02  0.45594000000E+02  0.51100000000E-03 0. -1.
         11   -1    0    0    0    0 -0.00000000000E+00 -0.00000000000E+00 -0.45593999997E+02  0.45594000000E+02  0.51100000000E-03 0.  1.
    9900012    2    1    2    0    0 -0.33863713066E+02 -0.17908843582E+02  0.13626665050E+02  0.50528883661E+02  0.30000072376E+02 0.  0.
        -12    1    1    2    0    0  0.33863713066E+02  0.17908843582E+02 -0.13626665050E+02  0.40659116339E+02  0.00000000000E+00 0.  1.
         11    1    3    3    0    0  0.81274076684E+00 -0.56565372565E+01  0.46511770860E+01  0.73682026190E+01  0.51100000000E-03 0. -1.
        -11    1    3    3    0    0  0.34648473530E+00 -0.37316900180E+01 -0.33906107767E+01  0.50538899635E+01  0.51100000000E-03 0.  1.
         12    1    3    3    0    0 -0.35022938568E+02 -0.85206163071E+01  0.12366098741E+02  0.38106791078E+02  0.00000000000E+00 0. -1.
</event>
<event>
 7    1  0.4520156E-012  0.5052885E+02  0.7816164E-02  0.1300439E+00
        -11   -1    0    0    0    0  0.00000000000E+00  0.00000000000E+00  0.45593999997E+02  0.45594000000E+02  0.51100000000E-03 0. -1.
         11   -1    0    0    0    0 -0.00000000000E+00 -0.00000000000E+00 -0.45593999997E+02  0.45594000000E+02  0.51100000000E-03 0.  1.
    9900012    2    1    2    0    0  0.13104089832E+02 -0.35826288074E+02 -0.14068628427E+02  0.50528851050E+02  0.29999973253E+02 0.  0.
         12    1    1    2    0    0 -0.13104089832E+02  0.35826288074E+02  0.14068628427E+02  0.40659148950E+02  0.00000000000E+00 0. -1.
         11    1    3    3    0    0 -0.33433670887E+01 -0.45296815732E+01 -0.46984331321E+00  0.56495018935E+01  0.51100000000E-03 0. -1.
        -11    1    3    3    0    0  0.17366538934E+01 -0.36318566265E+01  0.65061748772E+01  0.76509255058E+01  0.51100000000E-03 0.  1.
        -12    1    3    3    0    0  0.14710803028E+02 -0.27664749874E+02 -0.20104959991E+02  0.37228423651E+02  0.00000000000E+00 0.  1.
</event>
<event>
 7    1  0.4520156E-012  0.5052887E+02  0.7816164E-02  0.1300439E+00
        -11   -1    0    0    0    0  0.00000000000E+00  0.00000000000E+00  0.45593999997E+02  0.45594000000E+02  0.51100000000E-03 0. -1.
         11   -1    0    0    0    0 -0.00000000000E+00 -0.00000000000E+00 -0.45593999997E+02  0.45594000000E+02  0.51100000000E-03 0.  1.
    9900012    2    1    2    0    0 -0.20365446444E+02 -0.42488966510E+01  0.34933656867E+02  0.50528869246E+02  0.30000028560E+02 0.  0.
        -12    1    1    2    0    0  0.20365446444E+02  0.42488966510E+01 -0.34933656867E+02  0.40659130754E+02  0.00000000000E+00 0.  1.
         11    1    3    3    0    0 -0.45370865763E+01  0.30099819448E+01  0.99771379042E+01  0.11366108698E+02  0.51100000000E-03 0. -1.
        -11    1    3    3    0    0 -0.14008244764E+02  0.13200896821E+01  0.26737620390E+02  0.30213803179E+02  0.51100000000E-03 0.  1.
        -12    1    3    3    0    0 -0.18201151038E+01 -0.85789682780E+01 -0.17811014276E+01  0.89489573695E+01  0.00000000000E+00 0.  1.
</event>
<event>
 7    1  0.4520156E-012  0.5052886E+02  0.7816164E-02  0.1300439E+00
        -11   -1    0    0    0    0  0.00000000000E+00  0.00000000000E+00  0.45593999997E+02  0.45594000000E+02  0.51100000000E-03 0. -1.
         11   -1    0    0    0    0 -0.00000000000E+00 -0.00000000000E+00 -0.45593999997E+02  0.45594000000E+02  0.51100000000E-03 0.  1.
    9900012    2    1    2    0    0  0.21893789174E+02 -0.32279294335E+02 -0.11483680086E+02  0.50528858894E+02  0.29999997093E+02 0.  0.
         12    1    1    2    0    0 -0.21893789174E+02  0.32279294335E+02  0.11483680086E+02  0.40659141106E+02  0.00000000000E+00 0. -1.
         11    1    3    3    0    0 -0.17758722534E+01 -0.92812766268E+01 -0.52663878747E+01  0.10818070974E+02  0.51100000000E-03 0. -1.
        -11    1    3    3    0    0  0.69077727931E+00 -0.14589696355E+02 -0.39869248210E+01  0.15140408937E+02  0.51100000000E-03 0.  1.
        -12    1    3    3    0    0  0.22978884148E+02 -0.84083213531E+01 -0.22303673904E+01  0.24570378983E+02  0.00000000000E+00 0.  1.
</event>
<event>
 7    1  0.4520156E-012  0.5052883E+02  0.7816164E-02  0.1300439E+00
        -11   -1    0    0    0    0  0.00000000000E+00  0.00000000000E+00  0.45593999997E+02  0.45594000000E+02  0.51100000000E-03 0.  1.
         11   -1    0    0    0    0 -0.00000000000E+00 -0.00000000000E+00 -0.45593999997E+02  0.45594000000E+02  0.51100000000E-03 0. -1.
    9900012    2    1    2    0    0  0.67449214108E-01 -0.34960989365E+02 -0.20757959776E+02  0.50528828577E+02  0.29999904941E+02 0.  0.
         12    1    1    2    0    0 -0.67449214108E-01  0.34960989365E+02  0.20757959776E+02  0.40659171423E+02  0.00000000000E+00 0. -1.
         11    1    3    3    0    0  0.92530459681E+01 -0.22628343355E+02 -0.37345799961E+01  0.24730707040E+02  0.51100000000E-03 0.  1.
        -11    1    3    3    0    0  0.20336516695E+00 -0.37819497883E+00  0.16586179931E+01  0.17133017076E+01  0.51100000000E-03 0. -1.
         12    1    3    3    0    0 -0.93889619210E+01 -0.11954451031E+02 -0.18681997773E+02  0.24084819829E+02  0.00000000000E+00 0. -1.
</event>
<event>
 7    1  0.4520156E-012  0.5052886E+02  0.7816164E-02  0.1300439E+00
        -11   -1    0    0    0    0  0.00000000000E+00  0.00000000000E+00  0.45593999997E+02  0.45594000000E+02  0.51100000000E-03 0. -1.
         11   -1    0    0    0    0 -0.00000000000E+00 -0.00000000000E+00 -0.45593999997E+02  0.45594000000E+02  0.51100000000E-03 0.  1.
    9900012    2    1    2    0    0  0.27719216434E+02  0.27737594894E+02  0.10744148178E+02  0.50528857728E+02  0.29999993549E+02 0.  0.
        -12    1    1    2    0    0 -0.27719216434E+02 -0.27737594894E+02 -0.10744148178E+02  0.40659142272E+02  0.00000000000E+00 0.  1.
         11    1    3    3    0    0  0.18220353805E+01  0.72918191041E+00  0.32428740412E+01  0.37904816969E+01  0.51100000000E-03 0. -1.
        -11    1    3    3    0    0  0.10128417114E+01 -0.49812129369E+01  0.31424601329E+01  0.59760678211E+01  0.51100000000E-03 0.  1.
        -12    1    3    3    0    0  0.24884339342E+02  0.31989625921E+02  0.43588140036E+01  0.40762308210E+02  0.00000000000E+00 0.  1.
</event>
<event>
 7    1  0.4520156E-012  0.5052886E+02  0.7816164E-02  0.1300439E+00
        -11   -1    0    0    0    0  0.00000000000E+00  0.00000000000E+00  0.45593999997E+02  0.45594000000E+02  0.51100000000E-03 0. -1.
         11   -1    0    0    0    0 -0.00000000000E+00 -0.00000000000E+00 -0.45593999997E+02  0.45594000000E+02  0.51100000000E-03 0.  1.
    9900012    2    1    2    0    0 -0.23435890761E+02  0.11530027929E+02 -0.31160604390E+02  0.50528858522E+02  0.29999995963E+02 0.  0.
         12    1    1    2    0    0  0.23435890761E+02 -0.11530027929E+02  0.31160604390E+02  0.40659141478E+02  0.00000000000E+00 0. -1.
         11    1    3    3    0    0  0.36162368008E+01  0.63893575761E+01 -0.89197977631E+01  0.11552655592E+02  0.51100000000E-03 0. -1.
        -11    1    3    3    0    0  0.11149239543E+01 -0.31463350610E+00 -0.57883851126E+01  0.59031730570E+01  0.51100000000E-03 0.  1.
        -12    1    3    3    0    0 -0.28167051516E+02  0.54553038585E+01 -0.16452421514E+02  0.33073029873E+02  0.00000000000E+00 0.  1.
</event>
<event>
 7    1  0.4520156E-012  0.5052876E+02  0.7816164E-02  0.1300439E+00
        -11   -1    0    0    0    0  0.00000000000E+00  0.00000000000E+00  0.45593999997E+02  0.45594000000E+02  0.51100000000E-03 0. -1.
         11   -1    0    0    0    0 -0.00000000000E+00 -0.00000000000E+00 -0.45593999997E+02  0.45594000000E+02  0.51100000000E-03 0.  1.
    9900012    2    1    2    0    0 -0.16799551741E+02 -0.16598956129E+01  0.36989099605E+02  0.50528761422E+02  0.29999700817E+02 0.  0.
        -12    1    1    2    0    0  0.16799551741E+02  0.16598956129E+01 -0.36989099605E+02  0.40659238578E+02  0.00000000000E+00 0.  1.
         11    1    3    3    0    0 -0.33713498561E+01  0.10106989868E+02  0.67533082923E+01  0.12614452711E+02  0.51100000000E-03 0. -1.
        -11    1    3    3    0    0 -0.13247800834E+02 -0.26990544846E+01  0.20953397764E+02  0.24936599611E+02  0.51100000000E-03 0.  1.
        -12    1    3    3    0    0 -0.18040105162E+00 -0.90678309959E+01  0.92823935486E+01  0.12977709101E+02  0.00000000000E+00 0.  1.
</event>
<event>
 7    1  0.4520156E-012  0.5052887E+02  0.7816164E-02  0.1300439E+00
        -11   -1    0    0    0    0  0.00000000000E+00  0.00000000000E+00  0.45593999997E+02  0.45594000000E+02  0.51100000000E-03 0. -1.
         11   -1    0    0    0    0 -0.00000000000E+00 -0.00000000000E+00 -0.45593999997E+02  0.45594000000E+02  0.51100000000E-03 0.  1.
    9900012    2    1    2    0    0  0.13600063061E+02  0.44244851630E+01 -0.38060838265E+02  0.50528865803E+02  0.30000018093E+02 0.  0.
         12    1    1    2    0    0 -0.13600063061E+02 -0.44244851630E+01  0.38060838265E+02  0.40659134197E+02  0.00000000000E+00 0. -1.
         11    1    3    3    0    0  0.57396867283E+01 -0.19210466598E+01 -0.12314821366E+02  0.13721852992E+02  0.51100000000E-03 0.  1.
        -11    1    3    3    0    0 -0.35117827124E+01 -0.32205768747E+01 -0.20501828479E+02  0.21048270819E+02  0.51100000000E-03 0. -1.
        -12    1    3    3    0    0  0.11372159046E+02  0.95661086976E+01 -0.52441884211E+01  0.15758741992E+02  0.00000000000E+00 0.  1.
</event>
<event>
 7    1  0.4520156E-012  0.5052884E+02  0.7816164E-02  0.1300439E+00
        -11   -1    0    0    0    0  0.00000000000E+00  0.00000000000E+00  0.45593999997E+02  0.45594000000E+02  0.51100000000E-03 0. -1.
         11   -1    0    0    0    0 -0.00000000000E+00 -0.00000000000E+00 -0.45593999997E+02  0.45594000000E+02  0.51100000000E-03 0.  1.
    9900012    2    1    2    0    0  0.34626767298E+01 -0.12168670738E+01  0.40493163044E+02  0.50528841758E+02  0.29999945008E+02 0.  0.
        -12    1    1    2    0    0 -0.34626767298E+01  0.12168670738E+01 -0.40493163044E+02  0.40659158242E+02  0.00000000000E+00 0.  1.
         11    1    3    3    0    0  0.45947949270E+01  0.12388007303E+01  0.21165666650E+02  0.21694059387E+02  0.51100000000E-03 0. -1.
        -11    1    3    3    0    0  0.23164384147E+01  0.12411827689E+01  0.22639092366E+02  0.22791115046E+02  0.51100000000E-03 0.  1.
        -12    1    3    3    0    0 -0.34485566119E+01 -0.36968505730E+01 -0.33115959719E+01  0.60436673259E+01  0.00000000000E+00 0.  1.
</event>
<event>
 7    1  0.4916175E-012  0.5052887E+02  0.7816164E-02  0.1300439E+00
        -11   -1    0    0    0    0  0.00000000000E+00  0.00000000000E+00  0.45593999997E+02  0.45594000000E+02  0.51100000000E-03 0. -1.
         11   -1    0    0    0    0 -0.00000000000E+00 -0.00000000000E+00 -0.45593999997E+02  0.45594000000E+02  0.51100000000E-03 0.  1.
    9900012    2    1    2    0    0 -0.11018153509E+02  0.10318384512E+02  0.37753090688E+02  0.50528872831E+02  0.30000039456E+02 0.  0.
        -12    1    1    2    0    0  0.11018153509E+02 -0.10318384512E+02 -0.37753090688E+02  0.40659127169E+02  0.00000000000E+00 0.  1.
         11    1    3    3    0    0 -0.30034932243E+01  0.23221664661E+01  0.22004875477E+02  0.22329979258E+02  0.51100000000E-03 0. -1.
        -11    1    3    3    0    0 -0.47826849033E+01 -0.67326231520E+01  0.64988733450E+01  0.10508931649E+02  0.51100000000E-03 0.  1.
         12    1    3    3    0    0 -0.32319753813E+01  0.14728841198E+02  0.92493418656E+01  0.17689961923E+02  0.00000000000E+00 0. -1.
</event>
<event>
 7    1  0.4520156E-012  0.5052886E+02  0.7816164E-02  0.1300439E+00
        -11   -1    0    0    0    0  0.00000000000E+00  0.00000000000E+00  0.45593999997E+02  0.45594000000E+02  0.51100000000E-03 0. -1.
         11   -1    0    0    0    0 -0.00000000000E+00 -0.00000000000E+00 -0.45593999997E+02  0.45594000000E+02  0.51100000000E-03 0.  1.
    9900012    2    1    2    0    0  0.14875364055E+02 -0.65785111540E+01  0.37264092175E+02  0.50528857973E+02  0.29999994294E+02 0.  0.
        -12    1    1    2    0    0 -0.14875364055E+02  0.65785111540E+01 -0.37264092175E+02  0.40659142027E+02  0.00000000000E+00 0.  1.
         11    1    3    3    0    0  0.77251133177E+01 -0.54717069506E+00  0.11388463657E+02  0.13772213920E+02  0.51100000000E-03 0. -1.
        -11    1    3    3    0    0  0.10256899380E+02 -0.13541833485E+02  0.21878304270E+02  0.27699195602E+02  0.51100000000E-03 0.  1.
        -12    1    3    3    0    0 -0.31066486423E+01  0.75104930261E+01  0.39973242482E+01  0.90574484501E+01  0.00000000000E+00 0.  1.
</event>
<event>
 7    1  0.4520156E-012  0.5052886E+02  0.7816164E-02  0.1300439E+00
        -11   -1    0    0    0    0  0.00000000000E+00  0.00000000000E+00  0.45593999997E+02  0.45594000000E+02  0.51100000000E-03 0. -1.
         11   -1    0    0    0    0 -0.00000000000E+00 -0.00000000000E+00 -0.45593999997E+02  0.45594000000E+02  0.51100000000E-03 0.  1.
    9900012    2    1    2    0    0  0.39329552694E+02 -0.10311028960E+02 -0.18560082385E+00  0.50528862269E+02  0.30000007353E+02 0.  0.
         12    1    1    2    0    0 -0.39329552694E+02  0.10311028960E+02  0.18560082385E+00  0.40659137731E+02  0.00000000000E+00 0. -1.
         11    1    3    3    0    0  0.16601389087E+02 -0.10942846072E+02 -0.33529304125E+01  0.20164179685E+02  0.51100000000E-03 0. -1.
        -11    1    3    3    0    0 -0.26360582683E+01 -0.34893443170E+01  0.14630660160E+01  0.46113869264E+01  0.51100000000E-03 0.  1.
        -12    1    3    3    0    0  0.25364221876E+02  0.41211614289E+01  0.17042635726E+01  0.25753295657E+02  0.00000000000E+00 0.  1.
</event>
<event>
 7    1  0.4520156E-012  0.5052886E+02  0.7816164E-02  0.1300439E+00
        -11   -1    0    0    0    0  0.00000000000E+00  0.00000000000E+00  0.45593999997E+02  0.45594000000E+02  0.51100000000E-03 0.  1.
         11   -1    0    0    0    0 -0.00000000000E+00 -0.00000000000E+00 -0.45593999997E+02  0.45594000000E+02  0.51100000000E-03 0. -1.
    9900012    2    1    2    0    0  0.15178576041E+02 -0.37609811569E+02 -0.28772517930E+01  0.50528859886E+02  0.30000000110E+02 0.  0.
        -12    1    1    2    0    0 -0.15178576041E+02  0.37609811569E+02  0.28772517930E+01  0.40659140114E+02  0.00000000000E+00 0.  1.
         11    1    3    3    0    0  0.95661873803E+01 -0.15558359166E+02 -0.69664312415E+01  0.19547522744E+02  0.51100000000E-03 0. -1.
        -11    1    3    3    0    0  0.12569093932E+02 -0.80925233401E+01  0.39870318529E+00  0.14954264301E+02  0.51100000000E-03 0.  1.
        -12    1    3    3    0    0 -0.69567052710E+01 -0.13958929063E+02  0.36904762632E+01  0.16027072841E+02  0.00000000000E+00 0.  1.
</event>
<event>
 7    1  0.4520156E-012  0.5052886E+02  0.7816164E-02  0.1300439E+00
        -11   -1    0    0    0    0  0.00000000000E+00  0.00000000000E+00  0.45593999997E+02  0.45594000000E+02  0.51100000000E-03 0. -1.
         11   -1    0    0    0    0 -0.00000000000E+00 -0.00000000000E+00 -0.45593999997E+02  0.45594000000E+02  0.51100000000E-03 0.  1.
    9900012    2    1    2    0    0 -0.56857537447E+01  0.17911462908E+02 -0.36055756436E+02  0.50528857469E+02  0.29999992764E+02 0.  0.
         12    1    1    2    0    0  0.56857537447E+01 -0.17911462908E+02  0.36055756436E+02  0.40659142531E+02  0.00000000000E+00 0. -1.
         11    1    3    3    0    0 -0.62246750905E+01 -0.12738441409E+01 -0.77656562838E+00  0.64009619054E+01  0.51100000000E-03 0. -1.
        -11    1    3    3    0    0 -0.32938618214E+01  0.39031298976E+00  0.66757887128E+00  0.33834201245E+01  0.51100000000E-03 0.  1.
        -12    1    3    3    0    0  0.38327831673E+01  0.18794994060E+02 -0.35946769679E+02  0.40744475439E+02  0.00000000000E+00 0.  1.
</event>
<event>
 7    1  0.4520156E-012  0.5052887E+02  0.7816164E-02  0.1300439E+00
        -11   -1    0    0    0    0  0.00000000000E+00  0.00000000000E+00  0.45593999997E+02  0.45594000000E+02  0.51100000000E-03 0. -1.
         11   -1    0    0    0    0 -0.00000000000E+00 -0.00000000000E+00 -0.45593999997E+02  0.45594000000E+02  0.51100000000E-03 0.  1.
    9900012    2    1    2    0    0  0.20260231035E+02 -0.19374836409E+02 -0.29450015415E+02  0.50528872422E+02  0.30000038213E+02 0.  0.
         12    1    1    2    0    0 -0.20260231035E+02  0.19374836409E+02  0.29450015415E+02  0.40659127578E+02  0.00000000000E+00 0. -1.
         11    1    3    3    0    0  0.14059592176E+02 -0.21102783323E+02 -0.63416395878E+01  0.26138400660E+02  0.51100000000E-03 0. -1.
        -11    1    3    3    0    0  0.10634173843E+01 -0.10502159544E+01 -0.89644474740E+01  0.90881862250E+01  0.51100000000E-03 0.  1.
        -12    1    3    3    0    0  0.51372214745E+01  0.27781628679E+01 -0.14143928353E+02  0.15302285537E+02  0.00000000000E+00 0.  1.
</event>
<event>
 7    1  0.4520156E-012  0.5052886E+02  0.7816164E-02  0.1300439E+00
        -11   -1    0    0    0    0  0.00000000000E+00  0.00000000000E+00  0.45593999997E+02  0.45594000000E+02  0.51100000000E-03 0. -1.
         11   -1    0    0    0    0 -0.00000000000E+00 -0.00000000000E+00 -0.45593999997E+02  0.45594000000E+02  0.51100000000E-03 0.  1.
    9900012    2    1    2    0    0 -0.26374515663E+02 -0.25231470719E+02  0.17914345883E+02  0.50528856139E+02  0.29999988720E+02 0.  0.
        -12    1    1    2    0    0  0.26374515663E+02  0.25231470719E+02 -0.17914345883E+02  0.40659143861E+02  0.00000000000E+00 0.  1.
         11    1    3    3    0    0 -0.73947350859E+01 -0.11320626007E+02  0.37100745627E+01  0.14021531076E+02  0.51100000000E-03 0. -1.
        -11    1    3    3    0    0 -0.42457207917E+01  0.52240114858E+01 -0.24583668035E+01  0.71665897501E+01  0.51100000000E-03 0.  1.
         12    1    3    3    0    0 -0.14734059785E+02 -0.19134856198E+02  0.16662638124E+02  0.29340735313E+02  0.00000000000E+00 0. -1.
</event>
<event>
 7    1  0.4520156E-012  0.5052886E+02  0.7816164E-02  0.1300439E+00
        -11   -1    0    0    0    0  0.00000000000E+00  0.00000000000E+00  0.45593999997E+02  0.45594000000E+02  0.51100000000E-03 0. -1.
         11   -1    0    0    0    0 -0.00000000000E+00 -0.00000000000E+00 -0.45593999997E+02  0.45594000000E+02  0.51100000000E-03 0.  1.
    9900012    2    1    2    0    0  0.36830367351E+01  0.23320408323E+02 -0.33102259585E+02  0.50528858425E+02  0.29999995669E+02 0.  0.
         12    1    1    2    0    0 -0.36830367351E+01 -0.23320408323E+02  0.33102259585E+02  0.40659141575E+02  0.00000000000E+00 0. -1.
         11    1    3    3    0    0 -0.64731837044E+00 -0.60194871899E+00  0.30187764138E+01  0.31455324877E+01  0.51100000000E-03 0. -1.
        -11    1    3    3    0    0  0.19865724297E+00  0.14825309040E+02 -0.66221005688E+01  0.16238271738E+02  0.51100000000E-03 0.  1.
         12    1    3    3    0    0  0.41316978626E+01  0.90970480023E+01 -0.29498935430E+02  0.31145054200E+02  0.00000000000E+00 0. -1.
</event>
<event>
 7    1  0.4520156E-012  0.5052883E+02  0.7816164E-02  0.1300439E+00
        -11   -1    0    0    0    0  0.00000000000E+00  0.00000000000E+00  0.45593999997E+02  0.45594000000E+02  0.51100000000E-03 0.  1.
         11   -1    0    0    0    0 -0.00000000000E+00 -0.00000000000E+00 -0.45593999997E+02  0.45594000000E+02  0.51100000000E-03 0. -1.
    9900012    2    1    2    0    0 -0.31977679097E+02  0.22118221301E+02  0.11890354343E+02  0.50528828829E+02  0.29999905708E+02 0.  0.
        -12    1    1    2    0    0  0.31977679097E+02 -0.22118221301E+02 -0.11890354343E+02  0.40659171171E+02  0.00000000000E+00 0.  1.
         11    1    3    3    0    0  0.16965499478E+01  0.11043013607E+02  0.63923061693E+01  0.12871985460E+02  0.51100000000E-03 0.  1.
        -11    1    3    3    0    0 -0.92453512764E+01 -0.21199940593E+01  0.16161684277E+01  0.96220006071E+01  0.51100000000E-03 0. -1.
        -12    1    3    3    0    0 -0.24428877768E+02  0.13195201753E+02  0.38818797456E+01  0.28034842762E+02  0.00000000000E+00 0.  1.
</event>
<event>
 7    1  0.4520156E-012  0.5052888E+02  0.7816164E-02  0.1300439E+00
        -11   -1    0    0    0    0  0.00000000000E+00  0.00000000000E+00  0.45593999997E+02  0.45594000000E+02  0.51100000000E-03 0. -1.
         11   -1    0    0    0    0 -0.00000000000E+00 -0.00000000000E+00 -0.45593999997E+02  0.45594000000E+02  0.51100000000E-03 0.  1.
    9900012    2    1    2    0    0  0.14364484375E+02 -0.37549005919E+02 -0.60743866814E+01  0.50528875189E+02  0.30000046624E+02 0.  0.
        -12    1    1    2    0    0 -0.14364484375E+02  0.37549005919E+02  0.60743866814E+01  0.40659124811E+02  0.00000000000E+00 0.  1.
         11    1    3    3    0    0  0.13992263486E+02 -0.16933995002E+02 -0.46833124768E+01  0.22460566338E+02  0.51100000000E-03 0. -1.
        -11    1    3    3    0    0  0.24816158961E+01 -0.39710202090E+01 -0.86123608653E+01  0.98030698708E+01  0.51100000000E-03 0.  1.
        -12    1    3    3    0    0 -0.21093950068E+01 -0.16643990708E+02  0.72212866607E+01  0.18265238980E+02  0.00000000000E+00 0.  1.
</event>
<event>
 7    1  0.4520156E-012  0.5052886E+02  0.7816164E-02  0.1300439E+00
        -11   -1    0    0    0    0  0.00000000000E+00  0.00000000000E+00  0.45593999997E+02  0.45594000000E+02  0.51100000000E-03 0. -1.
         11   -1    0    0    0    0 -0.00000000000E+00 -0.00000000000E+00 -0.45593999997E+02  0.45594000000E+02  0.51100000000E-03 0.  1.
    9900012    2    1    2    0    0 -0.50799433223E+01  0.26310283041E+02 -0.30579878311E+02  0.50528858649E+02  0.29999996350E+02 0.  0.
         12    1    1    2    0    0  0.50799433223E+01 -0.26310283041E+02  0.30579878311E+02  0.40659141351E+02  0.00000000000E+00 0. -1.
         11    1    3    3    0    0 -0.13467905350E+01  0.15826369656E+02 -0.24159445600E+02  0.28913087576E+02  0.51100000000E-03 0. -1.
        -11    1    3    3    0    0 -0.23788128260E+01  0.64928488210E+01 -0.12460513854E+02  0.14250622514E+02  0.51100000000E-03 0.  1.
         12    1    3    3    0    0 -0.13543399614E+01  0.39910645638E+01  0.60400811425E+01  0.73651485587E+01  0.00000000000E+00 0. -1.
</event>
<event>
 7    1  0.4520156E-012  0.5052886E+02  0.7816164E-02  0.1300439E+00
        -11   -1    0    0    0    0  0.00000000000E+00  0.00000000000E+00  0.45593999997E+02  0.45594000000E+02  0.51100000000E-03 0. -1.
         11   -1    0    0    0    0 -0.00000000000E+00 -0.00000000000E+00 -0.45593999997E+02  0.45594000000E+02  0.51100000000E-03 0.  1.
    9900012    2    1    2    0    0  0.11254805504E+02  0.27474255923E+02 -0.27778775904E+02  0.50528858640E+02  0.29999996321E+02 0.  0.
         12    1    1    2    0    0 -0.11254805504E+02 -0.27474255923E+02  0.27778775904E+02  0.40659141360E+02  0.00000000000E+00 0. -1.
         11    1    3    3    0    0 -0.42142765419E+01 -0.42329434928E+01 -0.18368042028E+01  0.62491429273E+01  0.51100000000E-03 0. -1.
        -11    1    3    3    0    0  0.89639669760E+00  0.61675294837E-01 -0.10388223407E+00  0.90450133285E+00  0.51100000000E-03 0.  1.
        -12    1    3    3    0    0  0.14572685349E+02  0.31645524121E+02 -0.25838089467E+02  0.43375214379E+02  0.00000000000E+00 0.  1.
</event>
<event>
 7    1  0.4520156E-012  0.5052886E+02  0.7816164E-02  0.1300439E+00
        -11   -1    0    0    0    0  0.00000000000E+00  0.00000000000E+00  0.45593999997E+02  0.45594000000E+02  0.51100000000E-03 0. -1.
         11   -1    0    0    0    0 -0.00000000000E+00 -0.00000000000E+00 -0.45593999997E+02  0.45594000000E+02  0.51100000000E-03 0.  1.
    9900012    2    1    2    0    0  0.31714059807E+02  0.17810003036E+02  0.18171067386E+02  0.50528862189E+02  0.30000007110E+02 0.  0.
        -12    1    1    2    0    0 -0.31714059807E+02 -0.17810003036E+02 -0.18171067386E+02  0.40659137811E+02  0.00000000000E+00 0.  1.
         11    1    3    3    0    0  0.28506328719E+02  0.96189994146E+01  0.13176171721E+02  0.32844290649E+02  0.51100000000E-03 0. -1.
        -11    1    3    3    0    0  0.70905032435E+01  0.95240855739E+01  0.93427117120E+00  0.11910344460E+02  0.51100000000E-03 0.  1.
        -12    1    3    3    0    0 -0.38827721553E+01 -0.13330819521E+01  0.40606244934E+01  0.57742270805E+01  0.00000000000E+00 0.  1.
</event>
<event>
 7    1  0.4520156E-012  0.5052886E+02  0.7816164E-02  0.1300439E+00
        -11   -1    0    0    0    0  0.00000000000E+00  0.00000000000E+00  0.45593999997E+02  0.45594000000E+02  0.51100000000E-03 0. -1.
         11   -1    0    0    0    0 -0.00000000000E+00 -0.00000000000E+00 -0.45593999997E+02  0.45594000000E+02  0.51100000000E-03 0.  1.
    9900012    2    1    2    0    0 -0.75017093410E+01 -0.91139401878E+01 -0.38907919094E+02  0.50528859367E+02  0.29999998531E+02 0.  0.
         12    1    1    2    0    0  0.75017093410E+01  0.91139401878E+01  0.38907919094E+02  0.40659140633E+02  0.00000000000E+00 0. -1.
         11    1    3    3    0    0  0.33414771779E+01 -0.38561225777E+01 -0.81283517806E+01  0.95971482220E+01  0.51100000000E-03 0. -1.
        -11    1    3    3    0    0  0.77086268241E+01 -0.18064279435E+01 -0.11428344835E+02  0.13902991597E+02  0.51100000000E-03 0.  1.
        -12    1    3    3    0    0 -0.18551813343E+02 -0.34513896666E+01 -0.19351222479E+02  0.27028719548E+02  0.00000000000E+00 0.  1.
</event>
<event>
 7    1  0.4520156E-012  0.5052886E+02  0.7816164E-02  0.1300439E+00
        -11   -1    0    0    0    0  0.00000000000E+00  0.00000000000E+00  0.45593999997E+02  0.45594000000E+02  0.51100000000E-03 0. -1.
         11   -1    0    0    0    0 -0.00000000000E+00 -0.00000000000E+00 -0.45593999997E+02  0.45594000000E+02  0.51100000000E-03 0.  1.
    9900012    2    1    2    0    0  0.16608750640E+02 -0.26966752340E+02  0.25497241851E+02  0.50528859926E+02  0.30000000231E+02 0.  0.
        -12    1    1    2    0    0 -0.16608750640E+02  0.26966752340E+02 -0.25497241851E+02  0.40659140074E+02  0.00000000000E+00 0.  1.
         11    1    3    3    0    0  0.14285163919E+02 -0.22164194040E+02  0.27904937555E+02  0.38392746006E+02  0.51100000000E-03 0. -1.
        -11    1    3    3    0    0 -0.39914288018E+01 -0.17416167647E+01  0.78703879433E+00  0.44253997740E+01  0.51100000000E-03 0.  1.
        -12    1    3    3    0    0  0.63150155221E+01 -0.30609415352E+01 -0.31947344989E+01  0.77107141462E+01  0.00000000000E+00 0.  1.
</event>
<event>
 7    1  0.4520156E-012  0.5052885E+02  0.7816164E-02  0.1300439E+00
        -11   -1    0    0    0    0  0.00000000000E+00  0.00000000000E+00  0.45593999997E+02  0.45594000000E+02  0.51100000000E-03 0. -1.
         11   -1    0    0    0    0 -0.00000000000E+00 -0.00000000000E+00 -0.45593999997E+02  0.45594000000E+02  0.51100000000E-03 0.  1.
    9900012    2    1    2    0    0 -0.30766503230E+02 -0.20764529528E+02  0.16595863275E+02  0.50528854837E+02  0.29999984763E+02 0.  0.
        -12    1    1    2    0    0  0.30766503230E+02  0.20764529528E+02 -0.16595863275E+02  0.40659145163E+02  0.00000000000E+00 0.  1.
         11    1    3    3    0    0  0.28344248383E+01 -0.16160628830E+01  0.40292212140E+01  0.51846164041E+01  0.51100000000E-03 0. -1.
        -11    1    3    3    0    0 -0.30617070790E+01 -0.68505778139E+01  0.97478472362E+01  0.12301422382E+02  0.51100000000E-03 0.  1.
         12    1    3    3    0    0 -0.30539220989E+02 -0.12297888831E+02  0.28187948252E+01  0.33042816051E+02  0.00000000000E+00 0. -1.
</event>
<event>
 7    1  0.4520156E-012  0.5052885E+02  0.7816164E-02  0.1300439E+00
        -11   -1    0    0    0    0  0.00000000000E+00  0.00000000000E+00  0.45593999997E+02  0.45594000000E+02  0.51100000000E-03 0. -1.
         11   -1    0    0    0    0 -0.00000000000E+00 -0.00000000000E+00 -0.45593999997E+02  0.45594000000E+02  0.51100000000E-03 0.  1.
    9900012    2    1    2    0    0 -0.23234066724E+02 -0.33540500871E+01  0.33197813057E+02  0.50528852194E+02  0.29999976729E+02 0.  0.
        -12    1    1    2    0    0  0.23234066724E+02  0.33540500871E+01 -0.33197813057E+02  0.40659147806E+02  0.00000000000E+00 0.  1.
         11    1    3    3    0    0 -0.93183373055E+01 -0.18852351509E+01  0.15625434372E+02  0.18290427039E+02  0.51100000000E-03 0. -1.
        -11    1    3    3    0    0 -0.10387331079E+02 -0.71222038166E+01 -0.87434996786E+00  0.12624853356E+02  0.51100000000E-03 0.  1.
         12    1    3    3    0    0 -0.35283983397E+01  0.56533888805E+01  0.18446728653E+02  0.19613571798E+02  0.00000000000E+00 0. -1.
</event>
<event>
 7    1  0.4520156E-012  0.5052885E+02  0.7816164E-02  0.1300439E+00
        -11   -1    0    0    0    0  0.00000000000E+00  0.00000000000E+00  0.45593999997E+02  0.45594000000E+02  0.51100000000E-03 0. -1.
         11   -1    0    0    0    0 -0.00000000000E+00 -0.00000000000E+00 -0.45593999997E+02  0.45594000000E+02  0.51100000000E-03 0.  1.
    9900012    2    1    2    0    0 -0.12840073616E+02  0.27456557675E+02 -0.27100487799E+02  0.50528849876E+02  0.29999969684E+02 0.  0.
         12    1    1    2    0    0  0.12840073616E+02 -0.27456557675E+02  0.27100487799E+02  0.40659150124E+02  0.00000000000E+00 0. -1.
         11    1    3    3    0    0 -0.69673785220E+01  0.88778279068E+01 -0.21628068355E+02  0.24395358838E+02  0.51100000000E-03 0. -1.
        -11    1    3    3    0    0 -0.49429992090E+01  0.17437329437E+02 -0.10464802444E+02  0.20928587853E+02  0.51100000000E-03 0.  1.
         12    1    3    3    0    0 -0.92969588487E+00  0.11414003314E+01  0.49923829996E+01  0.52049031854E+01  0.00000000000E+00 0. -1.
</event>
<event>
 7    1  0.4520156E-012  0.5052887E+02  0.7816164E-02  0.1300439E+00
        -11   -1    0    0    0    0  0.00000000000E+00  0.00000000000E+00  0.45593999997E+02  0.45594000000E+02  0.51100000000E-03 0. -1.
         11   -1    0    0    0    0 -0.00000000000E+00 -0.00000000000E+00 -0.45593999997E+02  0.45594000000E+02  0.51100000000E-03 0.  1.
    9900012    2    1    2    0    0  0.17449850916E+02  0.36638093768E+02 -0.25134200782E+01  0.50528874426E+02  0.30000044307E+02 0.  0.
         12    1    1    2    0    0 -0.17449850916E+02 -0.36638093768E+02  0.25134200782E+01  0.40659125574E+02  0.00000000000E+00 0. -1.
         11    1    3    3    0    0 -0.29058325204E+01  0.79556266317E+01 -0.15386764235E+01  0.86083321925E+01  0.51100000000E-03 0. -1.
        -11    1    3    3    0    0  0.59850219034E+01  0.18455357822E+02 -0.10302906687E+02  0.21967489752E+02  0.51100000000E-03 0.  1.
         12    1    3    3    0    0  0.14370661533E+02  0.10227109314E+02  0.93281630321E+01  0.19953052482E+02  0.00000000000E+00 0. -1.
</event>
<event>
 7    1  0.4520156E-012  0.5052885E+02  0.7816164E-02  0.1300439E+00
        -11   -1    0    0    0    0  0.00000000000E+00  0.00000000000E+00  0.45593999997E+02  0.45594000000E+02  0.51100000000E-03 0. -1.
         11   -1    0    0    0    0 -0.00000000000E+00 -0.00000000000E+00 -0.45593999997E+02  0.45594000000E+02  0.51100000000E-03 0.  1.
    9900012    2    1    2    0    0 -0.12795298689E+02 -0.30284023980E+02  0.23923300606E+02  0.50528854794E+02  0.29999984632E+02 0.  0.
        -12    1    1    2    0    0  0.12795298689E+02  0.30284023980E+02 -0.23923300606E+02  0.40659145206E+02  0.00000000000E+00 0.  1.
         11    1    3    3    0    0 -0.11274616495E+02 -0.38077418865E+01  0.29705155616E+01  0.12265391895E+02  0.51100000000E-03 0.  1.
        -11    1    3    3    0    0 -0.32565263672E+00  0.20003766675E+01 -0.10259733865E+01  0.22716025406E+01  0.51100000000E-03 0. -1.
        -12    1    3    3    0    0 -0.11950295575E+01 -0.28476658761E+02  0.21978758431E+02  0.35991860358E+02  0.00000000000E+00 0.  1.
</event>
<event>
 7    1  0.4520156E-012  0.5052886E+02  0.7816164E-02  0.1300439E+00
        -11   -1    0    0    0    0  0.00000000000E+00  0.00000000000E+00  0.45593999997E+02  0.45594000000E+02  0.51100000000E-03 0. -1.
         11   -1    0    0    0    0 -0.00000000000E+00 -0.00000000000E+00 -0.45593999997E+02  0.45594000000E+02  0.51100000000E-03 0.  1.
    9900012    2    1    2    0    0 -0.34068918263E+01  0.16406853319E+02 -0.37045568180E+02  0.50528857492E+02  0.29999992832E+02 0.  0.
         12    1    1    2    0    0  0.34068918263E+01 -0.16406853319E+02  0.37045568180E+02  0.40659142508E+02  0.00000000000E+00 0. -1.
         11    1    3    3    0    0  0.10923005522E+01  0.11504529926E+02 -0.12569639785E+02  0.17074635396E+02  0.51100000000E-03 0. -1.
        -11    1    3    3    0    0 -0.13072592997E+01  0.82404975941E+01 -0.26951868894E+02  0.28213790327E+02  0.51100000000E-03 0.  1.
         12    1    3    3    0    0 -0.31919330788E+01 -0.33381742003E+01  0.24759404994E+01  0.52404317692E+01  0.00000000000E+00 0. -1.
</event>
<event>
 7    1  0.4520156E-012  0.5052881E+02  0.7816164E-02  0.1300439E+00
        -11   -1    0    0    0    0  0.00000000000E+00  0.00000000000E+00  0.45593999997E+02  0.45594000000E+02  0.51100000000E-03 0. -1.
         11   -1    0    0    0    0 -0.00000000000E+00 -0.00000000000E+00 -0.45593999997E+02  0.45594000000E+02  0.51100000000E-03 0.  1.
    9900012    2    1    2    0    0 -0.21187242521E+02  0.21508547393E+01 -0.34635884235E+02  0.50528807946E+02  0.29999842232E+02 0.  0.
         12    1    1    2    0    0  0.21187242521E+02 -0.21508547393E+01  0.34635884235E+02  0.40659192054E+02  0.00000000000E+00 0. -1.
         11    1    3    3    0    0 -0.62497310260E+01 -0.41429898533E+01 -0.37227343439E+01  0.83715144435E+01  0.51100000000E-03 0. -1.
        -11    1    3    3    0    0  0.51128856269E+01 -0.19389536748E+01 -0.15931737090E+01  0.56955547153E+01  0.51100000000E-03 0.  1.
        -12    1    3    3    0    0 -0.20050397122E+02  0.82327982674E+01 -0.29319976182E+02  0.36461738787E+02  0.00000000000E+00 0.  1.
</event>
<event>
 7    1  0.4520156E-012  0.5052886E+02  0.7816164E-02  0.1300439E+00
        -11   -1    0    0    0    0  0.00000000000E+00  0.00000000000E+00  0.45593999997E+02  0.45594000000E+02  0.51100000000E-03 0. -1.
         11   -1    0    0    0    0 -0.00000000000E+00 -0.00000000000E+00 -0.45593999997E+02  0.45594000000E+02  0.51100000000E-03 0.  1.
    9900012    2    1    2    0    0 -0.39173458340E+02 -0.72707932343E+01  0.81080938754E+01  0.50528862541E+02  0.30000008180E+02 0.  0.
        -12    1    1    2    0    0  0.39173458340E+02  0.72707932343E+01 -0.81080938754E+01  0.40659137459E+02  0.00000000000E+00 0.  1.
         11    1    3    3    0    0 -0.36923083243E+01  0.60825914457E+01  0.46897684493E+01  0.85220295603E+01  0.51100000000E-03 0. -1.
        -11    1    3    3    0    0 -0.26931302019E+02 -0.20145255749E+01 -0.13127875564E+01  0.27038431041E+02  0.51100000000E-03 0.  1.
        -12    1    3    3    0    0 -0.85498479973E+01 -0.11338859105E+02  0.47311129825E+01  0.14968401940E+02  0.00000000000E+00 0.  1.
</event>
<event>
 7    1  0.4520156E-012  0.5052886E+02  0.7816164E-02  0.1300439E+00
        -11   -1    0    0    0    0  0.00000000000E+00  0.00000000000E+00  0.45593999997E+02  0.45594000000E+02  0.51100000000E-03 0. -1.
         11   -1    0    0    0    0 -0.00000000000E+00 -0.00000000000E+00 -0.45593999997E+02  0.45594000000E+02  0.51100000000E-03 0.  1.
    9900012    2    1    2    0    0 -0.24036574350E+02 -0.12458572060E+02  0.30334680849E+02  0.50528858513E+02  0.29999995936E+02 0.  0.
        -12    1    1    2    0    0  0.24036574350E+02  0.12458572060E+02 -0.30334680849E+02  0.40659141487E+02  0.00000000000E+00 0.  1.
         11    1    3    3    0    0 -0.68387060290E+01 -0.78340785116E+01  0.13859650774E+02  0.17327163822E+02  0.51100000000E-03 0. -1.
        -11    1    3    3    0    0  0.49951919381E+01  0.13755975444E+01  0.60304662543E+01  0.79505178830E+01  0.51100000000E-03 0.  1.
         12    1    3    3    0    0 -0.22193060259E+02 -0.60000910927E+01  0.10444563821E+02  0.25251176808E+02  0.00000000000E+00 0. -1.
</event>
<event>
 7    1  0.4520156E-012  0.5052885E+02  0.7816164E-02  0.1300439E+00
        -11   -1    0    0    0    0  0.00000000000E+00  0.00000000000E+00  0.45593999997E+02  0.45594000000E+02  0.51100000000E-03 0. -1.
         11   -1    0    0    0    0 -0.00000000000E+00 -0.00000000000E+00 -0.45593999997E+02  0.45594000000E+02  0.51100000000E-03 0.  1.
    9900012    2    1    2    0    0  0.48157916803E+01  0.66110752791E+01 -0.39827981315E+02  0.50528852671E+02  0.29999978180E+02 0.  0.
         12    1    1    2    0    0 -0.48157916803E+01 -0.66110752791E+01  0.39827981315E+02  0.40659147329E+02  0.00000000000E+00 0. -1.
         11    1    3    3    0    0  0.64180339770E+01 -0.21331259345E+01 -0.23726176242E+02  0.24671295582E+02  0.51100000000E-03 0. -1.
        -11    1    3    3    0    0  0.68350305113E+01  0.30271016691E+01 -0.13350578576E+02  0.15300945565E+02  0.51100000000E-03 0.  1.
         12    1    3    3    0    0 -0.84372728079E+01  0.57170995445E+01 -0.27512264972E+01  0.10556611524E+02  0.00000000000E+00 0. -1.
</event>
<event>
 7    1  0.5114782E-012  0.5052886E+02  0.7816164E-02  0.1300439E+00
        -11   -1    0    0    0    0  0.00000000000E+00  0.00000000000E+00  0.45593999997E+02  0.45594000000E+02  0.51100000000E-03 0. -1.
         11   -1    0    0    0    0 -0.00000000000E+00 -0.00000000000E+00 -0.45593999997E+02  0.45594000000E+02  0.51100000000E-03 0.  1.
    9900012    2    1    2    0    0 -0.26708540712E+02 -0.13682175097E+02  0.27433878827E+02  0.50528858717E+02  0.29999996557E+02 0.  0.
        -12    1    1    2    0    0  0.26708540712E+02  0.13682175097E+02 -0.27433878827E+02  0.40659141283E+02  0.00000000000E+00 0.  1.
         11    1    3    3    0    0  0.28362328247E+01 -0.15454873330E+01  0.57387999268E+01  0.65853301051E+01  0.51100000000E-03 0. -1.
        -11    1    3    3    0    0  0.14763294174E+01  0.32248189089E+01  0.13750240605E+01  0.38039054893E+01  0.51100000000E-03 0.  1.
         12    1    3    3    0    0 -0.31021102954E+02 -0.15361506673E+02  0.20320054840E+02  0.40139623123E+02  0.00000000000E+00 0. -1.
</event>
<event>
 7    1  0.4520156E-012  0.5052886E+02  0.7816164E-02  0.1300439E+00
        -11   -1    0    0    0    0  0.00000000000E+00  0.00000000000E+00  0.45593999997E+02  0.45594000000E+02  0.51100000000E-03 0. -1.
         11   -1    0    0    0    0 -0.00000000000E+00 -0.00000000000E+00 -0.45593999997E+02  0.45594000000E+02  0.51100000000E-03 0.  1.
    9900012    2    1    2    0    0 -0.38772807840E+02  0.77432763365E+01  0.94803402841E+01  0.50528858247E+02  0.29999995127E+02 0.  0.
        -12    1    1    2    0    0  0.38772807840E+02 -0.77432763365E+01 -0.94803402841E+01  0.40659141753E+02  0.00000000000E+00 0.  1.
         11    1    3    3    0    0 -0.13284825373E+02  0.93426934313E+01  0.43866681297E+01  0.16823060461E+02  0.51100000000E-03 0. -1.
        -11    1    3    3    0    0 -0.94478193377E+01  0.95338820685E+01  0.45516074299E+01  0.14172978797E+02  0.51100000000E-03 0.  1.
        -12    1    3    3    0    0 -0.16040163129E+02 -0.11133299163E+02  0.54206472452E+00  0.19532818988E+02  0.00000000000E+00 0.  1.
</event>
<event>
 7    1  0.4520156E-012  0.5052886E+02  0.7816164E-02  0.1300439E+00
        -11   -1    0    0    0    0  0.00000000000E+00  0.00000000000E+00  0.45593999997E+02  0.45594000000E+02  0.51100000000E-03 0.  1.
         11   -1    0    0    0    0 -0.00000000000E+00 -0.00000000000E+00 -0.45593999997E+02  0.45594000000E+02  0.51100000000E-03 0. -1.
    9900012    2    1    2    0    0  0.10207432111E+02 -0.36859306801E+02  0.13797307188E+02  0.50528857685E+02  0.29999993419E+02 0.  0.
        -12    1    1    2    0    0 -0.10207432111E+02  0.36859306801E+02 -0.13797307188E+02  0.40659142315E+02  0.00000000000E+00 0.  1.
         11    1    3    3    0    0  0.60674912792E+01 -0.11274397250E+02 -0.25738146055E+01  0.13059517819E+02  0.51100000000E-03 0. -1.
        -11    1    3    3    0    0 -0.18823134098E+01 -0.12240552762E+02 -0.34234794899E+01  0.12848908427E+02  0.51100000000E-03 0.  1.
        -12    1    3    3    0    0  0.60222542418E+01 -0.13344356789E+02  0.19794601283E+02  0.24620431439E+02  0.00000000000E+00 0.  1.
</event>
<event>
 7    1  0.4520156E-012  0.5052886E+02  0.7816164E-02  0.1300439E+00
        -11   -1    0    0    0    0  0.00000000000E+00  0.00000000000E+00  0.45593999997E+02  0.45594000000E+02  0.51100000000E-03 0. -1.
         11   -1    0    0    0    0 -0.00000000000E+00 -0.00000000000E+00 -0.45593999997E+02  0.45594000000E+02  0.51100000000E-03 0.  1.
    9900012    2    1    2    0    0  0.20159000383E+02 -0.10928577637E+02 -0.33575981005E+02  0.50528860731E+02  0.30000002678E+02 0.  0.
         12    1    1    2    0    0 -0.20159000383E+02  0.10928577637E+02  0.33575981005E+02  0.40659139269E+02  0.00000000000E+00 0. -1.
         11    1    3    3    0    0  0.19546752530E+02 -0.13723928384E+01 -0.21149014894E+02  0.28831230078E+02  0.51100000000E-03 0. -1.
        -11    1    3    3    0    0  0.66981571286E+01 -0.43249839854E+01 -0.10937909215E+02  0.13535459122E+02  0.51100000000E-03 0.  1.
         12    1    3    3    0    0 -0.60859092755E+01 -0.52312008132E+01 -0.14890568965E+01  0.81621715308E+01  0.00000000000E+00 0. -1.
</event>
<event>
 7    1  0.4520156E-012  0.5052886E+02  0.7816164E-02  0.1300439E+00
        -11   -1    0    0    0    0  0.00000000000E+00  0.00000000000E+00  0.45593999997E+02  0.45594000000E+02  0.51100000000E-03 0.  1.
         11   -1    0    0    0    0 -0.00000000000E+00 -0.00000000000E+00 -0.45593999997E+02  0.45594000000E+02  0.51100000000E-03 0. -1.
    9900012    2    1    2    0    0  0.11172516335E+02 -0.38753454558E+02 -0.51488167748E+01  0.50528859876E+02  0.30000000079E+02 0.  0.
        -12    1    1    2    0    0 -0.11172516335E+02  0.38753454558E+02  0.51488167748E+01  0.40659140124E+02  0.00000000000E+00 0.  1.
         11    1    3    3    0    0 -0.32055843601E+01 -0.30613716405E+01 -0.39111883083E+01  0.59114432802E+01  0.51100000000E-03 0. -1.
        -11    1    3    3    0    0  0.14226322875E+02 -0.20896276125E+02  0.87665505110E+01  0.26756214728E+02  0.51100000000E-03 0.  1.
         12    1    3    3    0    0  0.15177782043E+00 -0.14795806792E+02 -0.10004178977E+02  0.17861201868E+02  0.00000000000E+00 0. -1.
</event>
<event>
 7    1  0.4520156E-012  0.5052886E+02  0.7816164E-02  0.1300439E+00
        -11   -1    0    0    0    0  0.00000000000E+00  0.00000000000E+00  0.45593999997E+02  0.45594000000E+02  0.51100000000E-03 0. -1.
         11   -1    0    0    0    0 -0.00000000000E+00 -0.00000000000E+00 -0.45593999997E+02  0.45594000000E+02  0.51100000000E-03 0.  1.
    9900012    2    1    2    0    0 -0.80244463016E+01 -0.29380676198E+02 -0.26936029469E+02  0.50528861349E+02  0.30000004556E+02 0.  0.
         12    1    1    2    0    0  0.80244463016E+01  0.29380676198E+02  0.26936029469E+02  0.40659138651E+02  0.00000000000E+00 0. -1.
         11    1    3    3    0    0  0.17083988968E+01 -0.20506269465E+02 -0.26682162544E+02  0.33695155623E+02  0.51100000000E-03 0.  1.
        -11    1    3    3    0    0 -0.31113428057E+01 -0.15352491785E+01 -0.48252552602E+01  0.59431079985E+01  0.51100000000E-03 0. -1.
         12    1    3    3    0    0 -0.66215023927E+01 -0.73391575550E+01  0.45713883356E+01  0.10890597728E+02  0.00000000000E+00 0. -1.
</event>
<event>
 7    1  0.4520156E-012  0.5052879E+02  0.7816164E-02  0.1300439E+00
        -11   -1    0    0    0    0  0.00000000000E+00  0.00000000000E+00  0.45593999997E+02  0.45594000000E+02  0.51100000000E-03 0.  1.
         11   -1    0    0    0    0 -0.00000000000E+00 -0.00000000000E+00 -0.45593999997E+02  0.45594000000E+02  0.51100000000E-03 0. -1.
    9900012    2    1    2    0    0  0.35577867158E+02  0.37878228024E+01  0.19314218615E+02  0.50528791033E+02  0.29999790823E+02 0.  0.
        -12    1    1    2    0    0 -0.35577867158E+02 -0.37878228024E+01 -0.19314218615E+02  0.40659208967E+02  0.00000000000E+00 0.  1.
         11    1    3    3    0    0  0.78510090759E+01  0.34602695070E+01 -0.30874696329E+01  0.91183484012E+01  0.51100000000E-03 0. -1.
        -11    1    3    3    0    0  0.26853361566E+02  0.61186124633E+01  0.13293827613E+02  0.30582123843E+02  0.51100000000E-03 0.  1.
        -12    1    3    3    0    0  0.87349651643E+00 -0.57910591679E+01  0.91078606345E+01  0.10828318789E+02  0.00000000000E+00 0.  1.
</event>
<event>
 7    1  0.4520156E-012  0.5052886E+02  0.7816164E-02  0.1300439E+00
        -11   -1    0    0    0    0  0.00000000000E+00  0.00000000000E+00  0.45593999997E+02  0.45594000000E+02  0.51100000000E-03 0. -1.
         11   -1    0    0    0    0 -0.00000000000E+00 -0.00000000000E+00 -0.45593999997E+02  0.45594000000E+02  0.51100000000E-03 0.  1.
    9900012    2    1    2    0    0  0.66036353437E+01  0.12450432273E+02 -0.38138489490E+02  0.50528860263E+02  0.30000001256E+02 0.  0.
         12    1    1    2    0    0 -0.66036353437E+01 -0.12450432273E+02  0.38138489490E+02  0.40659139737E+02  0.00000000000E+00 0. -1.
         11    1    3    3    0    0  0.76970948444E+01  0.86376173744E+01 -0.18219579005E+01  0.11712097754E+02  0.51100000000E-03 0. -1.
        -11    1    3    3    0    0 -0.43204306881E+01  0.75169944035E+01 -0.20596193479E+02  0.22346689068E+02  0.51100000000E-03 0.  1.
        -12    1    3    3    0    0  0.32269711875E+01 -0.37041795047E+01 -0.15720338111E+02  0.16470073441E+02  0.00000000000E+00 0.  1.
</event>
<event>
 7    1  0.4520156E-012  0.5052885E+02  0.7816164E-02  0.1300439E+00
        -11   -1    0    0    0    0  0.00000000000E+00  0.00000000000E+00  0.45593999997E+02  0.45594000000E+02  0.51100000000E-03 0.  1.
         11   -1    0    0    0    0 -0.00000000000E+00 -0.00000000000E+00 -0.45593999997E+02  0.45594000000E+02  0.51100000000E-03 0. -1.
    9900012    2    1    2    0    0  0.44174546414E+01  0.35177863940E+02  0.19904024979E+02  0.50528853092E+02  0.29999979459E+02 0.  0.
        -12    1    1    2    0    0 -0.44174546414E+01 -0.35177863940E+02 -0.19904024979E+02  0.40659146908E+02  0.00000000000E+00 0.  1.
         11    1    3    3    0    0 -0.55117512620E+01  0.10829648789E+02  0.59711272835E+01  0.13539389062E+02  0.51100000000E-03 0. -1.
        -11    1    3    3    0    0 -0.49082041586E+01  0.10845809922E+02  0.11888044784E+02  0.16824020625E+02  0.51100000000E-03 0.  1.
         12    1    3    3    0    0  0.14837410062E+02  0.13502405229E+02  0.20448529107E+01  0.20165443406E+02  0.00000000000E+00 0. -1.
</event>
<event>
 7    1  0.4520156E-012  0.5052888E+02  0.7816164E-02  0.1300439E+00
        -11   -1    0    0    0    0  0.00000000000E+00  0.00000000000E+00  0.45593999997E+02  0.45594000000E+02  0.51100000000E-03 0. -1.
         11   -1    0    0    0    0 -0.00000000000E+00 -0.00000000000E+00 -0.45593999997E+02  0.45594000000E+02  0.51100000000E-03 0.  1.
    9900012    2    1    2    0    0 -0.45197235720E+01  0.36512830313E+02  0.17307496745E+02  0.50528878978E+02  0.30000058143E+02 0.  0.
        -12    1    1    2    0    0  0.45197235720E+01 -0.36512830313E+02 -0.17307496745E+02  0.40659121022E+02  0.00000000000E+00 0.  1.
         11    1    3    3    0    0 -0.25707767686E+01  0.11011505177E+02  0.79125655747E+01  0.13801117117E+02  0.51100000000E-03 0.  1.
        -11    1    3    3    0    0 -0.36657608880E+01  0.16775995833E+02  0.17627840052E+02  0.24609197148E+02  0.51100000000E-03 0. -1.
        -12    1    3    3    0    0  0.17168140846E+01  0.87253293038E+01 -0.82329088819E+01  0.12118564714E+02  0.00000000000E+00 0.  1.
</event>
<event>
 7    1  0.4520156E-012  0.5052883E+02  0.7816164E-02  0.1300439E+00
        -11   -1    0    0    0    0  0.00000000000E+00  0.00000000000E+00  0.45593999997E+02  0.45594000000E+02  0.51100000000E-03 0. -1.
         11   -1    0    0    0    0 -0.00000000000E+00 -0.00000000000E+00 -0.45593999997E+02  0.45594000000E+02  0.51100000000E-03 0.  1.
    9900012    2    1    2    0    0 -0.25485919053E+02  0.98097954704E+01 -0.30123145936E+02  0.50528830331E+02  0.29999910272E+02 0.  0.
         12    1    1    2    0    0  0.25485919053E+02 -0.98097954704E+01  0.30123145936E+02  0.40659169669E+02  0.00000000000E+00 0. -1.
         11    1    3    3    0    0  0.74045921097E-01  0.57672243895E+01  0.12604378638E+00  0.57690768113E+01  0.51100000000E-03 0. -1.
        -11    1    3    3    0    0 -0.24838132254E+02 -0.23222989655E+01 -0.17439883419E+02  0.30438058746E+02  0.51100000000E-03 0.  1.
         12    1    3    3    0    0 -0.72183272011E+00  0.63648700463E+01 -0.12809306304E+02  0.14321694773E+02  0.00000000000E+00 0. -1.
</event>
<event>
 7    1  0.4520156E-012  0.5052888E+02  0.7816164E-02  0.1300439E+00
        -11   -1    0    0    0    0  0.00000000000E+00  0.00000000000E+00  0.45593999997E+02  0.45594000000E+02  0.51100000000E-03 0. -1.
         11   -1    0    0    0    0 -0.00000000000E+00 -0.00000000000E+00 -0.45593999997E+02  0.45594000000E+02  0.51100000000E-03 0.  1.
    9900012    2    1    2    0    0  0.13136457148E+02  0.31054825684E+02  0.22719931683E+02  0.50528880478E+02  0.30000062700E+02 0.  0.
        -12    1    1    2    0    0 -0.13136457148E+02 -0.31054825684E+02 -0.22719931683E+02  0.40659119522E+02  0.00000000000E+00 0.  1.
         11    1    3    3    0    0  0.14182848621E+02  0.89415789481E+01  0.14506609507E+02  0.22170853586E+02  0.51100000000E-03 0. -1.
        -11    1    3    3    0    0  0.25856372372E+01 -0.10033595519E+01  0.35376989586E+01  0.44952824712E+01  0.51100000000E-03 0.  1.
        -12    1    3    3    0    0 -0.36320287097E+01  0.23116606288E+02  0.46756232174E+01  0.23862744421E+02  0.00000000000E+00 0.  1.
</event>
<event>
 7    1  0.4520156E-012  0.5052886E+02  0.7816164E-02  0.1300439E+00
        -11   -1    0    0    0    0  0.00000000000E+00  0.00000000000E+00  0.45593999997E+02  0.45594000000E+02  0.51100000000E-03 0. -1.
         11   -1    0    0    0    0 -0.00000000000E+00 -0.00000000000E+00 -0.45593999997E+02  0.45594000000E+02  0.51100000000E-03 0.  1.
    9900012    2    1    2    0    0 -0.10209575791E+02  0.68655424338E+01  0.38752990633E+02  0.50528863343E+02  0.30000010616E+02 0.  0.
        -12    1    1    2    0    0  0.10209575791E+02 -0.68655424338E+01 -0.38752990633E+02  0.40659136657E+02  0.00000000000E+00 0.  1.
         11    1    3    3    0    0  0.28536641613E+01  0.55412400572E+00  0.10772687546E+02  0.11158012806E+02  0.51100000000E-03 0. -1.
        -11    1    3    3    0    0  0.90300392437E+00  0.52802403530E+01  0.24310541375E+02  0.24893749748E+02  0.51100000000E-03 0.  1.
        -12    1    3    3    0    0 -0.13966243876E+02  0.10311780750E+01  0.36697617115E+01  0.14477100789E+02  0.00000000000E+00 0.  1.
</event>
<event>
 7    1  0.4520156E-012  0.5052886E+02  0.7816164E-02  0.1300439E+00
        -11   -1    0    0    0    0  0.00000000000E+00  0.00000000000E+00  0.45593999997E+02  0.45594000000E+02  0.51100000000E-03 0. -1.
         11   -1    0    0    0    0 -0.00000000000E+00 -0.00000000000E+00 -0.45593999997E+02  0.45594000000E+02  0.51100000000E-03 0.  1.
    9900012    2    1    2    0    0 -0.23746300956E+02 -0.26911184468E+02  0.19106717665E+02  0.50528864268E+02  0.30000013428E+02 0.  0.
        -12    1    1    2    0    0  0.23746300956E+02  0.26911184468E+02 -0.19106717665E+02  0.40659135732E+02  0.00000000000E+00 0.  1.
         11    1    3    3    0    0 -0.12805890029E+02 -0.13857724637E+02  0.11451130841E+02  0.22071605047E+02  0.51100000000E-03 0. -1.
        -11    1    3    3    0    0 -0.10888752366E+02 -0.46052545811E+01 -0.53274445956E+01  0.12967457886E+02  0.51100000000E-03 0.  1.
         12    1    3    3    0    0 -0.51658561091E-01 -0.84482052494E+01  0.12983031420E+02  0.15489801335E+02  0.00000000000E+00 0. -1.
</event>
<event>
 7    1  0.4520156E-012  0.5052886E+02  0.7816164E-02  0.1300439E+00
        -11   -1    0    0    0    0  0.00000000000E+00  0.00000000000E+00  0.45593999997E+02  0.45594000000E+02  0.51100000000E-03 0. -1.
         11   -1    0    0    0    0 -0.00000000000E+00 -0.00000000000E+00 -0.45593999997E+02  0.45594000000E+02  0.51100000000E-03 0.  1.
    9900012    2    1    2    0    0  0.25526814579E+02  0.12193837397E+02 -0.29203727527E+02  0.50528860382E+02  0.30000001616E+02 0.  0.
         12    1    1    2    0    0 -0.25526814579E+02 -0.12193837397E+02  0.29203727527E+02  0.40659139618E+02  0.00000000000E+00 0. -1.
         11    1    3    3    0    0 -0.25102629711E+01  0.79438407031E+01 -0.12488002538E+02  0.15011869736E+02  0.51100000000E-03 0. -1.
        -11    1    3    3    0    0  0.35868497632E+01  0.56344558898E+01 -0.51483155705E+01  0.84331333366E+01  0.51100000000E-03 0.  1.
         12    1    3    3    0    0  0.24450227787E+02 -0.13844591955E+01 -0.11567409418E+02  0.27083857309E+02  0.00000000000E+00 0. -1.
</event>
<event>
 7    1  0.4520156E-012  0.5052886E+02  0.7816164E-02  0.1300439E+00
        -11   -1    0    0    0    0  0.00000000000E+00  0.00000000000E+00  0.45593999997E+02  0.45594000000E+02  0.51100000000E-03 0. -1.
         11   -1    0    0    0    0 -0.00000000000E+00 -0.00000000000E+00 -0.45593999997E+02  0.45594000000E+02  0.51100000000E-03 0.  1.
    9900012    2    1    2    0    0  0.21088693697E+02 -0.61893835655E+01  0.34207076328E+02  0.50528861523E+02  0.30000005085E+02 0.  0.
        -12    1    1    2    0    0 -0.21088693697E+02  0.61893835655E+01 -0.34207076328E+02  0.40659138477E+02  0.00000000000E+00 0.  1.
         11    1    3    3    0    0  0.53805507659E+01  0.25265498767E+01  0.59853602302E+01  0.84355389971E+01  0.51100000000E-03 0. -1.
        -11    1    3    3    0    0  0.46462047423E+01  0.57679603726E+01  0.21379840165E+02  0.22626403848E+02  0.51100000000E-03 0.  1.
         12    1    3    3    0    0  0.11061938189E+02 -0.14483893815E+02  0.68418759335E+01  0.19466918678E+02  0.00000000000E+00 0. -1.
</event>
<event>
 7    1  0.4520156E-012  0.5052886E+02  0.7816164E-02  0.1300439E+00
        -11   -1    0    0    0    0  0.00000000000E+00  0.00000000000E+00  0.45593999997E+02  0.45594000000E+02  0.51100000000E-03 0. -1.
         11   -1    0    0    0    0 -0.00000000000E+00 -0.00000000000E+00 -0.45593999997E+02  0.45594000000E+02  0.51100000000E-03 0.  1.
    9900012    2    1    2    0    0 -0.11332728733E+02 -0.86246722350E+01 -0.38083460705E+02  0.50528859688E+02  0.29999999506E+02 0.  0.
         12    1    1    2    0    0  0.11332728733E+02  0.86246722350E+01  0.38083460705E+02  0.40659140312E+02  0.00000000000E+00 0. -1.
         11    1    3    3    0    0 -0.56253175031E+01  0.48677214742E+01 -0.14152721658E+02  0.15988697256E+02  0.51100000000E-03 0. -1.
        -11    1    3    3    0    0  0.64456310838E+01 -0.81330194603E+01 -0.15998797040E+02  0.19069705624E+02  0.51100000000E-03 0.  1.
         12    1    3    3    0    0 -0.12153042314E+02 -0.53593742489E+01 -0.79319420069E+01  0.15470456807E+02  0.00000000000E+00 0. -1.
</event>
<event>
 7    1  0.4520156E-012  0.5052886E+02  0.7816164E-02  0.1300439E+00
        -11   -1    0    0    0    0  0.00000000000E+00  0.00000000000E+00  0.45593999997E+02  0.45594000000E+02  0.51100000000E-03 0.  1.
         11   -1    0    0    0    0 -0.00000000000E+00 -0.00000000000E+00 -0.45593999997E+02  0.45594000000E+02  0.51100000000E-03 0. -1.
    9900012    2    1    2    0    0  0.25492167809E+02  0.31644395796E+02  0.13954488673E+01  0.50528859792E+02  0.29999999825E+02 0.  0.
         12    1    1    2    0    0 -0.25492167809E+02 -0.31644395796E+02 -0.13954488673E+01  0.40659140208E+02  0.00000000000E+00 0. -1.
         11    1    3    3    0    0  0.29264112331E+01 -0.14539366027E+01  0.54739508970E+01  0.63751041586E+01  0.51100000000E-03 0. -1.
        -11    1    3    3    0    0  0.14126827053E+02  0.17485894414E+02 -0.11096851191E+02  0.25069181332E+02  0.51100000000E-03 0.  1.
         12    1    3    3    0    0  0.84389295229E+01  0.15612437985E+02  0.70183491616E+01  0.19084574302E+02  0.00000000000E+00 0. -1.
</event>
<event>
 7    1  0.4520156E-012  0.5052884E+02  0.7816164E-02  0.1300439E+00
        -11   -1    0    0    0    0  0.00000000000E+00  0.00000000000E+00  0.45593999997E+02  0.45594000000E+02  0.51100000000E-03 0. -1.
         11   -1    0    0    0    0 -0.00000000000E+00 -0.00000000000E+00 -0.45593999997E+02  0.45594000000E+02  0.51100000000E-03 0.  1.
    9900012    2    1    2    0    0  0.24956181062E+02 -0.19966384621E+02  0.25133637519E+02  0.50528840848E+02  0.29999942241E+02 0.  0.
        -12    1    1    2    0    0 -0.24956181062E+02  0.19966384621E+02 -0.25133637519E+02  0.40659159152E+02  0.00000000000E+00 0.  1.
         11    1    3    3    0    0  0.35939479212E+01 -0.12303211634E+01 -0.31003915737E+01  0.49033233624E+01  0.51100000000E-03 0. -1.
        -11    1    3    3    0    0  0.21866378770E+01  0.18830080027E+01 -0.25893569588E+01  0.38770960866E+01  0.51100000000E-03 0.  1.
         12    1    3    3    0    0  0.19175595263E+02 -0.20619071461E+02  0.30823386051E+02  0.41748421399E+02  0.00000000000E+00 0. -1.
</event>
<event>
 7    1  0.4520156E-012  0.5052886E+02  0.7816164E-02  0.1300439E+00
        -11   -1    0    0    0    0  0.00000000000E+00  0.00000000000E+00  0.45593999997E+02  0.45594000000E+02  0.51100000000E-03 0.  1.
         11   -1    0    0    0    0 -0.00000000000E+00 -0.00000000000E+00 -0.45593999997E+02  0.45594000000E+02  0.51100000000E-03 0. -1.
    9900012    2    1    2    0    0  0.37508406554E+02 -0.12837521347E+02  0.90267808916E+01  0.50528864621E+02  0.30000014501E+02 0.  0.
        -12    1    1    2    0    0 -0.37508406554E+02  0.12837521347E+02 -0.90267808916E+01  0.40659135379E+02  0.00000000000E+00 0.  1.
         11    1    3    3    0    0  0.19765802178E+02 -0.11404728083E+02  0.35781475057E+01  0.23098872228E+02  0.51100000000E-03 0. -1.
        -11    1    3    3    0    0  0.18327272205E+02 -0.81600430779E+01  0.49228053369E+01  0.20656941258E+02  0.51100000000E-03 0.  1.
        -12    1    3    3    0    0 -0.58466782858E+00  0.67272498143E+01  0.52582804901E+00  0.67730511345E+01  0.00000000000E+00 0.  1.
</event>
<event>
 7    1  0.4520156E-012  0.5052886E+02  0.7816164E-02  0.1300439E+00
        -11   -1    0    0    0    0  0.00000000000E+00  0.00000000000E+00  0.45593999997E+02  0.45594000000E+02  0.51100000000E-03 0. -1.
         11   -1    0    0    0    0 -0.00000000000E+00 -0.00000000000E+00 -0.45593999997E+02  0.45594000000E+02  0.51100000000E-03 0.  1.
    9900012    2    1    2    0    0 -0.36308761057E+02 -0.83109056050E+01 -0.16302400069E+02  0.50528861673E+02  0.30000005542E+02 0.  0.
         12    1    1    2    0    0  0.36308761057E+02  0.83109056050E+01  0.16302400069E+02  0.40659138327E+02  0.00000000000E+00 0. -1.
         11    1    3    3    0    0 -0.45202717364E+01 -0.37339146854E+00  0.12078297841E+01  0.46937331419E+01  0.51100000000E-03 0. -1.
        -11    1    3    3    0    0 -0.25795304581E+02 -0.44695332154E+01  0.86978008914E+00  0.26194102070E+02  0.51100000000E-03 0.  1.
        -12    1    3    3    0    0 -0.59931847399E+01 -0.34679809211E+01 -0.18380009942E+02  0.19641026462E+02  0.00000000000E+00 0.  1.
</event>
<event>
 7    1  0.4520156E-012  0.5052886E+02  0.7816164E-02  0.1300439E+00
        -11   -1    0    0    0    0  0.00000000000E+00  0.00000000000E+00  0.45593999997E+02  0.45594000000E+02  0.51100000000E-03 0. -1.
         11   -1    0    0    0    0 -0.00000000000E+00 -0.00000000000E+00 -0.45593999997E+02  0.45594000000E+02  0.51100000000E-03 0.  1.
    9900012    2    1    2    0    0  0.14651585418E+02 -0.79693787306E+01  0.37080796061E+02  0.50528863399E+02  0.30000010787E+02 0.  0.
        -12    1    1    2    0    0 -0.14651585418E+02  0.79693787306E+01 -0.37080796061E+02  0.40659136601E+02  0.00000000000E+00 0.  1.
         11    1    3    3    0    0  0.18110662523E+02 -0.11060849975E+02  0.27206065567E+02  0.34503746218E+02  0.51100000000E-03 0. -1.
        -11    1    3    3    0    0 -0.31825093598E+01 -0.39072752826E+01  0.18369028031E+01  0.53637093627E+01  0.51100000000E-03 0.  1.
        -12    1    3    3    0    0 -0.27656774512E+00  0.69987465271E+01  0.80378276916E+01  0.10661407818E+02  0.00000000000E+00 0.  1.
</event>
<event>
 7    1  0.4520156E-012  0.5052887E+02  0.7816164E-02  0.1300439E+00
        -11   -1    0    0    0    0  0.00000000000E+00  0.00000000000E+00  0.45593999997E+02  0.45594000000E+02  0.51100000000E-03 0. -1.
         11   -1    0    0    0    0 -0.00000000000E+00 -0.00000000000E+00 -0.45593999997E+02  0.45594000000E+02  0.51100000000E-03 0.  1.
    9900012    2    1    2    0    0 -0.72159830857E+01  0.17510872821E+02  0.35978656161E+02  0.50528870914E+02  0.30000033632E+02 0.  0.
        -12    1    1    2    0    0  0.72159830857E+01 -0.17510872821E+02 -0.35978656161E+02  0.40659129086E+02  0.00000000000E+00 0.  1.
         11    1    3    3    0    0 -0.55534207992E+01  0.15769384332E+02  0.18609134534E+02  0.25016271768E+02  0.51100000000E-03 0. -1.
        -11    1    3    3    0    0 -0.55253712191E+01  0.54164096397E+01  0.18508464725E+02  0.20060670159E+02  0.51100000000E-03 0.  1.
        -12    1    3    3    0    0  0.38628089326E+01 -0.36749211506E+01 -0.11389430976E+01  0.54519289882E+01  0.00000000000E+00 0.  1.
</event>
<event>
 7    1  0.4520156E-012  0.5052886E+02  0.7816164E-02  0.1300439E+00
        -11   -1    0    0    0    0  0.00000000000E+00  0.00000000000E+00  0.45593999997E+02  0.45594000000E+02  0.51100000000E-03 0. -1.
         11   -1    0    0    0    0 -0.00000000000E+00 -0.00000000000E+00 -0.45593999997E+02  0.45594000000E+02  0.51100000000E-03 0.  1.
    9900012    2    1    2    0    0 -0.22502233182E+02 -0.20541156544E+02  0.26923529571E+02  0.50528855212E+02  0.29999985902E+02 0.  0.
        -12    1    1    2    0    0  0.22502233182E+02  0.20541156544E+02 -0.26923529571E+02  0.40659144788E+02  0.00000000000E+00 0.  1.
         11    1    3    3    0    0 -0.12428637810E+02 -0.12340394609E+02  0.14787843304E+02  0.22922405781E+02  0.51100000000E-03 0. -1.
        -11    1    3    3    0    0 -0.26535567049E+01 -0.91342515836E+01  0.16428475452E+02  0.18983432806E+02  0.51100000000E-03 0.  1.
        -12    1    3    3    0    0 -0.74200386664E+01  0.93348964858E+00 -0.42927891846E+01  0.86230166252E+01  0.00000000000E+00 0.  1.
</event>
<event>
 7    1  0.4520156E-012  0.5052884E+02  0.7816164E-02  0.1300439E+00
        -11   -1    0    0    0    0  0.00000000000E+00  0.00000000000E+00  0.45593999997E+02  0.45594000000E+02  0.51100000000E-03 0. -1.
         11   -1    0    0    0    0 -0.00000000000E+00 -0.00000000000E+00 -0.45593999997E+02  0.45594000000E+02  0.51100000000E-03 0.  1.
    9900012    2    1    2    0    0  0.40967508217E+01 -0.64857625563E+01 -0.39928921065E+02  0.50528840877E+02  0.29999942329E+02 0.  0.
         12    1    1    2    0    0 -0.40967508217E+01  0.64857625563E+01  0.39928921065E+02  0.40659159123E+02  0.00000000000E+00 0. -1.
         11    1    3    3    0    0  0.10014564022E+02  0.10735030363E+01 -0.60229435062E+01  0.11735405833E+02  0.51100000000E-03 0. -1.
        -11    1    3    3    0    0 -0.60134784906E+01  0.18419992268E+01 -0.25223766479E+02  0.25996024318E+02  0.51100000000E-03 0.  1.
        -12    1    3    3    0    0  0.95665290202E-01 -0.94012648194E+01 -0.86822110795E+01  0.12797410726E+02  0.00000000000E+00 0.  1.
</event>
<event>
 7    1  0.4520156E-012  0.5052887E+02  0.7816164E-02  0.1300439E+00
        -11   -1    0    0    0    0  0.00000000000E+00  0.00000000000E+00  0.45593999997E+02  0.45594000000E+02  0.51100000000E-03 0.  1.
         11   -1    0    0    0    0 -0.00000000000E+00 -0.00000000000E+00 -0.45593999997E+02  0.45594000000E+02  0.51100000000E-03 0. -1.
    9900012    2    1    2    0    0  0.31718825131E+02 -0.23860447981E+02 -0.88181785072E+01  0.50528866736E+02  0.30000020932E+02 0.  0.
         12    1    1    2    0    0 -0.31718825131E+02  0.23860447981E+02  0.88181785072E+01  0.40659133264E+02  0.00000000000E+00 0. -1.
         11    1    3    3    0    0  0.23369488503E+02 -0.16691030991E+02 -0.11794469538E+01  0.28742209446E+02  0.51100000000E-03 0.  1.
        -11    1    3    3    0    0  0.89111052493E+01 -0.83930180475E+01  0.16933835337E+01  0.12357916360E+02  0.51100000000E-03 0. -1.
         12    1    3    3    0    0 -0.56176862130E+00  0.12236010580E+01 -0.93321150870E+01  0.94287409303E+01  0.00000000000E+00 0. -1.
</event>
<event>
 7    1  0.4520156E-012  0.5052886E+02  0.7816164E-02  0.1300439E+00
        -11   -1    0    0    0    0  0.00000000000E+00  0.00000000000E+00  0.45593999997E+02  0.45594000000E+02  0.51100000000E-03 0. -1.
         11   -1    0    0    0    0 -0.00000000000E+00 -0.00000000000E+00 -0.45593999997E+02  0.45594000000E+02  0.51100000000E-03 0.  1.
    9900012    2    1    2    0    0  0.81210225850E+01 -0.25069036994E+02  0.30963818365E+02  0.50528859928E+02  0.30000000238E+02 0.  0.
        -12    1    1    2    0    0 -0.81210225850E+01  0.25069036994E+02 -0.30963818365E+02  0.40659140072E+02  0.00000000000E+00 0.  1.
         11    1    3    3    0    0  0.23366366120E+01 -0.24036805251E+02  0.13217941801E+02  0.27530743961E+02  0.51100000000E-03 0. -1.
        -11    1    3    3    0    0  0.89856062285E+00 -0.42691745445E+01  0.56457420812E-01  0.43630780632E+01  0.51100000000E-03 0.  1.
         12    1    3    3    0    0  0.48858253501E+01  0.32369428019E+01  0.17689419143E+02  0.18635037904E+02  0.00000000000E+00 0. -1.
</event>
<event>
 7    1  0.4520156E-012  0.5052885E+02  0.7816164E-02  0.1300439E+00
        -11   -1    0    0    0    0  0.00000000000E+00  0.00000000000E+00  0.45593999997E+02  0.45594000000E+02  0.51100000000E-03 0. -1.
         11   -1    0    0    0    0 -0.00000000000E+00 -0.00000000000E+00 -0.45593999997E+02  0.45594000000E+02  0.51100000000E-03 0.  1.
    9900012    2    1    2    0    0  0.14492111205E+02  0.22671486331E+02  0.30481945882E+02  0.50528848455E+02  0.29999965363E+02 0.  0.
        -12    1    1    2    0    0 -0.14492111205E+02 -0.22671486331E+02 -0.30481945882E+02  0.40659151545E+02  0.00000000000E+00 0.  1.
         11    1    3    3    0    0  0.92503011523E+01  0.14730805500E+02  0.22776882774E+02  0.28659223493E+02  0.51100000000E-03 0. -1.
        -11    1    3    3    0    0  0.69222062141E+01  0.12881843786E+02  0.79493104638E+01  0.16644830288E+02  0.51100000000E-03 0.  1.
         12    1    3    3    0    0 -0.16803961609E+01 -0.49411629555E+01 -0.24424735552E+00  0.52247946735E+01  0.00000000000E+00 0. -1.
</event>
<event>
 7    1  0.4520156E-012  0.5052886E+02  0.7816164E-02  0.1300439E+00
        -11   -1    0    0    0    0  0.00000000000E+00  0.00000000000E+00  0.45593999997E+02  0.45594000000E+02  0.51100000000E-03 0.  1.
         11   -1    0    0    0    0 -0.00000000000E+00 -0.00000000000E+00 -0.45593999997E+02  0.45594000000E+02  0.51100000000E-03 0. -1.
    9900012    2    1    2    0    0 -0.20632231471E+01 -0.33966354102E+02 -0.22252992668E+02  0.50528858550E+02  0.29999996049E+02 0.  0.
         12    1    1    2    0    0  0.20632231471E+01  0.33966354102E+02  0.22252992668E+02  0.40659141450E+02  0.00000000000E+00 0. -1.
         11    1    3    3    0    0  0.70707262787E+01 -0.11448182218E+02 -0.36052648142E+01  0.13930325942E+02  0.51100000000E-03 0. -1.
        -11    1    3    3    0    0  0.96413127203E+00 -0.14882743717E+02 -0.10914659148E+01  0.14953825857E+02  0.51100000000E-03 0.  1.
         12    1    3    3    0    0 -0.10098080698E+02 -0.76354281668E+01 -0.17556261939E+02  0.21644706751E+02  0.00000000000E+00 0. -1.
</event>
<event>
 7    1  0.4520156E-012  0.5052885E+02  0.7816164E-02  0.1300439E+00
        -11   -1    0    0    0    0  0.00000000000E+00  0.00000000000E+00  0.45593999997E+02  0.45594000000E+02  0.51100000000E-03 0. -1.
         11   -1    0    0    0    0 -0.00000000000E+00 -0.00000000000E+00 -0.45593999997E+02  0.45594000000E+02  0.51100000000E-03 0.  1.
    9900012    2    1    2    0    0 -0.17674873244E+02  0.17325517074E+02 -0.32258199210E+02  0.50528854629E+02  0.29999984130E+02 0.  0.
         12    1    1    2    0    0  0.17674873244E+02 -0.17325517074E+02  0.32258199210E+02  0.40659145371E+02  0.00000000000E+00 0. -1.
         11    1    3    3    0    0  0.14410485002E+01  0.44789844860E+00  0.20736652419E+01  0.25646289394E+01  0.51100000000E-03 0. -1.
        -11    1    3    3    0    0 -0.17829666212E+02  0.13951464897E+02 -0.12423843686E+02  0.25824257244E+02  0.51100000000E-03 0.  1.
        -12    1    3    3    0    0 -0.12862555323E+01  0.29261537281E+01 -0.21908020765E+02  0.22139968446E+02  0.00000000000E+00 0.  1.
</event>
<event>
 7    1  0.4520156E-012  0.5052886E+02  0.7816164E-02  0.1300439E+00
        -11   -1    0    0    0    0  0.00000000000E+00  0.00000000000E+00  0.45593999997E+02  0.45594000000E+02  0.51100000000E-03 0. -1.
         11   -1    0    0    0    0 -0.00000000000E+00 -0.00000000000E+00 -0.45593999997E+02  0.45594000000E+02  0.51100000000E-03 0.  1.
    9900012    2    1    2    0    0  0.13636082637E+02  0.27524626124E+02 -0.26638648653E+02  0.50528863327E+02  0.30000010568E+02 0.  0.
         12    1    1    2    0    0 -0.13636082637E+02 -0.27524626124E+02  0.26638648653E+02  0.40659136673E+02  0.00000000000E+00 0. -1.
         11    1    3    3    0    0 -0.36838146209E+01  0.58305152818E+00 -0.46079502449E+01  0.59282075677E+01  0.51100000000E-03 0. -1.
        -11    1    3    3    0    0 -0.32224142658E+01  0.65620813156E+01 -0.11853867592E+02  0.13926917894E+02  0.51100000000E-03 0.  1.
        -12    1    3    3    0    0  0.20542311524E+02  0.20379493281E+02 -0.10176830816E+02  0.30673737865E+02  0.00000000000E+00 0.  1.
</event>
<event>
 7    1  0.4520156E-012  0.5052886E+02  0.7816164E-02  0.1300439E+00
        -11   -1    0    0    0    0  0.00000000000E+00  0.00000000000E+00  0.45593999997E+02  0.45594000000E+02  0.51100000000E-03 0.  1.
         11   -1    0    0    0    0 -0.00000000000E+00 -0.00000000000E+00 -0.45593999997E+02  0.45594000000E+02  0.51100000000E-03 0. -1.
    9900012    2    1    2    0    0 -0.23403069033E+02  0.31129163602E+02  0.11680639547E+02  0.50528858261E+02  0.29999995169E+02 0.  0.
        -12    1    1    2    0    0  0.23403069033E+02 -0.31129163602E+02 -0.11680639547E+02  0.40659141739E+02  0.00000000000E+00 0.  1.
         11    1    3    3    0    0 -0.10450645767E+01  0.17795740119E+02  0.80667437106E+01  0.19566626708E+02  0.51100000000E-03 0. -1.
        -11    1    3    3    0    0 -0.73911642475E+01  0.13662546502E+02 -0.11610545056E+00  0.15534090466E+02  0.51100000000E-03 0.  1.
        -12    1    3    3    0    0 -0.14966840209E+02 -0.32912301968E+00  0.37300012875E+01  0.15428141087E+02  0.00000000000E+00 0.  1.
</event>
<event>
 7    1  0.4520156E-012  0.5052888E+02  0.7816164E-02  0.1300439E+00
        -11   -1    0    0    0    0  0.00000000000E+00  0.00000000000E+00  0.45593999997E+02  0.45594000000E+02  0.51100000000E-03 0. -1.
         11   -1    0    0    0    0 -0.00000000000E+00 -0.00000000000E+00 -0.45593999997E+02  0.45594000000E+02  0.51100000000E-03 0.  1.
    9900012    2    1    2    0    0  0.73158699484E+01 -0.12312558364E+02 -0.38053159672E+02  0.50528880389E+02  0.30000062429E+02 0.  0.
         12    1    1    2    0    0 -0.73158699484E+01  0.12312558364E+02  0.38053159672E+02  0.40659119611E+02  0.00000000000E+00 0. -1.
         11    1    3    3    0    0 -0.34344158004E+01  0.54279670034E+01  0.12436674341E+00  0.64244458926E+01  0.51100000000E-03 0. -1.
        -11    1    3    3    0    0  0.11148565611E+01 -0.18016345774E+01 -0.66145819810E+00  0.22195313720E+01  0.51100000000E-03 0.  1.
        -12    1    3    3    0    0  0.96354291877E+01 -0.15938890790E+02 -0.37516068217E+02  0.41884903124E+02  0.00000000000E+00 0.  1.
</event>
<event>
 7    1  0.4520156E-012  0.5052886E+02  0.7816164E-02  0.1300439E+00
        -11   -1    0    0    0    0  0.00000000000E+00  0.00000000000E+00  0.45593999997E+02  0.45594000000E+02  0.51100000000E-03 0. -1.
         11   -1    0    0    0    0 -0.00000000000E+00 -0.00000000000E+00 -0.45593999997E+02  0.45594000000E+02  0.51100000000E-03 0.  1.
    9900012    2    1    2    0    0 -0.98445442843E+01 -0.24931148540E+02 -0.30572670879E+02  0.50528862966E+02  0.30000009471E+02 0.  0.
         12    1    1    2    0    0  0.98445442843E+01  0.24931148540E+02  0.30572670879E+02  0.40659137034E+02  0.00000000000E+00 0. -1.
         11    1    3    3    0    0 -0.50103766771E+01 -0.10860700290E+02 -0.24593123509E+02  0.27347402243E+02  0.51100000000E-03 0. -1.
        -11    1    3    3    0    0 -0.20670757096E+01 -0.30640100630E+01 -0.10372979521E+02  0.11011796586E+02  0.51100000000E-03 0.  1.
         12    1    3    3    0    0 -0.27670918977E+01 -0.11006438187E+02  0.43934321512E+01  0.12169664137E+02  0.00000000000E+00 0. -1.
</event>
<event>
 7    1  0.4520156E-012  0.5052887E+02  0.7816164E-02  0.1300439E+00
        -11   -1    0    0    0    0  0.00000000000E+00  0.00000000000E+00  0.45593999997E+02  0.45594000000E+02  0.51100000000E-03 0. -1.
         11   -1    0    0    0    0 -0.00000000000E+00 -0.00000000000E+00 -0.45593999997E+02  0.45594000000E+02  0.51100000000E-03 0.  1.
    9900012    2    1    2    0    0 -0.24891974968E+02  0.71569569217E+00  0.32140974528E+02  0.50528869639E+02  0.30000029753E+02 0.  0.
        -12    1    1    2    0    0  0.24891974968E+02 -0.71569569217E+00 -0.32140974528E+02  0.40659130361E+02  0.00000000000E+00 0.  1.
         11    1    3    3    0    0 -0.90025146103E+01  0.24355330079E+01  0.79239644917E+01  0.12237904390E+02  0.51100000000E-03 0. -1.
        -11    1    3    3    0    0  0.48610592040E+01  0.85919764829E+00 -0.14873794296E+01  0.51556197505E+01  0.51100000000E-03 0.  1.
         12    1    3    3    0    0 -0.20750519562E+02 -0.25790349641E+01  0.25704389466E+02  0.33135345498E+02  0.00000000000E+00 0. -1.
</event>
<event>
 7    1  0.4520156E-012  0.5052881E+02  0.7816164E-02  0.1300439E+00
        -11   -1    0    0    0    0  0.00000000000E+00  0.00000000000E+00  0.45593999997E+02  0.45594000000E+02  0.51100000000E-03 0. -1.
         11   -1    0    0    0    0 -0.00000000000E+00 -0.00000000000E+00 -0.45593999997E+02  0.45594000000E+02  0.51100000000E-03 0.  1.
    9900012    2    1    2    0    0  0.29481995210E+02 -0.10344914483E+02  0.26018533374E+02  0.50528814369E+02  0.29999861756E+02 0.  0.
        -12    1    1    2    0    0 -0.29481995210E+02  0.10344914483E+02 -0.26018533374E+02  0.40659185631E+02  0.00000000000E+00 0.  1.
         11    1    3    3    0    0  0.73352927382E+01  0.41052626410E+01  0.17841905272E+02  0.19722912688E+02  0.51100000000E-03 0. -1.
        -11    1    3    3    0    0 -0.13928337208E+01  0.56731311624E+00  0.14413648104E+01  0.20831137087E+01  0.51100000000E-03 0.  1.
        -12    1    3    3    0    0  0.23539536193E+02 -0.15017490240E+02  0.67352632914E+01  0.28722787972E+02  0.00000000000E+00 0.  1.
</event>
<event>
 7    1  0.4520156E-012  0.5052886E+02  0.7816164E-02  0.1300439E+00
        -11   -1    0    0    0    0  0.00000000000E+00  0.00000000000E+00  0.45593999997E+02  0.45594000000E+02  0.51100000000E-03 0. -1.
         11   -1    0    0    0    0 -0.00000000000E+00 -0.00000000000E+00 -0.45593999997E+02  0.45594000000E+02  0.51100000000E-03 0.  1.
    9900012    2    1    2    0    0 -0.17887644284E+01  0.20998898332E+02  0.34770852268E+02  0.50528861091E+02  0.30000003773E+02 0.  0.
        -12    1    1    2    0    0  0.17887644284E+01 -0.20998898332E+02 -0.34770852268E+02  0.40659138909E+02  0.00000000000E+00 0.  1.
         11    1    3    3    0    0 -0.13918871875E+02  0.75177979517E+01  0.10185084457E+02  0.18814574829E+02  0.51100000000E-03 0. -1.
        -11    1    3    3    0    0  0.54408892086E+01  0.82836794529E+01  0.68149567487E+01  0.12027728647E+02  0.51100000000E-03 0.  1.
        -12    1    3    3    0    0  0.66892182385E+01  0.51974209279E+01  0.17770811062E+02  0.19686557615E+02  0.00000000000E+00 0.  1.
</event>
<event>
 7    1  0.4520156E-012  0.5052886E+02  0.7816164E-02  0.1300439E+00
        -11   -1    0    0    0    0  0.00000000000E+00  0.00000000000E+00  0.45593999997E+02  0.45594000000E+02  0.51100000000E-03 0. -1.
         11   -1    0    0    0    0 -0.00000000000E+00 -0.00000000000E+00 -0.45593999997E+02  0.45594000000E+02  0.51100000000E-03 0.  1.
    9900012    2    1    2    0    0  0.11012299973E+02 -0.20347721050E+02  0.33434487837E+02  0.50528862287E+02  0.30000007407E+02 0.  0.
        -12    1    1    2    0    0 -0.11012299973E+02  0.20347721050E+02 -0.33434487837E+02  0.40659137713E+02  0.00000000000E+00 0.  1.
         11    1    3    3    0    0  0.48293663415E+01 -0.60411332177E+01  0.84352245507E+01  0.11444259840E+02  0.51100000000E-03 0. -1.
        -11    1    3    3    0    0 -0.11958805962E+01 -0.20333898019E+02  0.18791005459E+02  0.27712802556E+02  0.51100000000E-03 0.  1.
        -12    1    3    3    0    0  0.73788142279E+01  0.60273101873E+01  0.62082578275E+01  0.11371799891E+02  0.00000000000E+00 0.  1.
</event>
<event>
 7    1  0.4520156E-012  0.5052886E+02  0.7816164E-02  0.1300439E+00
        -11   -1    0    0    0    0  0.00000000000E+00  0.00000000000E+00  0.45593999997E+02  0.45594000000E+02  0.51100000000E-03 0. -1.
         11   -1    0    0    0    0 -0.00000000000E+00 -0.00000000000E+00 -0.45593999997E+02  0.45594000000E+02  0.51100000000E-03 0.  1.
    9900012    2    1    2    0    0  0.26898908859E+01 -0.59183396733E+01  0.40136058339E+02  0.50528862817E+02  0.30000009018E+02 0.  0.
        -12    1    1    2    0    0 -0.26898908859E+01  0.59183396733E+01 -0.40136058339E+02  0.40659137183E+02  0.00000000000E+00 0.  1.
         11    1    3    3    0    0  0.15724476794E+01 -0.35287231689E+01  0.81589227090E+01  0.90273195877E+01  0.51100000000E-03 0. -1.
        -11    1    3    3    0    0  0.78800646743E+01 -0.12107700329E+02  0.19883061011E+02  0.24576979919E+02  0.51100000000E-03 0.  1.
        -12    1    3    3    0    0 -0.67626214678E+01  0.97180838242E+01  0.12094074619E+02  0.16924563310E+02  0.00000000000E+00 0.  1.
</event>
<event>
 7    1  0.4520156E-012  0.5052884E+02  0.7816164E-02  0.1300439E+00
        -11   -1    0    0    0    0  0.00000000000E+00  0.00000000000E+00  0.45593999997E+02  0.45594000000E+02  0.51100000000E-03 0. -1.
         11   -1    0    0    0    0 -0.00000000000E+00 -0.00000000000E+00 -0.45593999997E+02  0.45594000000E+02  0.51100000000E-03 0.  1.
    9900012    2    1    2    0    0 -0.20828120625E+02  0.38272127280E+01 -0.34708921708E+02  0.50528838521E+02  0.29999935168E+02 0.  0.
         12    1    1    2    0    0  0.20828120625E+02 -0.38272127280E+01  0.34708921708E+02  0.40659161479E+02  0.00000000000E+00 0. -1.
         11    1    3    3    0    0 -0.90797876048E+01 -0.39047502970E+01 -0.71985147395E+01  0.12227355910E+02  0.51100000000E-03 0. -1.
        -11    1    3    3    0    0 -0.14588639203E+02  0.29734723571E+01 -0.59386430691E+01  0.16029267401E+02  0.51100000000E-03 0.  1.
        -12    1    3    3    0    0  0.28403061823E+01  0.47584906679E+01 -0.21571763899E+02  0.22272215210E+02  0.00000000000E+00 0.  1.
</event>
<event>
 7    1  0.4520156E-012  0.5052884E+02  0.7816164E-02  0.1300439E+00
        -11   -1    0    0    0    0  0.00000000000E+00  0.00000000000E+00  0.45593999997E+02  0.45594000000E+02  0.51100000000E-03 0.  1.
         11   -1    0    0    0    0 -0.00000000000E+00 -0.00000000000E+00 -0.45593999997E+02  0.45594000000E+02  0.51100000000E-03 0. -1.
    9900012    2    1    2    0    0 -0.60472441436E-01 -0.36956242985E+02  0.16952877266E+02  0.50528836210E+02  0.29999928143E+02 0.  0.
        -12    1    1    2    0    0  0.60472441436E-01  0.36956242985E+02 -0.16952877266E+02  0.40659163790E+02  0.00000000000E+00 0.  1.
         11    1    3    3    0    0 -0.90524136905E+01 -0.30665216744E+02  0.17279598525E+02  0.36343998638E+02  0.51100000000E-03 0. -1.
        -11    1    3    3    0    0 -0.22520714167E+00 -0.11062115083E+01  0.29132223384E+01  0.31243058128E+01  0.51100000000E-03 0.  1.
        -12    1    3    3    0    0  0.92171483907E+01 -0.51848147329E+01 -0.32399435971E+01  0.11060531759E+02  0.00000000000E+00 0.  1.
</event>
<event>
 7    1  0.4520156E-012  0.5052885E+02  0.7816164E-02  0.1300439E+00
        -11   -1    0    0    0    0  0.00000000000E+00  0.00000000000E+00  0.45593999997E+02  0.45594000000E+02  0.51100000000E-03 0. -1.
         11   -1    0    0    0    0 -0.00000000000E+00 -0.00000000000E+00 -0.45593999997E+02  0.45594000000E+02  0.51100000000E-03 0.  1.
    9900012    2    1    2    0    0  0.94103404705E+00  0.16108949795E+02 -0.37320002039E+02  0.50528851450E+02  0.29999974468E+02 0.  0.
         12    1    1    2    0    0 -0.94103404705E+00 -0.16108949795E+02  0.37320002039E+02  0.40659148550E+02  0.00000000000E+00 0. -1.
         11    1    3    3    0    0  0.70597652303E+01  0.44707305995E+01 -0.28672993262E+02  0.29865837676E+02  0.51100000000E-03 0. -1.
        -11    1    3    3    0    0 -0.24874985441E+00  0.35013359880E+01 -0.99448960965E+01  0.10546193096E+02  0.51100000000E-03 0.  1.
         12    1    3    3    0    0 -0.58699813288E+01  0.81368832078E+01  0.12978873197E+01  0.10116820678E+02  0.00000000000E+00 0. -1.
</event>
<event>
 7    1  0.4520156E-012  0.5052884E+02  0.7816164E-02  0.1300439E+00
        -11   -1    0    0    0    0  0.00000000000E+00  0.00000000000E+00  0.45593999997E+02  0.45594000000E+02  0.51100000000E-03 0. -1.
         11   -1    0    0    0    0 -0.00000000000E+00 -0.00000000000E+00 -0.45593999997E+02  0.45594000000E+02  0.51100000000E-03 0.  1.
    9900012    2    1    2    0    0 -0.84717099728E+01 -0.20243453682E+02 -0.34228643161E+02  0.50528839907E+02  0.29999939381E+02 0.  0.
         12    1    1    2    0    0  0.84717099728E+01  0.20243453682E+02  0.34228643161E+02  0.40659160093E+02  0.00000000000E+00 0. -1.
         11    1    3    3    0    0  0.10100616679E+02 -0.38631841496E+01 -0.73448513854E+01  0.13072623731E+02  0.51100000000E-03 0. -1.
        -11    1    3    3    0    0 -0.10862715311E+01 -0.29675611636E+01 -0.73768024947E+01  0.80251866275E+01  0.51100000000E-03 0.  1.
         12    1    3    3    0    0 -0.17486055121E+02 -0.13412708368E+02 -0.19506989281E+02  0.29431029548E+02  0.00000000000E+00 0. -1.
</event>
<event>
 7    1  0.4520156E-012  0.5052885E+02  0.7816164E-02  0.1300439E+00
        -11   -1    0    0    0    0  0.00000000000E+00  0.00000000000E+00  0.45593999997E+02  0.45594000000E+02  0.51100000000E-03 0. -1.
         11   -1    0    0    0    0 -0.00000000000E+00 -0.00000000000E+00 -0.45593999997E+02  0.45594000000E+02  0.51100000000E-03 0.  1.
    9900012    2    1    2    0    0 -0.19742071994E+02 -0.11985420401E+02 -0.33462916775E+02  0.50528849641E+02  0.29999968968E+02 0.  0.
         12    1    1    2    0    0  0.19742071994E+02  0.11985420401E+02  0.33462916775E+02  0.40659150359E+02  0.00000000000E+00 0. -1.
         11    1    3    3    0    0  0.38384743738E+01 -0.59135323644E+01 -0.12303919779E+02  0.14180627374E+02  0.51100000000E-03 0. -1.
        -11    1    3    3    0    0 -0.96090002024E-01 -0.60694252948E+01 -0.44030380512E+01  0.74989266591E+01  0.51100000000E-03 0.  1.
        -12    1    3    3    0    0 -0.23484456366E+02 -0.24627415869E-02 -0.16755958945E+02  0.28849295608E+02  0.00000000000E+00 0.  1.
</event>
<event>
 7    1  0.4520156E-012  0.5052886E+02  0.7816164E-02  0.1300439E+00
        -11   -1    0    0    0    0  0.00000000000E+00  0.00000000000E+00  0.45593999997E+02  0.45594000000E+02  0.51100000000E-03 0. -1.
         11   -1    0    0    0    0 -0.00000000000E+00 -0.00000000000E+00 -0.45593999997E+02  0.45594000000E+02  0.51100000000E-03 0.  1.
    9900012    2    1    2    0    0  0.25925360573E+02 -0.74588384946E+01 -0.30420506003E+02  0.50528858618E+02  0.29999996254E+02 0.  0.
         12    1    1    2    0    0 -0.25925360573E+02  0.74588384946E+01  0.30420506003E+02  0.40659141382E+02  0.00000000000E+00 0. -1.
         11    1    3    3    0    0  0.86722668310E+00  0.52833736335E+01 -0.34962267965E+01  0.63945071073E+01  0.51100000000E-03 0. -1.
        -11    1    3    3    0    0  0.90587093174E+01  0.27252034160E+01 -0.17650643914E+02  0.20025787850E+02  0.51100000000E-03 0.  1.
        -12    1    3    3    0    0  0.15999424572E+02 -0.15467415544E+02 -0.92736352920E+01  0.24108563661E+02  0.00000000000E+00 0.  1.
</event>
<event>
 7    1  0.4520156E-012  0.5052886E+02  0.7816164E-02  0.1300439E+00
        -11   -1    0    0    0    0  0.00000000000E+00  0.00000000000E+00  0.45593999997E+02  0.45594000000E+02  0.51100000000E-03 0.  1.
         11   -1    0    0    0    0 -0.00000000000E+00 -0.00000000000E+00 -0.45593999997E+02  0.45594000000E+02  0.51100000000E-03 0. -1.
    9900012    2    1    2    0    0  0.37023491044E+02  0.14915468908E+02  0.77430962885E+01  0.50528860290E+02  0.30000001337E+02 0.  0.
        -12    1    1    2    0    0 -0.37023491044E+02 -0.14915468908E+02 -0.77430962885E+01  0.40659139710E+02  0.00000000000E+00 0.  1.
         11    1    3    3    0    0  0.61314748504E+01  0.10567604917E+02  0.11664604518E+02  0.16891780733E+02  0.51100000000E-03 0. -1.
        -11    1    3    3    0    0  0.70339125291E+01  0.36092358081E+01  0.34920950142E+01  0.86427562984E+01  0.51100000000E-03 0.  1.
         12    1    3    3    0    0  0.23858103665E+02  0.73862818306E+00 -0.74136032437E+01  0.24994323258E+02  0.00000000000E+00 0. -1.
</event>
<event>
 7    1  0.4520156E-012  0.5052885E+02  0.7816164E-02  0.1300439E+00
        -11   -1    0    0    0    0  0.00000000000E+00  0.00000000000E+00  0.45593999997E+02  0.45594000000E+02  0.51100000000E-03 0. -1.
         11   -1    0    0    0    0 -0.00000000000E+00 -0.00000000000E+00 -0.45593999997E+02  0.45594000000E+02  0.51100000000E-03 0.  1.
    9900012    2    1    2    0    0  0.37266334320E+01  0.18319725280E+02 -0.36106319758E+02  0.50528850261E+02  0.29999970852E+02 0.  0.
         12    1    1    2    0    0 -0.37266334320E+01 -0.18319725280E+02  0.36106319758E+02  0.40659149739E+02  0.00000000000E+00 0. -1.
         11    1    3    3    0    0  0.66527783277E+01  0.30172656626E+01 -0.50235396086E+01  0.88656247392E+01  0.51100000000E-03 0. -1.
        -11    1    3    3    0    0  0.19906870927E+01 -0.50202562422E+01 -0.18219785736E+01  0.56995977070E+01  0.51100000000E-03 0.  1.
        -12    1    3    3    0    0 -0.49168319883E+01  0.20322715860E+02 -0.29260801575E+02  0.35963627814E+02  0.00000000000E+00 0.  1.
</event>
<event>
 7    1  0.4520156E-012  0.5052886E+02  0.7816164E-02  0.1300439E+00
        -11   -1    0    0    0    0  0.00000000000E+00  0.00000000000E+00  0.45593999997E+02  0.45594000000E+02  0.51100000000E-03 0. -1.
         11   -1    0    0    0    0 -0.00000000000E+00 -0.00000000000E+00 -0.45593999997E+02  0.45594000000E+02  0.51100000000E-03 0.  1.
    9900012    2    1    2    0    0 -0.16669211642E+02  0.12781791592E+01 -0.37063044140E+02  0.50528860810E+02  0.30000002918E+02 0.  0.
         12    1    1    2    0    0  0.16669211642E+02 -0.12781791592E+01  0.37063044140E+02  0.40659139190E+02  0.00000000000E+00 0. -1.
         11    1    3    3    0    0 -0.85075626725E+00  0.33769383125E+01  0.22987445485E+01  0.41727359553E+01  0.51100000000E-03 0. -1.
        -11    1    3    3    0    0 -0.80648407214E+01 -0.93082966718E+01 -0.12805106845E+02  0.17766733081E+02  0.51100000000E-03 0.  1.
         12    1    3    3    0    0 -0.77536146538E+01  0.72095375186E+01 -0.26556681844E+02  0.28589391774E+02  0.00000000000E+00 0. -1.
</event>
<event>
 7    1  0.4520156E-012  0.5052887E+02  0.7816164E-02  0.1300439E+00
        -11   -1    0    0    0    0  0.00000000000E+00  0.00000000000E+00  0.45593999997E+02  0.45594000000E+02  0.51100000000E-03 0. -1.
         11   -1    0    0    0    0 -0.00000000000E+00 -0.00000000000E+00 -0.45593999997E+02  0.45594000000E+02  0.51100000000E-03 0.  1.
    9900012    2    1    2    0    0 -0.13240158978E+02 -0.23504308643E+02 -0.30420564517E+02  0.50528867199E+02  0.30000022339E+02 0.  0.
         12    1    1    2    0    0  0.13240158978E+02  0.23504308643E+02  0.30420564517E+02  0.40659132801E+02  0.00000000000E+00 0. -1.
         11    1    3    3    0    0  0.71187034816E+01 -0.11584645350E+02 -0.64414318648E+01  0.15045663557E+02  0.51100000000E-03 0. -1.
        -11    1    3    3    0    0 -0.12860114825E+02 -0.11717349636E+02 -0.11281524687E+02  0.20735275145E+02  0.51100000000E-03 0.  1.
        -12    1    3    3    0    0 -0.74987476345E+01 -0.20231365671E+00 -0.12697607965E+02  0.14747928496E+02  0.00000000000E+00 0.  1.
</event>
<event>
 7    1  0.4520156E-012  0.5052886E+02  0.7816164E-02  0.1300439E+00
        -11   -1    0    0    0    0  0.00000000000E+00  0.00000000000E+00  0.45593999997E+02  0.45594000000E+02  0.51100000000E-03 0. -1.
         11   -1    0    0    0    0 -0.00000000000E+00 -0.00000000000E+00 -0.45593999997E+02  0.45594000000E+02  0.51100000000E-03 0.  1.
    9900012    2    1    2    0    0  0.20453560295E+02 -0.23287957090E+02 -0.26315178147E+02  0.50528859883E+02  0.30000000100E+02 0.  0.
         12    1    1    2    0    0 -0.20453560295E+02  0.23287957090E+02  0.26315178147E+02  0.40659140117E+02  0.00000000000E+00 0. -1.
         11    1    3    3    0    0 -0.29805513319E+01  0.34208105352E+01 -0.16164789755E+01  0.48164961849E+01  0.51100000000E-03 0. -1.
        -11    1    3    3    0    0  0.62687386018E+01 -0.13803471632E+02 -0.17289286116E+02  0.22994615183E+02  0.51100000000E-03 0.  1.
         12    1    3    3    0    0  0.17165373025E+02 -0.12905295994E+02 -0.74094130550E+01  0.22717748515E+02  0.00000000000E+00 0. -1.
</event>
<event>
 7    1  0.4520156E-012  0.5052891E+02  0.7816164E-02  0.1300439E+00
        -11   -1    0    0    0    0  0.00000000000E+00  0.00000000000E+00  0.45593999997E+02  0.45594000000E+02  0.51100000000E-03 0. -1.
         11   -1    0    0    0    0 -0.00000000000E+00 -0.00000000000E+00 -0.45593999997E+02  0.45594000000E+02  0.51100000000E-03 0.  1.
    9900012    2    1    2    0    0 -0.25069704708E+02 -0.34907570382E+00 -0.32008584030E+02  0.50528912460E+02  0.30000159913E+02 0.  0.
         12    1    1    2    0    0  0.25069704708E+02  0.34907570382E+00  0.32008584030E+02  0.40659087540E+02  0.00000000000E+00 0. -1.
         11    1    3    3    0    0 -0.15600953739E+02  0.72227710918E+01 -0.72042995712E+01  0.18640281982E+02  0.51100000000E-03 0. -1.
        -11    1    3    3    0    0 -0.16587126446E+01  0.16367426695E+01  0.16188058937E+01  0.28373908766E+01  0.51100000000E-03 0.  1.
        -12    1    3    3    0    0 -0.78100383238E+01 -0.92085894652E+01 -0.26423090353E+02  0.29051239601E+02  0.00000000000E+00 0.  1.
</event>
<event>
 7    1  0.4520156E-012  0.5052887E+02  0.7816164E-02  0.1300439E+00
        -11   -1    0    0    0    0  0.00000000000E+00  0.00000000000E+00  0.45593999997E+02  0.45594000000E+02  0.51100000000E-03 0. -1.
         11   -1    0    0    0    0 -0.00000000000E+00 -0.00000000000E+00 -0.45593999997E+02  0.45594000000E+02  0.51100000000E-03 0.  1.
    9900012    2    1    2    0    0 -0.23382080445E+02 -0.17434486428E+01 -0.33217515979E+02  0.50528872280E+02  0.30000037783E+02 0.  0.
         12    1    1    2    0    0  0.23382080445E+02  0.17434486428E+01  0.33217515979E+02  0.40659127720E+02  0.00000000000E+00 0. -1.
         11    1    3    3    0    0 -0.39837479891E+01  0.88852439003E+01 -0.53610353553E+01  0.11115687453E+02  0.51100000000E-03 0.  1.
        -11    1    3    3    0    0 -0.10321668882E+02  0.18122282127E+01 -0.44283533718E+01  0.11376789242E+02  0.51100000000E-03 0. -1.
        -12    1    3    3    0    0 -0.90766635739E+01 -0.12440920756E+02 -0.23428127252E+02  0.28036395586E+02  0.00000000000E+00 0.  1.
</event>
<event>
 7    1  0.4520156E-012  0.5052887E+02  0.7816164E-02  0.1300439E+00
        -11   -1    0    0    0    0  0.00000000000E+00  0.00000000000E+00  0.45593999997E+02  0.45594000000E+02  0.51100000000E-03 0.  1.
         11   -1    0    0    0    0 -0.00000000000E+00 -0.00000000000E+00 -0.45593999997E+02  0.45594000000E+02  0.51100000000E-03 0. -1.
    9900012    2    1    2    0    0  0.13637165348E+02  0.37329570747E+02  0.85846407466E+01  0.50528865877E+02  0.30000018320E+02 0.  0.
        -12    1    1    2    0    0 -0.13637165348E+02 -0.37329570747E+02 -0.85846407466E+01  0.40659134123E+02  0.00000000000E+00 0.  1.
         11    1    3    3    0    0  0.10768925361E+02  0.20536950616E+02  0.16112155027E+02  0.28237167597E+02  0.51100000000E-03 0. -1.
        -11    1    3    3    0    0  0.67874677182E+01  0.13387555034E+02 -0.27975516891E+01  0.15268354316E+02  0.51100000000E-03 0.  1.
        -12    1    3    3    0    0 -0.39192277307E+01  0.34050650970E+01 -0.47299625912E+01  0.70233439638E+01  0.00000000000E+00 0.  1.
</event>
<event>
 7    1  0.4520156E-012  0.5052886E+02  0.7816164E-02  0.1300439E+00
        -11   -1    0    0    0    0  0.00000000000E+00  0.00000000000E+00  0.45593999997E+02  0.45594000000E+02  0.51100000000E-03 0. -1.
         11   -1    0    0    0    0 -0.00000000000E+00 -0.00000000000E+00 -0.45593999997E+02  0.45594000000E+02  0.51100000000E-03 0.  1.
    9900012    2    1    2    0    0 -0.10944964189E+02 -0.22382564977E+02  0.32130892400E+02  0.50528859546E+02  0.29999999075E+02 0.  0.
        -12    1    1    2    0    0  0.10944964189E+02  0.22382564977E+02 -0.32130892400E+02  0.40659140454E+02  0.00000000000E+00 0.  1.
         11    1    3    3    0    0 -0.87266591165E+01 -0.21284695728E+02  0.21514574001E+02  0.31497138700E+02  0.51100000000E-03 0. -1.
        -11    1    3    3    0    0 -0.14938610074E+01 -0.78416161347E+01  0.23143106181E+01  0.83113535727E+01  0.51100000000E-03 0.  1.
        -12    1    3    3    0    0 -0.72444406499E+00  0.67437468860E+01  0.83020077812E+01  0.10720367273E+02  0.00000000000E+00 0.  1.
</event>
<event>
 7    1  0.4520156E-012  0.5052888E+02  0.7816164E-02  0.1300439E+00
        -11   -1    0    0    0    0  0.00000000000E+00  0.00000000000E+00  0.45593999997E+02  0.45594000000E+02  0.51100000000E-03 0. -1.
         11   -1    0    0    0    0 -0.00000000000E+00 -0.00000000000E+00 -0.45593999997E+02  0.45594000000E+02  0.51100000000E-03 0.  1.
    9900012    2    1    2    0    0  0.32381579783E+02 -0.18974507824E+02  0.15638575311E+02  0.50528884243E+02  0.30000074145E+02 0.  0.
        -12    1    1    2    0    0 -0.32381579783E+02  0.18974507824E+02 -0.15638575311E+02  0.40659115757E+02  0.00000000000E+00 0.  1.
         11    1    3    3    0    0  0.22675476047E+02 -0.13121703029E+02  0.10935488750E+02  0.28389103875E+02  0.51100000000E-03 0. -1.
        -11    1    3    3    0    0  0.98259441800E+01 -0.39989025686E+01  0.11173834107E+02  0.15407626998E+02  0.51100000000E-03 0.  1.
        -12    1    3    3    0    0 -0.11984044448E+00 -0.18539022260E+01 -0.64707475465E+01  0.67321533707E+01  0.00000000000E+00 0.  1.
</event>
<event>
 7    1  0.4520156E-012  0.5052885E+02  0.7816164E-02  0.1300439E+00
        -11   -1    0    0    0    0  0.00000000000E+00  0.00000000000E+00  0.45593999997E+02  0.45594000000E+02  0.51100000000E-03 0. -1.
         11   -1    0    0    0    0 -0.00000000000E+00 -0.00000000000E+00 -0.45593999997E+02  0.45594000000E+02  0.51100000000E-03 0.  1.
    9900012    2    1    2    0    0  0.18477368137E+01 -0.34415677355E+00 -0.40615681402E+02  0.50528854030E+02  0.29999982311E+02 0.  0.
         12    1    1    2    0    0 -0.18477368137E+01  0.34415677355E+00  0.40615681402E+02  0.40659145970E+02  0.00000000000E+00 0. -1.
         11    1    3    3    0    0 -0.50839006598E+00 -0.89302279488E+01 -0.60736098744E+01  0.10811853164E+02  0.51100000000E-03 0. -1.
        -11    1    3    3    0    0 -0.44369376249E+01 -0.32845625123E+01 -0.65780041175E+01  0.85874853605E+01  0.51100000000E-03 0.  1.
         12    1    3    3    0    0  0.67930645046E+01  0.11870633688E+02 -0.27964067410E+02  0.31129515506E+02  0.00000000000E+00 0. -1.
</event>
<event>
 7    1  0.4520156E-012  0.5052886E+02  0.7816164E-02  0.1300439E+00
        -11   -1    0    0    0    0  0.00000000000E+00  0.00000000000E+00  0.45593999997E+02  0.45594000000E+02  0.51100000000E-03 0. -1.
         11   -1    0    0    0    0 -0.00000000000E+00 -0.00000000000E+00 -0.45593999997E+02  0.45594000000E+02  0.51100000000E-03 0.  1.
    9900012    2    1    2    0    0 -0.39297521956E+01  0.75379244257E+01  0.39760560529E+02  0.50528862890E+02  0.30000009239E+02 0.  0.
        -12    1    1    2    0    0  0.39297521956E+01 -0.75379244257E+01 -0.39760560529E+02  0.40659137110E+02  0.00000000000E+00 0.  1.
         11    1    3    3    0    0 -0.36646918110E+01  0.13803056706E+02  0.20570701307E+02  0.25042126368E+02  0.51100000000E-03 0. -1.
        -11    1    3    3    0    0  0.26742809820E+01  0.45434801512E+01  0.40212926419E+01  0.66306700587E+01  0.51100000000E-03 0.  1.
        -12    1    3    3    0    0 -0.29393413666E+01 -0.10808612431E+02  0.15168566580E+02  0.18856066463E+02  0.00000000000E+00 0.  1.
</event>
<event>
 7    1  0.5783644E-012  0.5052887E+02  0.7816164E-02  0.1300439E+00
        -11   -1    0    0    0    0  0.00000000000E+00  0.00000000000E+00  0.45593999997E+02  0.45594000000E+02  0.51100000000E-03 0.  1.
         11   -1    0    0    0    0 -0.00000000000E+00 -0.00000000000E+00 -0.45593999997E+02  0.45594000000E+02  0.51100000000E-03 0. -1.
    9900012    2    1    2    0    0 -0.34462954597E+02 -0.15096027193E+02  0.15413627233E+02  0.50528865958E+02  0.30000018565E+02 0.  0.
        -12    1    1    2    0    0  0.34462954597E+02  0.15096027193E+02 -0.15413627233E+02  0.40659134042E+02  0.00000000000E+00 0.  1.
         11    1    3    3    0    0 -0.44326555959E+01 -0.62545027227E+01 -0.27777035611E+01  0.81537032859E+01  0.51100000000E-03 0. -1.
        -11    1    3    3    0    0 -0.46920360469E+01 -0.12370531231E+01  0.14955772136E+02  0.15723251036E+02  0.51100000000E-03 0.  1.
         12    1    3    3    0    0 -0.25338262955E+02 -0.76044713473E+01  0.32355586579E+01  0.26651911636E+02  0.00000000000E+00 0. -1.
</event>
<event>
 7    1  0.4520156E-012  0.5052900E+02  0.7816164E-02  0.1300438E+00
        -11   -1    0    0    0    0  0.00000000000E+00  0.00000000000E+00  0.45593999997E+02  0.45594000000E+02  0.51100000000E-03 0. -1.
         11   -1    0    0    0    0 -0.00000000000E+00 -0.00000000000E+00 -0.45593999997E+02  0.45594000000E+02  0.51100000000E-03 0.  1.
    9900012    2    1    2    0    0 -0.23104573744E+02  0.67177286059E+01 -0.32775069474E+02  0.50528998726E+02  0.30000422126E+02 0.  0.
         12    1    1    2    0    0  0.23104573744E+02 -0.67177286059E+01  0.32775069474E+02  0.40659001274E+02  0.00000000000E+00 0. -1.
         11    1    3    3    0    0 -0.30208648824E+01 -0.55316508244E+01 -0.15560924800E+02  0.16788900094E+02  0.51100000000E-03 0. -1.
        -11    1    3    3    0    0 -0.88799437566E+01  0.10107952546E+02 -0.17806610761E+02  0.22318142683E+02  0.51100000000E-03 0.  1.
         12    1    3    3    0    0 -0.11203765105E+02  0.21414268840E+01  0.59246608646E+00  0.11421955949E+02  0.00000000000E+00 0. -1.
</event>
<event>
 7    1  0.4520156E-012  0.5052884E+02  0.7816164E-02  0.1300439E+00
        -11   -1    0    0    0    0  0.00000000000E+00  0.00000000000E+00  0.45593999997E+02  0.45594000000E+02  0.51100000000E-03 0. -1.
         11   -1    0    0    0    0 -0.00000000000E+00 -0.00000000000E+00 -0.45593999997E+02  0.45594000000E+02  0.51100000000E-03 0.  1.
    9900012    2    1    2    0    0  0.21730357828E+02  0.20938409755E+02 -0.27249613645E+02  0.50528844841E+02  0.29999954379E+02 0.  0.
         12    1    1    2    0    0 -0.21730357828E+02 -0.20938409755E+02  0.27249613645E+02  0.40659155159E+02  0.00000000000E+00 0. -1.
         11    1    3    3    0    0  0.20932256807E+02  0.15919224102E+02 -0.79876145472E+01  0.27484232888E+02  0.51100000000E-03 0. -1.
        -11    1    3    3    0    0  0.40265501742E+01  0.58345966638E+01 -0.57485637536E+01  0.91269715692E+01  0.51100000000E-03 0.  1.
         12    1    3    3    0    0 -0.32284491529E+01 -0.81541101052E+00 -0.13513435344E+02  0.13917640384E+02  0.00000000000E+00 0. -1.
</event>
<event>
 7    1  0.4520156E-012  0.5052887E+02  0.7816164E-02  0.1300439E+00
        -11   -1    0    0    0    0  0.00000000000E+00  0.00000000000E+00  0.45593999997E+02  0.45594000000E+02  0.51100000000E-03 0. -1.
         11   -1    0    0    0    0 -0.00000000000E+00 -0.00000000000E+00 -0.45593999997E+02  0.45594000000E+02  0.51100000000E-03 0.  1.
    9900012    2    1    2    0    0  0.17480023547E+02  0.29404604216E+02 -0.21976879096E+02  0.50528865883E+02  0.30000018338E+02 0.  0.
         12    1    1    2    0    0 -0.17480023547E+02 -0.29404604216E+02  0.21976879096E+02  0.40659134117E+02  0.00000000000E+00 0. -1.
         11    1    3    3    0    0  0.24092847159E+01 -0.25675187548E+01 -0.25444464169E+01  0.43440779491E+01  0.51100000000E-03 0. -1.
        -11    1    3    3    0    0 -0.96907639377E+00  0.16005263139E+02 -0.17085523605E+02  0.23431232881E+02  0.51100000000E-03 0.  1.
         12    1    3    3    0    0  0.16039815225E+02  0.15966859832E+02 -0.23469090745E+01  0.22753555053E+02  0.00000000000E+00 0. -1.
</event>
<event>
 7    1  0.4520156E-012  0.5052882E+02  0.7816164E-02  0.1300439E+00
        -11   -1    0    0    0    0  0.00000000000E+00  0.00000000000E+00  0.45593999997E+02  0.45594000000E+02  0.51100000000E-03 0. -1.
         11   -1    0    0    0    0 -0.00000000000E+00 -0.00000000000E+00 -0.45593999997E+02  0.45594000000E+02  0.51100000000E-03 0.  1.
    9900012    2    1    2    0    0 -0.16055867574E+02 -0.61340683636E+00 -0.37349727422E+02  0.50528815429E+02  0.29999864978E+02 0.  0.
         12    1    1    2    0    0  0.16055867574E+02  0.61340683636E+00  0.37349727422E+02  0.40659184571E+02  0.00000000000E+00 0. -1.
         11    1    3    3    0    0 -0.91062892935E+01  0.40050690473E+01 -0.90792287684E+01  0.13468388102E+02  0.51100000000E-03 0. -1.
        -11    1    3    3    0    0 -0.83197850553E+01  0.68756320129E+01 -0.20348170118E+02  0.23033479250E+02  0.51100000000E-03 0.  1.
         12    1    3    3    0    0  0.13702067748E+01 -0.11494107897E+02 -0.79223285354E+01  0.14026948077E+02  0.00000000000E+00 0. -1.
</event>
<event>
 7    1  0.4520156E-012  0.5052892E+02  0.7816164E-02  0.1300439E+00
        -11   -1    0    0    0    0  0.00000000000E+00  0.00000000000E+00  0.45593999997E+02  0.45594000000E+02  0.51100000000E-03 0. -1.
         11   -1    0    0    0    0 -0.00000000000E+00 -0.00000000000E+00 -0.45593999997E+02  0.45594000000E+02  0.51100000000E-03 0.  1.
    9900012    2    1    2    0    0  0.32539374365E+01  0.24245717019E+02 -0.32476421992E+02  0.50528918751E+02  0.30000179035E+02 0.  0.
         12    1    1    2    0    0 -0.32539374365E+01 -0.24245717019E+02  0.32476421992E+02  0.40659081249E+02  0.00000000000E+00 0. -1.
         11    1    3    3    0    0 -0.57601371581E+01 -0.14455564281E+01 -0.69216528699E+01  0.91202024199E+01  0.51100000000E-03 0. -1.
        -11    1    3    3    0    0 -0.53058303247E+01  0.89458829057E+01 -0.10080398426E+02  0.14484304923E+02  0.51100000000E-03 0.  1.
        -12    1    3    3    0    0  0.14319904919E+02  0.16745390541E+02 -0.15474370696E+02  0.26924411409E+02  0.00000000000E+00 0.  1.
</event>
<event>
 7    1  0.4520156E-012  0.5052886E+02  0.7816164E-02  0.1300439E+00
        -11   -1    0    0    0    0  0.00000000000E+00  0.00000000000E+00  0.45593999997E+02  0.45594000000E+02  0.51100000000E-03 0. -1.
         11   -1    0    0    0    0 -0.00000000000E+00 -0.00000000000E+00 -0.45593999997E+02  0.45594000000E+02  0.51100000000E-03 0.  1.
    9900012    2    1    2    0    0  0.19892133582E+02  0.28598609053E+01 -0.35345292729E+02  0.50528862024E+02  0.30000006607E+02 0.  0.
         12    1    1    2    0    0 -0.19892133582E+02 -0.28598609053E+01  0.35345292729E+02  0.40659137976E+02  0.00000000000E+00 0. -1.
         11    1    3    3    0    0  0.11467007485E+02  0.90389138818E+00 -0.47775943929E+01  0.12455307653E+02  0.51100000000E-03 0. -1.
        -11    1    3    3    0    0  0.97611761573E+01 -0.74871017565E+01 -0.22224625208E+02  0.25402189248E+02  0.51100000000E-03 0.  1.
         12    1    3    3    0    0 -0.13360500601E+01  0.94430712736E+01 -0.83430731287E+01  0.12671365123E+02  0.00000000000E+00 0. -1.
</event>
<event>
 7    1  0.4520156E-012  0.5052887E+02  0.7816164E-02  0.1300439E+00
        -11   -1    0    0    0    0  0.00000000000E+00  0.00000000000E+00  0.45593999997E+02  0.45594000000E+02  0.51100000000E-03 0. -1.
         11   -1    0    0    0    0 -0.00000000000E+00 -0.00000000000E+00 -0.45593999997E+02  0.45594000000E+02  0.51100000000E-03 0.  1.
    9900012    2    1    2    0    0  0.23357213910E+02  0.69150165289E+01 -0.32554381424E+02  0.50528872549E+02  0.30000038599E+02 0.  0.
         12    1    1    2    0    0 -0.23357213910E+02 -0.69150165289E+01  0.32554381424E+02  0.40659127451E+02  0.00000000000E+00 0. -1.
         11    1    3    3    0    0  0.29722650688E+01  0.19192809874E+01 -0.43869624450E+00  0.35651723386E+01  0.51100000000E-03 0. -1.
        -11    1    3    3    0    0 -0.37742008299E+01 -0.64893779623E+01 -0.65995987458E+01  0.99955651220E+01  0.51100000000E-03 0.  1.
        -12    1    3    3    0    0  0.24159149671E+02  0.11485113504E+02 -0.25516086433E+02  0.36968135088E+02  0.00000000000E+00 0.  1.
</event>
<event>
 7    1  0.4520156E-012  0.5052883E+02  0.7816164E-02  0.1300439E+00
        -11   -1    0    0    0    0  0.00000000000E+00  0.00000000000E+00  0.45593999997E+02  0.45594000000E+02  0.51100000000E-03 0. -1.
         11   -1    0    0    0    0 -0.00000000000E+00 -0.00000000000E+00 -0.45593999997E+02  0.45594000000E+02  0.51100000000E-03 0.  1.
    9900012    2    1    2    0    0 -0.15768523772E+01 -0.17701308878E+02 -0.36569727250E+02  0.50528834360E+02  0.29999922520E+02 0.  0.
         12    1    1    2    0    0  0.15768523772E+01  0.17701308878E+02  0.36569727250E+02  0.40659165640E+02  0.00000000000E+00 0. -1.
         11    1    3    3    0    0 -0.72068879570E+01  0.16933425098E+01 -0.94685000322E+01  0.12019115442E+02  0.51100000000E-03 0. -1.
        -11    1    3    3    0    0 -0.17387990826E+01 -0.22212402072E+01 -0.17067101465E+02  0.17298649744E+02  0.51100000000E-03 0.  1.
         12    1    3    3    0    0  0.73688346623E+01 -0.17173411181E+02 -0.10034125753E+02  0.21211069174E+02  0.00000000000E+00 0. -1.
</event>
<event>
 7    1  0.4520156E-012  0.5052886E+02  0.7816164E-02  0.1300439E+00
        -11   -1    0    0    0    0  0.00000000000E+00  0.00000000000E+00  0.45593999997E+02  0.45594000000E+02  0.51100000000E-03 0. -1.
         11   -1    0    0    0    0 -0.00000000000E+00 -0.00000000000E+00 -0.45593999997E+02  0.45594000000E+02  0.51100000000E-03 0.  1.
    9900012    2    1    2    0    0  0.30734713623E+02 -0.25166354363E+02 -0.86716495086E+01  0.50528861806E+02  0.30000005947E+02 0.  0.
         12    1    1    2    0    0 -0.30734713623E+02  0.25166354363E+02  0.86716495086E+01  0.40659138194E+02  0.00000000000E+00 0. -1.
         11    1    3    3    0    0  0.23323148525E+02 -0.23195969901E+02  0.10540474355E+01  0.32910990459E+02  0.51100000000E-03 0. -1.
        -11    1    3    3    0    0  0.10070575774E+02 -0.27958950249E+01 -0.38898344975E+01  0.11151875990E+02  0.51100000000E-03 0.  1.
        -12    1    3    3    0    0 -0.26590106761E+01  0.82551056234E+00 -0.58358624466E+01  0.64659953572E+01  0.00000000000E+00 0.  1.
</event>
<event>
 7    1  0.4520156E-012  0.5052886E+02  0.7816164E-02  0.1300439E+00
        -11   -1    0    0    0    0  0.00000000000E+00  0.00000000000E+00  0.45593999997E+02  0.45594000000E+02  0.51100000000E-03 0. -1.
         11   -1    0    0    0    0 -0.00000000000E+00 -0.00000000000E+00 -0.45593999997E+02  0.45594000000E+02  0.51100000000E-03 0.  1.
    9900012    2    1    2    0    0  0.36702079268E+01 -0.22669627552E+02 -0.33552695131E+02  0.50528858468E+02  0.29999995799E+02 0.  0.
         12    1    1    2    0    0 -0.36702079268E+01  0.22669627552E+02  0.33552695131E+02  0.40659141532E+02  0.00000000000E+00 0. -1.
         11    1    3    3    0    0 -0.26944627489E+01 -0.85181884812E+00 -0.11084322783E+02  0.11438878297E+02  0.51100000000E-03 0. -1.
        -11    1    3    3    0    0  0.65698789281E+01 -0.39816025477E+01 -0.19563278694E+02  0.21017572208E+02  0.51100000000E-03 0.  1.
         12    1    3    3    0    0 -0.20520825241E+00 -0.17836206156E+02 -0.29050936534E+01  0.18072407964E+02  0.00000000000E+00 0. -1.
</event>
<event>
 7    1  0.4520156E-012  0.5052885E+02  0.7816164E-02  0.1300439E+00
        -11   -1    0    0    0    0  0.00000000000E+00  0.00000000000E+00  0.45593999997E+02  0.45594000000E+02  0.51100000000E-03 0. -1.
         11   -1    0    0    0    0 -0.00000000000E+00 -0.00000000000E+00 -0.45593999997E+02  0.45594000000E+02  0.51100000000E-03 0.  1.
    9900012    2    1    2    0    0 -0.10809709097E+02  0.30832199345E+02 -0.24201079473E+02  0.50528848818E+02  0.29999966467E+02 0.  0.
         12    1    1    2    0    0  0.10809709097E+02 -0.30832199345E+02  0.24201079473E+02  0.40659151182E+02  0.00000000000E+00 0. -1.
         11    1    3    3    0    0 -0.32738632560E+01  0.23730019200E+01 -0.16563846948E+02  0.17050230049E+02  0.51100000000E-03 0. -1.
        -11    1    3    3    0    0 -0.79992704831E+00  0.45678962413E+01 -0.73062314814E+01  0.86537031423E+01  0.51100000000E-03 0.  1.
        -12    1    3    3    0    0 -0.67359187927E+01  0.23891301183E+02 -0.33100104352E+00  0.24824915627E+02  0.00000000000E+00 0.  1.
</event>
<event>
 7    1  0.4520156E-012  0.5052886E+02  0.7816164E-02  0.1300439E+00
        -11   -1    0    0    0    0  0.00000000000E+00  0.00000000000E+00  0.45593999997E+02  0.45594000000E+02  0.51100000000E-03 0. -1.
         11   -1    0    0    0    0 -0.00000000000E+00 -0.00000000000E+00 -0.45593999997E+02  0.45594000000E+02  0.51100000000E-03 0.  1.
    9900012    2    1    2    0    0  0.16982030978E+02 -0.35237761962E+02  0.11093963120E+02  0.50528864963E+02  0.30000015543E+02 0.  0.
        -12    1    1    2    0    0 -0.16982030978E+02  0.35237761962E+02 -0.11093963120E+02  0.40659135037E+02  0.00000000000E+00 0.  1.
         11    1    3    3    0    0  0.42790867227E+01 -0.21328161641E+02  0.16544929487E+02  0.27330125396E+02  0.51100000000E-03 0. -1.
        -11    1    3    3    0    0  0.60317871699E+01 -0.47445783227E+01  0.38034282299E+01  0.85650187673E+01  0.51100000000E-03 0.  1.
         12    1    3    3    0    0  0.66711570852E+01 -0.91650219985E+01 -0.92543945975E+01  0.14633720800E+02  0.00000000000E+00 0. -1.
</event>
<event>
 7    1  0.4520156E-012  0.5052888E+02  0.7816164E-02  0.1300439E+00
        -11   -1    0    0    0    0  0.00000000000E+00  0.00000000000E+00  0.45593999997E+02  0.45594000000E+02  0.51100000000E-03 0. -1.
         11   -1    0    0    0    0 -0.00000000000E+00 -0.00000000000E+00 -0.45593999997E+02  0.45594000000E+02  0.51100000000E-03 0.  1.
    9900012    2    1    2    0    0  0.96399790042E+00 -0.22727102712E+02  0.33700352379E+02  0.50528877529E+02  0.30000053737E+02 0.  0.
        -12    1    1    2    0    0 -0.96399790042E+00  0.22727102712E+02 -0.33700352379E+02  0.40659122471E+02  0.00000000000E+00 0.  1.
         11    1    3    3    0    0  0.14803535596E+00  0.16646679107E+01 -0.27353404940E+01  0.32054830523E+01  0.51100000000E-03 0. -1.
        -11    1    3    3    0    0  0.86919513218E+01 -0.76047725557E+01  0.15945113570E+02  0.19688301868E+02  0.51100000000E-03 0.  1.
         12    1    3    3    0    0 -0.78759887773E+01 -0.16786998067E+02  0.20490579303E+02  0.27635092609E+02  0.00000000000E+00 0. -1.
</event>
<event>
 7    1  0.4520156E-012  0.5052879E+02  0.7816164E-02  0.1300439E+00
        -11   -1    0    0    0    0  0.00000000000E+00  0.00000000000E+00  0.45593999997E+02  0.45594000000E+02  0.51100000000E-03 0. -1.
         11   -1    0    0    0    0 -0.00000000000E+00 -0.00000000000E+00 -0.45593999997E+02  0.45594000000E+02  0.51100000000E-03 0.  1.
    9900012    2    1    2    0    0  0.19044456038E+02  0.82148488757E+01 -0.34971368505E+02  0.50528786248E+02  0.29999776278E+02 0.  0.
         12    1    1    2    0    0 -0.19044456038E+02 -0.82148488757E+01  0.34971368505E+02  0.40659213752E+02  0.00000000000E+00 0. -1.
         11    1    3    3    0    0  0.82958690765E+01  0.46466175953E+01 -0.13654916396E+02  0.16639388236E+02  0.51100000000E-03 0. -1.
        -11    1    3    3    0    0  0.61966341570E+01 -0.56713045100E+00 -0.25631927279E+02  0.26376421443E+02  0.51100000000E-03 0.  1.
         12    1    3    3    0    0  0.45519528046E+01  0.41353617314E+01  0.43154751705E+01  0.75129765694E+01  0.00000000000E+00 0. -1.
</event>
<event>
 7    1  0.4520156E-012  0.5052886E+02  0.7816164E-02  0.1300439E+00
        -11   -1    0    0    0    0  0.00000000000E+00  0.00000000000E+00  0.45593999997E+02  0.45594000000E+02  0.51100000000E-03 0. -1.
         11   -1    0    0    0    0 -0.00000000000E+00 -0.00000000000E+00 -0.45593999997E+02  0.45594000000E+02  0.51100000000E-03 0.  1.
    9900012    2    1    2    0    0  0.14829691228E+02  0.10219777425E+02 -0.36452741827E+02  0.50528856142E+02  0.29999988730E+02 0.  0.
         12    1    1    2    0    0 -0.14829691228E+02 -0.10219777425E+02  0.36452741827E+02  0.40659143858E+02  0.00000000000E+00 0. -1.
         11    1    3    3    0    0 -0.27478074693E+01 -0.43632461562E+01 -0.30975333798E+01  0.60152370035E+01  0.51100000000E-03 0. -1.
        -11    1    3    3    0    0  0.15680838644E+02  0.14505149179E+01 -0.21962874562E+02  0.27025183689E+02  0.51100000000E-03 0.  1.
         12    1    3    3    0    0  0.18966600536E+01  0.13132508663E+02 -0.11392333885E+02  0.17488435450E+02  0.00000000000E+00 0. -1.
</event>
<event>
 7    1  0.4520156E-012  0.5052887E+02  0.7816164E-02  0.1300439E+00
        -11   -1    0    0    0    0  0.00000000000E+00  0.00000000000E+00  0.45593999997E+02  0.45594000000E+02  0.51100000000E-03 0.  1.
         11   -1    0    0    0    0 -0.00000000000E+00 -0.00000000000E+00 -0.45593999997E+02  0.45594000000E+02  0.51100000000E-03 0. -1.
    9900012    2    1    2    0    0  0.23547774303E+02 -0.13542731092E+02  0.30253295677E+02  0.50528866471E+02  0.30000020124E+02 0.  0.
        -12    1    1    2    0    0 -0.23547774303E+02  0.13542731092E+02 -0.30253295677E+02  0.40659133529E+02  0.00000000000E+00 0.  1.
         11    1    3    3    0    0  0.96353757353E+01 -0.45615345154E+01  0.11254279728E+02  0.15501834574E+02  0.51100000000E-03 0. -1.
        -11    1    3    3    0    0  0.12003339218E+02 -0.26422069155E+01  0.23842637182E+02  0.26824107773E+02  0.51100000000E-03 0.  1.
         12    1    3    3    0    0  0.19090593499E+01 -0.63389896605E+01 -0.48436212339E+01  0.82029241235E+01  0.00000000000E+00 0. -1.
</event>
<event>
 7    1  0.4520156E-012  0.5052885E+02  0.7816164E-02  0.1300439E+00
        -11   -1    0    0    0    0  0.00000000000E+00  0.00000000000E+00  0.45593999997E+02  0.45594000000E+02  0.51100000000E-03 0. -1.
         11   -1    0    0    0    0 -0.00000000000E+00 -0.00000000000E+00 -0.45593999997E+02  0.45594000000E+02  0.51100000000E-03 0.  1.
    9900012    2    1    2    0    0  0.31220127515E+02  0.56065615292E+01 -0.25436910828E+02  0.50528851870E+02  0.29999975743E+02 0.  0.
         12    1    1    2    0    0 -0.31220127515E+02 -0.56065615292E+01  0.25436910828E+02  0.40659148130E+02  0.00000000000E+00 0. -1.
         11    1    3    3    0    0 -0.25474527687E+00  0.83843405601E+01 -0.66772033383E+01  0.10721338837E+02  0.51100000000E-03 0.  1.
        -11    1    3    3    0    0  0.20438493457E+02 -0.15581996154E+01 -0.19995625495E+02  0.28635380913E+02  0.51100000000E-03 0. -1.
        -12    1    3    3    0    0  0.11036379335E+02 -0.12195794155E+01  0.12359180055E+01  0.11172132119E+02  0.00000000000E+00 0.  1.
</event>
<event>
 7    1  0.4520156E-012  0.5052886E+02  0.7816164E-02  0.1300439E+00
        -11   -1    0    0    0    0  0.00000000000E+00  0.00000000000E+00  0.45593999997E+02  0.45594000000E+02  0.51100000000E-03 0. -1.
         11   -1    0    0    0    0 -0.00000000000E+00 -0.00000000000E+00 -0.45593999997E+02  0.45594000000E+02  0.51100000000E-03 0.  1.
    9900012    2    1    2    0    0  0.13578254843E+02  0.98761774759E+01 -0.37030493140E+02  0.50528864393E+02  0.30000013808E+02 0.  0.
         12    1    1    2    0    0 -0.13578254843E+02 -0.98761774759E+01  0.37030493140E+02  0.40659135607E+02  0.00000000000E+00 0. -1.
         11    1    3    3    0    0  0.84614571616E+01 -0.48303771477E+01 -0.42362817222E+01  0.10624259211E+02  0.51100000000E-03 0. -1.
        -11    1    3    3    0    0 -0.49247148065E+01  0.32493145190E-01 -0.62910398122E+01  0.79894338917E+01  0.51100000000E-03 0.  1.
        -12    1    3    3    0    0  0.10041512488E+02  0.14674061478E+02 -0.26503171606E+02  0.31915171290E+02  0.00000000000E+00 0.  1.
</event>
<event>
 7    1  0.4520156E-012  0.5052888E+02  0.7816164E-02  0.1300439E+00
        -11   -1    0    0    0    0  0.00000000000E+00  0.00000000000E+00  0.45593999997E+02  0.45594000000E+02  0.51100000000E-03 0. -1.
         11   -1    0    0    0    0 -0.00000000000E+00 -0.00000000000E+00 -0.45593999997E+02  0.45594000000E+02  0.51100000000E-03 0.  1.
    9900012    2    1    2    0    0  0.80750926531E+01  0.32695462719E+02  0.22780782045E+02  0.50528875141E+02  0.30000046477E+02 0.  0.
        -12    1    1    2    0    0 -0.80750926531E+01 -0.32695462719E+02 -0.22780782045E+02  0.40659124859E+02  0.00000000000E+00 0.  1.
         11    1    3    3    0    0  0.99090163602E+01  0.11379511948E+02  0.66142249539E+01  0.16475128813E+02  0.51100000000E-03 0.  1.
        -11    1    3    3    0    0  0.56034568945E+01  0.19028686253E+02  0.17135020169E+02  0.26212564661E+02  0.51100000000E-03 0. -1.
        -12    1    3    3    0    0 -0.74373806016E+01  0.22872645177E+01 -0.96846307787E+00  0.78411816660E+01  0.00000000000E+00 0.  1.
</event>
<event>
 7    1  0.4520156E-012  0.5052886E+02  0.7816164E-02  0.1300439E+00
        -11   -1    0    0    0    0  0.00000000000E+00  0.00000000000E+00  0.45593999997E+02  0.45594000000E+02  0.51100000000E-03 0.  1.
         11   -1    0    0    0    0 -0.00000000000E+00 -0.00000000000E+00 -0.45593999997E+02  0.45594000000E+02  0.51100000000E-03 0. -1.
    9900012    2    1    2    0    0  0.19867475159E+02 -0.32707143311E+02  0.13736519374E+02  0.50528858872E+02  0.29999997027E+02 0.  0.
        -12    1    1    2    0    0 -0.19867475159E+02  0.32707143311E+02 -0.13736519374E+02  0.40659141128E+02  0.00000000000E+00 0.  1.
         11    1    3    3    0    0  0.60645648759E+01 -0.24367840026E+02  0.42610507627E+01  0.25470122271E+02  0.51100000000E-03 0.  1.
        -11    1    3    3    0    0  0.17915078617E+01 -0.10439283876E+02  0.67636785983E+01  0.12567239025E+02  0.51100000000E-03 0. -1.
        -12    1    3    3    0    0  0.12011402421E+02  0.20999805910E+01  0.27117900126E+01  0.12491497576E+02  0.00000000000E+00 0.  1.
</event>
<event>
 7    1  0.4520156E-012  0.5052887E+02  0.7816164E-02  0.1300439E+00
        -11   -1    0    0    0    0  0.00000000000E+00  0.00000000000E+00  0.45593999997E+02  0.45594000000E+02  0.51100000000E-03 0. -1.
         11   -1    0    0    0    0 -0.00000000000E+00 -0.00000000000E+00 -0.45593999997E+02  0.45594000000E+02  0.51100000000E-03 0.  1.
    9900012    2    1    2    0    0 -0.12331759294E+02 -0.37209103725E+02 -0.10797015202E+02  0.50528865423E+02  0.30000016938E+02 0.  0.
         12    1    1    2    0    0  0.12331759294E+02  0.37209103725E+02  0.10797015202E+02  0.40659134577E+02  0.00000000000E+00 0. -1.
         11    1    3    3    0    0  0.16480700371E+01 -0.54383543091E+01  0.26124121676E+01  0.62543209090E+01  0.51100000000E-03 0. -1.
        -11    1    3    3    0    0  0.50685587700E+01 -0.16891444960E+02 -0.27145133414E+01  0.17843199931E+02  0.51100000000E-03 0.  1.
        -12    1    3    3    0    0 -0.19048388101E+02 -0.14879304456E+02 -0.10694914028E+02  0.26431344582E+02  0.00000000000E+00 0.  1.
</event>
<event>
 7    1  0.4520156E-012  0.5052888E+02  0.7816164E-02  0.1300439E+00
        -11   -1    0    0    0    0  0.00000000000E+00  0.00000000000E+00  0.45593999997E+02  0.45594000000E+02  0.51100000000E-03 0. -1.
         11   -1    0    0    0    0 -0.00000000000E+00 -0.00000000000E+00 -0.45593999997E+02  0.45594000000E+02  0.51100000000E-03 0.  1.
    9900012    2    1    2    0    0  0.43366135443E+01 -0.69032686656E+01  0.39833440538E+02  0.50528876541E+02  0.30000050735E+02 0.  0.
        -12    1    1    2    0    0 -0.43366135443E+01  0.69032686656E+01 -0.39833440538E+02  0.40659123459E+02  0.00000000000E+00 0.  1.
         11    1    3    3    0    0 -0.53972170304E+01  0.18177472218E+00  0.95475982430E+01  0.10969030322E+02  0.51100000000E-03 0. -1.
        -11    1    3    3    0    0 -0.48451030020E+01 -0.84583902229E+01  0.17893945286E+02  0.20376767811E+02  0.51100000000E-03 0.  1.
        -12    1    3    3    0    0  0.14578933577E+02  0.13733468351E+01  0.12391897010E+02  0.19183078409E+02  0.00000000000E+00 0.  1.
</event>
<event>
 7    1  0.4520156E-012  0.5052888E+02  0.7816164E-02  0.1300439E+00
        -11   -1    0    0    0    0  0.00000000000E+00  0.00000000000E+00  0.45593999997E+02  0.45594000000E+02  0.51100000000E-03 0. -1.
         11   -1    0    0    0    0 -0.00000000000E+00 -0.00000000000E+00 -0.45593999997E+02  0.45594000000E+02  0.51100000000E-03 0.  1.
    9900012    2    1    2    0    0  0.15935901548E+02  0.85044039138E+01 -0.36426450406E+02  0.50528878843E+02  0.30000057731E+02 0.  0.
         12    1    1    2    0    0 -0.15935901548E+02 -0.85044039138E+01  0.36426450406E+02  0.40659121157E+02  0.00000000000E+00 0. -1.
         11    1    3    3    0    0 -0.58500622668E+01  0.52258900037E+01 -0.78268049685E+01  0.11081156579E+02  0.51100000000E-03 0. -1.
        -11    1    3    3    0    0 -0.99988350035E+00 -0.21546555292E+01  0.12984110275E+00  0.23789002579E+01  0.51100000000E-03 0.  1.
        -12    1    3    3    0    0  0.22785847315E+02  0.54331694393E+01 -0.28729486540E+02  0.37068822006E+02  0.00000000000E+00 0.  1.
</event>
<event>
 7    1  0.4520156E-012  0.5052887E+02  0.7816164E-02  0.1300439E+00
        -11   -1    0    0    0    0  0.00000000000E+00  0.00000000000E+00  0.45593999997E+02  0.45594000000E+02  0.51100000000E-03 0. -1.
         11   -1    0    0    0    0 -0.00000000000E+00 -0.00000000000E+00 -0.45593999997E+02  0.45594000000E+02  0.51100000000E-03 0.  1.
    9900012    2    1    2    0    0  0.17035298913E+02  0.35105987752E+02  0.11425116624E+02  0.50528867263E+02  0.30000022531E+02 0.  0.
        -12    1    1    2    0    0 -0.17035298913E+02 -0.35105987752E+02 -0.11425116624E+02  0.40659132737E+02  0.00000000000E+00 0.  1.
         11    1    3    3    0    0 -0.30075155092E+01  0.51574931940E+01  0.17079631197E+01  0.62098328370E+01  0.51100000000E-03 0.  1.
        -11    1    3    3    0    0  0.24551902817E+01  0.69502570120E+01 -0.75963004486E+01  0.10584791572E+02  0.51100000000E-03 0. -1.
         12    1    3    3    0    0  0.17587624141E+02  0.22998237546E+02  0.17313453953E+02  0.33734242854E+02  0.00000000000E+00 0. -1.
</event>
<event>
 7    1  0.4520156E-012  0.5052886E+02  0.7816164E-02  0.1300439E+00
        -11   -1    0    0    0    0  0.00000000000E+00  0.00000000000E+00  0.45593999997E+02  0.45594000000E+02  0.51100000000E-03 0. -1.
         11   -1    0    0    0    0 -0.00000000000E+00 -0.00000000000E+00 -0.45593999997E+02  0.45594000000E+02  0.51100000000E-03 0.  1.
    9900012    2    1    2    0    0 -0.33433308997E+02  0.14205420532E+02  0.18264320383E+02  0.50528861765E+02  0.30000005820E+02 0.  0.
        -12    1    1    2    0    0  0.33433308997E+02 -0.14205420532E+02 -0.18264320383E+02  0.40659138235E+02  0.00000000000E+00 0.  1.
         11    1    3    3    0    0 -0.11474904140E+02  0.17069441635E+02  0.12368567656E+02  0.24000431848E+02  0.51100000000E-03 0. -1.
        -11    1    3    3    0    0 -0.14869781177E+02  0.15449875715E+01 -0.19448328692E+01  0.15075800277E+02  0.51100000000E-03 0.  1.
        -12    1    3    3    0    0 -0.70886236802E+01 -0.44090086746E+01  0.78405855968E+01  0.11452629640E+02  0.00000000000E+00 0.  1.
</event>
<event>
 7    1  0.4520156E-012  0.5052883E+02  0.7816164E-02  0.1300439E+00
        -11   -1    0    0    0    0  0.00000000000E+00  0.00000000000E+00  0.45593999997E+02  0.45594000000E+02  0.51100000000E-03 0.  1.
         11   -1    0    0    0    0 -0.00000000000E+00 -0.00000000000E+00 -0.45593999997E+02  0.45594000000E+02  0.51100000000E-03 0. -1.
    9900012    2    1    2    0    0  0.36741305893E+02  0.16162192514E+02 -0.64829005122E+01  0.50528830989E+02  0.29999912275E+02 0.  0.
        -12    1    1    2    0    0 -0.36741305893E+02 -0.16162192514E+02  0.64829005122E+01  0.40659169011E+02  0.00000000000E+00 0.  1.
         11    1    3    3    0    0  0.21518192324E+02  0.16148009226E+02  0.43036151873E+01  0.27245401571E+02  0.51100000000E-03 0. -1.
        -11    1    3    3    0    0  0.14557713503E+02  0.47889238220E+01 -0.59072447948E+01  0.16424261175E+02  0.51100000000E-03 0.  1.
        -12    1    3    3    0    0  0.66540006657E+00 -0.47747405346E+01 -0.48792709047E+01  0.68591682428E+01  0.00000000000E+00 0.  1.
</event>
<event>
 7    1  0.4520156E-012  0.5052887E+02  0.7816164E-02  0.1300439E+00
        -11   -1    0    0    0    0  0.00000000000E+00  0.00000000000E+00  0.45593999997E+02  0.45594000000E+02  0.51100000000E-03 0. -1.
         11   -1    0    0    0    0 -0.00000000000E+00 -0.00000000000E+00 -0.45593999997E+02  0.45594000000E+02  0.51100000000E-03 0.  1.
    9900012    2    1    2    0    0  0.11919600071E+02  0.17030642839E+02  0.34943457976E+02  0.50528869209E+02  0.30000028447E+02 0.  0.
        -12    1    1    2    0    0 -0.11919600071E+02 -0.17030642839E+02 -0.34943457976E+02  0.40659130791E+02  0.00000000000E+00 0.  1.
         11    1    3    3    0    0  0.38311297131E+01  0.11784546804E+02  0.99777981045E+01  0.15909417133E+02  0.51100000000E-03 0. -1.
        -11    1    3    3    0    0  0.11621342841E+02  0.91189209411E+01  0.78689000944E+01  0.16737082108E+02  0.51100000000E-03 0.  1.
         12    1    3    3    0    0 -0.35328724829E+01 -0.38728249061E+01  0.17096759778E+02  0.17882369967E+02  0.00000000000E+00 0. -1.
</event>
<event>
 7    1  0.4520156E-012  0.5052892E+02  0.7816164E-02  0.1300439E+00
        -11   -1    0    0    0    0  0.00000000000E+00  0.00000000000E+00  0.45593999997E+02  0.45594000000E+02  0.51100000000E-03 0. -1.
         11   -1    0    0    0    0 -0.00000000000E+00 -0.00000000000E+00 -0.45593999997E+02  0.45594000000E+02  0.51100000000E-03 0.  1.
    9900012    2    1    2    0    0  0.20341097402E+02 -0.33924425798E+02 -0.94092351906E+01  0.50528922095E+02  0.30000189200E+02 0.  0.
         12    1    1    2    0    0 -0.20341097402E+02  0.33924425798E+02  0.94092351906E+01  0.40659077905E+02  0.00000000000E+00 0. -1.
         11    1    3    3    0    0  0.10275246453E+02 -0.19518655138E+02  0.10023602796E+01  0.22080835910E+02  0.51100000000E-03 0. -1.
        -11    1    3    3    0    0  0.53733278393E+01 -0.15735450977E+02  0.35168369527E+00  0.16631318384E+02  0.51100000000E-03 0.  1.
         12    1    3    3    0    0  0.46925231094E+01  0.13296803173E+01 -0.10763279165E+02  0.11816767801E+02  0.00000000000E+00 0. -1.
</event>
<event>
 7    1  0.4520156E-012  0.5052886E+02  0.7816164E-02  0.1300439E+00
        -11   -1    0    0    0    0  0.00000000000E+00  0.00000000000E+00  0.45593999997E+02  0.45594000000E+02  0.51100000000E-03 0. -1.
         11   -1    0    0    0    0 -0.00000000000E+00 -0.00000000000E+00 -0.45593999997E+02  0.45594000000E+02  0.51100000000E-03 0.  1.
    9900012    2    1    2    0    0 -0.22620706199E+02 -0.29061506895E+02  0.17230727943E+02  0.50528861822E+02  0.30000005993E+02 0.  0.
        -12    1    1    2    0    0  0.22620706199E+02  0.29061506895E+02 -0.17230727943E+02  0.40659138178E+02  0.00000000000E+00 0.  1.
         11    1    3    3    0    0 -0.15065940267E+02 -0.62252459813E+01  0.11669454138E+02  0.20047753086E+02  0.51100000000E-03 0. -1.
        -11    1    3    3    0    0  0.24020767140E+01 -0.10525724093E+02  0.92579230757E+01  0.14222165101E+02  0.51100000000E-03 0.  1.
        -12    1    3    3    0    0 -0.99568426459E+01 -0.12310536821E+02 -0.36966492706E+01  0.16258943635E+02  0.00000000000E+00 0.  1.
</event>
<event>
 7    1  0.4520156E-012  0.5052887E+02  0.7816164E-02  0.1300439E+00
        -11   -1    0    0    0    0  0.00000000000E+00  0.00000000000E+00  0.45593999997E+02  0.45594000000E+02  0.51100000000E-03 0. -1.
         11   -1    0    0    0    0 -0.00000000000E+00 -0.00000000000E+00 -0.45593999997E+02  0.45594000000E+02  0.51100000000E-03 0.  1.
    9900012    2    1    2    0    0 -0.78661488898E+01  0.24436397025E+02 -0.31530162272E+02  0.50528869035E+02  0.30000027918E+02 0.  0.
         12    1    1    2    0    0  0.78661488898E+01 -0.24436397025E+02  0.31530162272E+02  0.40659130965E+02  0.00000000000E+00 0. -1.
         11    1    3    3    0    0 -0.65339969054E+01  0.37009135748E+01 -0.33843348221E+01  0.82367226065E+01  0.51100000000E-03 0. -1.
        -11    1    3    3    0    0 -0.98148529655E+01  0.11684394344E+02 -0.25330686997E+02  0.29571948092E+02  0.51100000000E-03 0.  1.
         12    1    3    3    0    0  0.84827009811E+01  0.90510891065E+01 -0.28151404528E+01  0.12720198336E+02  0.00000000000E+00 0. -1.
</event>
<event>
 7    1  0.4520156E-012  0.5052888E+02  0.7816164E-02  0.1300439E+00
        -11   -1    0    0    0    0  0.00000000000E+00  0.00000000000E+00  0.45593999997E+02  0.45594000000E+02  0.51100000000E-03 0.  1.
         11   -1    0    0    0    0 -0.00000000000E+00 -0.00000000000E+00 -0.45593999997E+02  0.45594000000E+02  0.51100000000E-03 0. -1.
    9900012    2    1    2    0    0  0.35676610518E+02  0.17607542813E+02 -0.83855791381E+01  0.50528879996E+02  0.30000061237E+02 0.  0.
         12    1    1    2    0    0 -0.35676610518E+02 -0.17607542813E+02  0.83855791381E+01  0.40659120004E+02  0.00000000000E+00 0. -1.
         11    1    3    3    0    0  0.16989908759E+01 -0.27970653576E+01  0.15458691237E+01  0.36193723517E+01  0.51100000000E-03 0. -1.
        -11    1    3    3    0    0  0.16733918670E+02  0.36669052967E+01  0.59156819144E+01  0.18123617776E+02  0.51100000000E-03 0.  1.
         12    1    3    3    0    0  0.17243700972E+02  0.16737702874E+02 -0.15847130176E+02  0.28785889869E+02  0.00000000000E+00 0. -1.
</event>
<event>
 7    1  0.4520156E-012  0.5052886E+02  0.7816164E-02  0.1300439E+00
        -11   -1    0    0    0    0  0.00000000000E+00  0.00000000000E+00  0.45593999997E+02  0.45594000000E+02  0.51100000000E-03 0.  1.
         11   -1    0    0    0    0 -0.00000000000E+00 -0.00000000000E+00 -0.45593999997E+02  0.45594000000E+02  0.51100000000E-03 0. -1.
    9900012    2    1    2    0    0 -0.95972418460E+01  0.38161413452E+02 -0.10235496403E+02  0.50528856941E+02  0.29999991157E+02 0.  0.
         12    1    1    2    0    0  0.95972418460E+01 -0.38161413452E+02  0.10235496403E+02  0.40659143059E+02  0.00000000000E+00 0. -1.
         11    1    3    3    0    0 -0.17423202017E+00  0.56220409836E+01 -0.94106749128E+01  0.10963507842E+02  0.51100000000E-03 0. -1.
        -11    1    3    3    0    0 -0.33453237959E+01  0.58600865646E+00 -0.57403362099E+01  0.66697869162E+01  0.51100000000E-03 0.  1.
        -12    1    3    3    0    0 -0.60776860299E+01  0.31953363812E+02  0.49155147195E+01  0.32895562183E+02  0.00000000000E+00 0.  1.
</event>
<event>
 7    1  0.4520156E-012  0.5052886E+02  0.7816164E-02  0.1300439E+00
        -11   -1    0    0    0    0  0.00000000000E+00  0.00000000000E+00  0.45593999997E+02  0.45594000000E+02  0.51100000000E-03 0. -1.
         11   -1    0    0    0    0 -0.00000000000E+00 -0.00000000000E+00 -0.45593999997E+02  0.45594000000E+02  0.51100000000E-03 0.  1.
    9900012    2    1    2    0    0 -0.30933839087E+02 -0.14815418240E+02  0.21834982449E+02  0.50528862321E+02  0.30000007510E+02 0.  0.
        -12    1    1    2    0    0  0.30933839087E+02  0.14815418240E+02 -0.21834982449E+02  0.40659137679E+02  0.00000000000E+00 0.  1.
         11    1    3    3    0    0 -0.72020879632E+01 -0.16686251054E+01  0.15567967665E+01  0.75549981605E+01  0.51100000000E-03 0. -1.
        -11    1    3    3    0    0 -0.19404418401E+02 -0.12321861121E+02  0.79602233527E+00  0.22999855799E+02  0.51100000000E-03 0.  1.
         12    1    3    3    0    0 -0.43273327224E+01 -0.82493201343E+00  0.19482163347E+02  0.19974008361E+02  0.00000000000E+00 0. -1.
</event>
<event>
 7    1  0.4520156E-012  0.5052886E+02  0.7816164E-02  0.1300439E+00
        -11   -1    0    0    0    0  0.00000000000E+00  0.00000000000E+00  0.45593999997E+02  0.45594000000E+02  0.51100000000E-03 0. -1.
         11   -1    0    0    0    0 -0.00000000000E+00 -0.00000000000E+00 -0.45593999997E+02  0.45594000000E+02  0.51100000000E-03 0.  1.
    9900012    2    1    2    0    0 -0.37203564927E+02 -0.16349398538E+02 -0.13257137466E+01  0.50528860895E+02  0.30000003176E+02 0.  0.
         12    1    1    2    0    0  0.37203564927E+02  0.16349398538E+02  0.13257137466E+01  0.40659139105E+02  0.00000000000E+00 0. -1.
         11    1    3    3    0    0 -0.41529827901E+01 -0.42429569265E+01 -0.15432006957E+01  0.61344452221E+01  0.51100000000E-03 0.  1.
        -11    1    3    3    0    0 -0.13405724157E+02  0.74149070099E+01  0.53519046447E+01  0.16227666799E+02  0.51100000000E-03 0. -1.
         12    1    3    3    0    0 -0.19644857980E+02 -0.19521348622E+02 -0.51344176955E+01  0.28166748874E+02  0.00000000000E+00 0. -1.
</event>
<event>
 7    1  0.4520156E-012  0.5052886E+02  0.7816164E-02  0.1300439E+00
        -11   -1    0    0    0    0  0.00000000000E+00  0.00000000000E+00  0.45593999997E+02  0.45594000000E+02  0.51100000000E-03 0. -1.
         11   -1    0    0    0    0 -0.00000000000E+00 -0.00000000000E+00 -0.45593999997E+02  0.45594000000E+02  0.51100000000E-03 0.  1.
    9900012    2    1    2    0    0  0.22362918435E+02  0.29317713344E+02  0.17132927497E+02  0.50528860299E+02  0.30000001364E+02 0.  0.
        -12    1    1    2    0    0 -0.22362918435E+02 -0.29317713344E+02 -0.17132927497E+02  0.40659139701E+02  0.00000000000E+00 0.  1.
         11    1    3    3    0    0  0.21491346502E+01  0.53174141211E+01  0.11210540896E+02  0.12592454094E+02  0.51100000000E-03 0. -1.
        -11    1    3    3    0    0  0.89071444206E+01  0.10921759498E+02  0.13077285773E+02  0.19225957862E+02  0.51100000000E-03 0.  1.
        -12    1    3    3    0    0  0.11306639364E+02  0.13078539724E+02 -0.71548991714E+01  0.18710448343E+02  0.00000000000E+00 0.  1.
</event>
<event>
 7    1  0.4520156E-012  0.5052886E+02  0.7816164E-02  0.1300439E+00
        -11   -1    0    0    0    0  0.00000000000E+00  0.00000000000E+00  0.45593999997E+02  0.45594000000E+02  0.51100000000E-03 0. -1.
         11   -1    0    0    0    0 -0.00000000000E+00 -0.00000000000E+00 -0.45593999997E+02  0.45594000000E+02  0.51100000000E-03 0.  1.
    9900012    2    1    2    0    0 -0.26245922212E+01 -0.13745334700E+02 -0.38175161952E+02  0.50528859571E+02  0.29999999153E+02 0.  0.
         12    1    1    2    0    0  0.26245922212E+01  0.13745334700E+02  0.38175161952E+02  0.40659140429E+02  0.00000000000E+00 0. -1.
         11    1    3    3    0    0 -0.47699477140E+01  0.88481574578E+00 -0.29608544258E+01  0.56834812650E+01  0.51100000000E-03 0. -1.
        -11    1    3    3    0    0 -0.14941228123E+01  0.38965374591E+01 -0.20466040261E+02  0.20887178157E+02  0.51100000000E-03 0.  1.
        -12    1    3    3    0    0  0.36394783051E+01 -0.18526687905E+02 -0.14748267265E+02  0.23958200149E+02  0.00000000000E+00 0.  1.
</event>
<event>
 7    1  0.4520156E-012  0.5052885E+02  0.7816164E-02  0.1300439E+00
        -11   -1    0    0    0    0  0.00000000000E+00  0.00000000000E+00  0.45593999997E+02  0.45594000000E+02  0.51100000000E-03 0.  1.
         11   -1    0    0    0    0 -0.00000000000E+00 -0.00000000000E+00 -0.45593999997E+02  0.45594000000E+02  0.51100000000E-03 0. -1.
    9900012    2    1    2    0    0 -0.23185565701E+02 -0.18477872802E+02  0.27823802304E+02  0.50528853245E+02  0.29999979923E+02 0.  0.
        -12    1    1    2    0    0  0.23185565701E+02  0.18477872802E+02 -0.27823802304E+02  0.40659146755E+02  0.00000000000E+00 0.  1.
         11    1    3    3    0    0 -0.21492343739E+01  0.23736810910E+01  0.60818814421E+00  0.32593654897E+01  0.51100000000E-03 0. -1.
        -11    1    3    3    0    0 -0.10400368305E+02  0.33993827398E+01  0.29028702294E+01  0.11320340972E+02  0.51100000000E-03 0.  1.
         12    1    3    3    0    0 -0.10635963022E+02 -0.24250936633E+02  0.24312743931E+02  0.35949146783E+02  0.00000000000E+00 0. -1.
</event>
<event>
 7    1  0.4520156E-012  0.5052885E+02  0.7816164E-02  0.1300439E+00
        -11   -1    0    0    0    0  0.00000000000E+00  0.00000000000E+00  0.45593999997E+02  0.45594000000E+02  0.51100000000E-03 0. -1.
         11   -1    0    0    0    0 -0.00000000000E+00 -0.00000000000E+00 -0.45593999997E+02  0.45594000000E+02  0.51100000000E-03 0.  1.
    9900012    2    1    2    0    0 -0.24274036028E+02  0.18539864587E+02  0.26836756096E+02  0.50528845043E+02  0.29999954994E+02 0.  0.
        -12    1    1    2    0    0  0.24274036028E+02 -0.18539864587E+02 -0.26836756096E+02  0.40659154957E+02  0.00000000000E+00 0.  1.
         11    1    3    3    0    0 -0.14448480740E+02 -0.11574984221E+01  0.88847735455E+01  0.17001105832E+02  0.51100000000E-03 0. -1.
        -11    1    3    3    0    0 -0.10181574310E+02  0.14920295018E+02  0.36279667605E+01  0.18423946426E+02  0.51100000000E-03 0.  1.
         12    1    3    3    0    0  0.35601902126E+00  0.47770679914E+01  0.14324015790E+02  0.15103792785E+02  0.00000000000E+00 0. -1.
</event>
<event>
 7    1  0.4520156E-012  0.5052885E+02  0.7816164E-02  0.1300439E+00
        -11   -1    0    0    0    0  0.00000000000E+00  0.00000000000E+00  0.45593999997E+02  0.45594000000E+02  0.51100000000E-03 0. -1.
         11   -1    0    0    0    0 -0.00000000000E+00 -0.00000000000E+00 -0.45593999997E+02  0.45594000000E+02  0.51100000000E-03 0.  1.
    9900012    2    1    2    0    0  0.20445887949E+02  0.14484217662E+02 -0.32020925670E+02  0.50528848803E+02  0.29999966421E+02 0.  0.
         12    1    1    2    0    0 -0.20445887949E+02 -0.14484217662E+02  0.32020925670E+02  0.40659151197E+02  0.00000000000E+00 0. -1.
         11    1    3    3    0    0  0.66092261208E+01 -0.95807231584E+00 -0.88487814622E+01  0.11086059088E+02  0.51100000000E-03 0.  1.
        -11    1    3    3    0    0  0.21719567479E+01  0.72169969569E+01 -0.23990270499E+02  0.25146282430E+02  0.51100000000E-03 0. -1.
         12    1    3    3    0    0  0.11664705081E+02  0.82252930213E+01  0.81812629132E+00  0.14296507284E+02  0.00000000000E+00 0. -1.
</event>
<event>
 7    1  0.4520156E-012  0.5052884E+02  0.7816164E-02  0.1300439E+00
        -11   -1    0    0    0    0  0.00000000000E+00  0.00000000000E+00  0.45593999997E+02  0.45594000000E+02  0.51100000000E-03 0. -1.
         11   -1    0    0    0    0 -0.00000000000E+00 -0.00000000000E+00 -0.45593999997E+02  0.45594000000E+02  0.51100000000E-03 0.  1.
    9900012    2    1    2    0    0  0.13473608315E+02 -0.31998077045E+02 -0.21160158388E+02  0.50528839180E+02  0.29999937171E+02 0.  0.
         12    1    1    2    0    0 -0.13473608315E+02  0.31998077045E+02  0.21160158388E+02  0.40659160820E+02  0.00000000000E+00 0. -1.
         11    1    3    3    0    0 -0.17360772201E+00 -0.15929419103E+02 -0.80914075179E+01  0.17867495865E+02  0.51100000000E-03 0. -1.
        -11    1    3    3    0    0 -0.21217794494E+01 -0.37607749278E+01  0.43554218830E+01  0.61331130863E+01  0.51100000000E-03 0.  1.
        -12    1    3    3    0    0  0.15768995487E+02 -0.12307883014E+02 -0.17424172753E+02  0.26528230229E+02  0.00000000000E+00 0.  1.
</event>
<event>
 7    1  0.4520156E-012  0.5052886E+02  0.7816164E-02  0.1300439E+00
        -11   -1    0    0    0    0  0.00000000000E+00  0.00000000000E+00  0.45593999997E+02  0.45594000000E+02  0.51100000000E-03 0.  1.
         11   -1    0    0    0    0 -0.00000000000E+00 -0.00000000000E+00 -0.45593999997E+02  0.45594000000E+02  0.51100000000E-03 0. -1.
    9900012    2    1    2    0    0 -0.14162204636E+02 -0.36572989975E+02 -0.10724459590E+02  0.50528859953E+02  0.30000000312E+02 0.  0.
        -12    1    1    2    0    0  0.14162204636E+02  0.36572989975E+02  0.10724459590E+02  0.40659140047E+02  0.00000000000E+00 0.  1.
         11    1    3    3    0    0  0.18296824757E+01 -0.63431584927E+01 -0.90825760202E+00  0.66639575147E+01  0.51100000000E-03 0. -1.
        -11    1    3    3    0    0  0.79710726754E+00 -0.79473857279E+01 -0.13537748829E+02  0.15718363895E+02  0.51100000000E-03 0.  1.
        -12    1    3    3    0    0 -0.16788994379E+02 -0.22282445755E+02  0.37215468412E+01  0.28146538543E+02  0.00000000000E+00 0.  1.
</event>
<event>
 7    1  0.4520156E-012  0.5052886E+02  0.7816164E-02  0.1300439E+00
        -11   -1    0    0    0    0  0.00000000000E+00  0.00000000000E+00  0.45593999997E+02  0.45594000000E+02  0.51100000000E-03 0. -1.
         11   -1    0    0    0    0 -0.00000000000E+00 -0.00000000000E+00 -0.45593999997E+02  0.45594000000E+02  0.51100000000E-03 0.  1.
    9900012    2    1    2    0    0  0.15241480318E+02  0.28985808265E+01 -0.37582721785E+02  0.50528862407E+02  0.30000007771E+02 0.  0.
         12    1    1    2    0    0 -0.15241480318E+02 -0.28985808265E+01  0.37582721785E+02  0.40659137593E+02  0.00000000000E+00 0. -1.
         11    1    3    3    0    0  0.73233693294E+01  0.81252590507E-01 -0.24296817707E+02  0.25376636721E+02  0.51100000000E-03 0. -1.
        -11    1    3    3    0    0  0.33773872586E+01  0.15642655177E+01 -0.18063506462E+02  0.18442991549E+02  0.51100000000E-03 0.  1.
         12    1    3    3    0    0  0.45407237296E+01  0.12530627183E+01  0.47776023841E+01  0.67092341370E+01  0.00000000000E+00 0. -1.
</event>
<event>
 7    1  0.4520156E-012  0.5052886E+02  0.7816164E-02  0.1300439E+00
        -11   -1    0    0    0    0  0.00000000000E+00  0.00000000000E+00  0.45593999997E+02  0.45594000000E+02  0.51100000000E-03 0.  1.
         11   -1    0    0    0    0 -0.00000000000E+00 -0.00000000000E+00 -0.45593999997E+02  0.45594000000E+02  0.51100000000E-03 0. -1.
    9900012    2    1    2    0    0 -0.25098291652E+02  0.14871680204E+01 -0.31953557530E+02  0.50528858944E+02  0.29999997246E+02 0.  0.
         12    1    1    2    0    0  0.25098291652E+02 -0.14871680204E+01  0.31953557530E+02  0.40659141056E+02  0.00000000000E+00 0. -1.
         11    1    3    3    0    0  0.12526385753E+01  0.26141021078E+01 -0.90780768532E+01  0.95296438991E+01  0.51100000000E-03 0. -1.
        -11    1    3    3    0    0  0.22795269491E+01 -0.32098556638E+01 -0.74129348433E+01  0.83935105734E+01  0.51100000000E-03 0.  1.
        -12    1    3    3    0    0 -0.28630457176E+02  0.20829215763E+01 -0.15462545834E+02  0.32605704472E+02  0.00000000000E+00 0.  1.
</event>
<event>
 7    1  0.4520156E-012  0.5052886E+02  0.7816164E-02  0.1300439E+00
        -11   -1    0    0    0    0  0.00000000000E+00  0.00000000000E+00  0.45593999997E+02  0.45594000000E+02  0.51100000000E-03 0.  1.
         11   -1    0    0    0    0 -0.00000000000E+00 -0.00000000000E+00 -0.45593999997E+02  0.45594000000E+02  0.51100000000E-03 0. -1.
    9900012    2    1    2    0    0  0.21323945051E+02 -0.29264837135E+02  0.18493895033E+02  0.50528862299E+02  0.30000007445E+02 0.  0.
        -12    1    1    2    0    0 -0.21323945051E+02  0.29264837135E+02 -0.18493895033E+02  0.40659137701E+02  0.00000000000E+00 0.  1.
         11    1    3    3    0    0  0.11631716518E+02 -0.10534641297E+01 -0.18742468712E+01  0.11828753841E+02  0.51100000000E-03 0. -1.
        -11    1    3    3    0    0  0.52168827497E+01 -0.13149770676E+01  0.16505009820E+01  0.56275380110E+01  0.51100000000E-03 0.  1.
        -12    1    3    3    0    0  0.44753457830E+01 -0.26896395937E+02  0.18717640922E+02  0.33072570447E+02  0.00000000000E+00 0.  1.
</event>
<event>
 7    1  0.4520156E-012  0.5052886E+02  0.7816164E-02  0.1300439E+00
        -11   -1    0    0    0    0  0.00000000000E+00  0.00000000000E+00  0.45593999997E+02  0.45594000000E+02  0.51100000000E-03 0. -1.
         11   -1    0    0    0    0 -0.00000000000E+00 -0.00000000000E+00 -0.45593999997E+02  0.45594000000E+02  0.51100000000E-03 0.  1.
    9900012    2    1    2    0    0  0.39737212535E+02  0.12063460816E+01  0.85243577697E+01  0.50528855810E+02  0.29999987719E+02 0.  0.
        -12    1    1    2    0    0 -0.39737212535E+02 -0.12063460816E+01 -0.85243577697E+01  0.40659144190E+02  0.00000000000E+00 0.  1.
         11    1    3    3    0    0  0.11391425072E+02  0.10663648765E+01 -0.91731890271E+01  0.14664552376E+02  0.51100000000E-03 0. -1.
        -11    1    3    3    0    0  0.32848170794E+01 -0.36328020180E+01 -0.95375929136E-01  0.48986090450E+01  0.51100000000E-03 0.  1.
         12    1    3    3    0    0  0.25060970384E+02  0.37727832232E+01  0.17792922726E+02  0.30965694388E+02  0.00000000000E+00 0. -1.
</event>
<event>
 7    1  0.4520156E-012  0.5052886E+02  0.7816164E-02  0.1300439E+00
        -11   -1    0    0    0    0  0.00000000000E+00  0.00000000000E+00  0.45593999997E+02  0.45594000000E+02  0.51100000000E-03 0. -1.
         11   -1    0    0    0    0 -0.00000000000E+00 -0.00000000000E+00 -0.45593999997E+02  0.45594000000E+02  0.51100000000E-03 0.  1.
    9900012    2    1    2    0    0 -0.34895952999E+02  0.65735986435E+01 -0.19804695718E+02  0.50528859486E+02  0.29999998894E+02 0.  0.
         12    1    1    2    0    0  0.34895952999E+02 -0.65735986435E+01  0.19804695718E+02  0.40659140514E+02  0.00000000000E+00 0. -1.
         11    1    3    3    0    0 -0.34366253702E+01  0.10066128066E+02 -0.30115571353E+01  0.11054718668E+02  0.51100000000E-03 0. -1.
        -11    1    3    3    0    0 -0.54843278288E+01 -0.59948437028E+01  0.54627394797E+00  0.81433665177E+01  0.51100000000E-03 0.  1.
        -12    1    3    3    0    0 -0.25974999800E+02  0.25023142802E+01 -0.17339412531E+02  0.31330774301E+02  0.00000000000E+00 0.  1.
</event>
<event>
 7    1  0.4520156E-012  0.5052887E+02  0.7816164E-02  0.1300439E+00
        -11   -1    0    0    0    0  0.00000000000E+00  0.00000000000E+00  0.45593999997E+02  0.45594000000E+02  0.51100000000E-03 0.  1.
         11   -1    0    0    0    0 -0.00000000000E+00 -0.00000000000E+00 -0.45593999997E+02  0.45594000000E+02  0.51100000000E-03 0. -1.
    9900012    2    1    2    0    0 -0.30302751344E+02 -0.18208489074E+02 -0.20083803495E+02  0.50528868477E+02  0.30000026224E+02 0.  0.
         12    1    1    2    0    0  0.30302751344E+02  0.18208489074E+02  0.20083803495E+02  0.40659131523E+02  0.00000000000E+00 0. -1.
         11    1    3    3    0    0 -0.14993824453E+02 -0.70678926910E+01 -0.32983818794E+01  0.16901159786E+02  0.51100000000E-03 0. -1.
        -11    1    3    3    0    0 -0.34218645789E+00 -0.67822623603E+01  0.38188612947E+01  0.77910125237E+01  0.51100000000E-03 0.  1.
         12    1    3    3    0    0 -0.14966740433E+02 -0.43583340232E+01 -0.20604282910E+02  0.25836696168E+02  0.00000000000E+00 0. -1.
</event>
<event>
 7    1  0.4520156E-012  0.5052882E+02  0.7816164E-02  0.1300439E+00
        -11   -1    0    0    0    0  0.00000000000E+00  0.00000000000E+00  0.45593999997E+02  0.45594000000E+02  0.51100000000E-03 0. -1.
         11   -1    0    0    0    0 -0.00000000000E+00 -0.00000000000E+00 -0.45593999997E+02  0.45594000000E+02  0.51100000000E-03 0.  1.
    9900012    2    1    2    0    0 -0.57589690637E+01  0.23219639801E+01 -0.40182228635E+02  0.50528822198E+02  0.29999885554E+02 0.  0.
         12    1    1    2    0    0  0.57589690637E+01 -0.23219639801E+01  0.40182228635E+02  0.40659177802E+02  0.00000000000E+00 0. -1.
         11    1    3    3    0    0  0.32406760488E+01  0.32617041949E+01 -0.28767041044E+01  0.54236631785E+01  0.51100000000E-03 0. -1.
        -11    1    3    3    0    0 -0.11492569608E+01 -0.10390997518E+02 -0.74993188271E+01  0.12865978553E+02  0.51100000000E-03 0.  1.
         12    1    3    3    0    0 -0.78503881517E+01  0.94512573034E+01 -0.29806205704E+02  0.32239180467E+02  0.00000000000E+00 0. -1.
</event>
<event>
 7    1  0.4520156E-012  0.5052886E+02  0.7816164E-02  0.1300439E+00
        -11   -1    0    0    0    0  0.00000000000E+00  0.00000000000E+00  0.45593999997E+02  0.45594000000E+02  0.51100000000E-03 0. -1.
         11   -1    0    0    0    0 -0.00000000000E+00 -0.00000000000E+00 -0.45593999997E+02  0.45594000000E+02  0.51100000000E-03 0.  1.
    9900012    2    1    2    0    0  0.35547858745E+02  0.15797200530E+02  0.11830628461E+02  0.50528861105E+02  0.30000003813E+02 0.  0.
        -12    1    1    2    0    0 -0.35547858745E+02 -0.15797200530E+02 -0.11830628461E+02  0.40659138895E+02  0.00000000000E+00 0.  1.
         11    1    3    3    0    0 -0.10502072077E+01  0.79875519314E+01 -0.21536859652E+01  0.83392016724E+01  0.51100000000E-03 0. -1.
        -11    1    3    3    0    0  0.90042922707E+01  0.70003565681E+01  0.37464928277E+00  0.11411513209E+02  0.51100000000E-03 0.  1.
         12    1    3    3    0    0  0.27593773682E+02  0.80929203009E+00  0.13609665143E+02  0.30778146223E+02  0.00000000000E+00 0. -1.
</event>
<event>
 7    1  0.4520156E-012  0.5052886E+02  0.7816164E-02  0.1300439E+00
        -11   -1    0    0    0    0  0.00000000000E+00  0.00000000000E+00  0.45593999997E+02  0.45594000000E+02  0.51100000000E-03 0.  1.
         11   -1    0    0    0    0 -0.00000000000E+00 -0.00000000000E+00 -0.45593999997E+02  0.45594000000E+02  0.51100000000E-03 0. -1.
    9900012    2    1    2    0    0  0.15250605634E+02 -0.35561388955E+02 -0.12488874399E+02  0.50528863998E+02  0.30000012609E+02 0.  0.
        -12    1    1    2    0    0 -0.15250605634E+02  0.35561388955E+02  0.12488874399E+02  0.40659136002E+02  0.00000000000E+00 0.  1.
         11    1    3    3    0    0 -0.60668429868E+01 -0.42872863781E+01  0.13732107058E+01  0.75546751233E+01  0.51100000000E-03 0. -1.
        -11    1    3    3    0    0  0.25224500020E+01 -0.10099907787E+02  0.18815577028E+01  0.10578806689E+02  0.51100000000E-03 0.  1.
         12    1    3    3    0    0  0.18794998619E+02 -0.21174194790E+02 -0.15743642808E+02  0.32395382186E+02  0.00000000000E+00 0. -1.
</event>
<event>
 7    1  0.4520156E-012  0.5052886E+02  0.7816164E-02  0.1300439E+00
        -11   -1    0    0    0    0  0.00000000000E+00  0.00000000000E+00  0.45593999997E+02  0.45594000000E+02  0.51100000000E-03 0. -1.
         11   -1    0    0    0    0 -0.00000000000E+00 -0.00000000000E+00 -0.45593999997E+02  0.45594000000E+02  0.51100000000E-03 0.  1.
    9900012    2    1    2    0    0  0.25078058254E+02 -0.82119567921E+01 -0.30932514676E+02  0.50528859524E+02  0.29999999008E+02 0.  0.
         12    1    1    2    0    0 -0.25078058254E+02  0.82119567921E+01  0.30932514676E+02  0.40659140476E+02  0.00000000000E+00 0. -1.
         11    1    3    3    0    0  0.70828651657E+01  0.43608580425E+01 -0.17249548847E+02  0.19150221865E+02  0.51100000000E-03 0. -1.
        -11    1    3    3    0    0  0.14236593240E+02 -0.51480153486E+00 -0.12020061051E+02  0.18639406525E+02  0.51100000000E-03 0.  1.
        -12    1    3    3    0    0  0.37585998482E+01 -0.12058013300E+02 -0.16629047784E+01  0.12739231133E+02  0.00000000000E+00 0.  1.
</event>
<event>
 7    1  0.4520156E-012  0.5052887E+02  0.7816164E-02  0.1300439E+00
        -11   -1    0    0    0    0  0.00000000000E+00  0.00000000000E+00  0.45593999997E+02  0.45594000000E+02  0.51100000000E-03 0. -1.
         11   -1    0    0    0    0 -0.00000000000E+00 -0.00000000000E+00 -0.45593999997E+02  0.45594000000E+02  0.51100000000E-03 0.  1.
    9900012    2    1    2    0    0  0.39438786496E+02  0.93963102748E+01  0.30751769828E+01  0.50528865226E+02  0.30000016342E+02 0.  0.
        -12    1    1    2    0    0 -0.39438786496E+02 -0.93963102748E+01 -0.30751769828E+01  0.40659134774E+02  0.00000000000E+00 0.  1.
         11    1    3    3    0    0  0.73466822269E+01  0.16964170243E+00  0.15572369477E+01  0.75118243605E+01  0.51100000000E-03 0. -1.
        -11    1    3    3    0    0  0.12389310621E+02 -0.92535721667E+01 -0.26344970186E+01  0.15686433320E+02  0.51100000000E-03 0.  1.
         12    1    3    3    0    0  0.19702793649E+02  0.18480240739E+02  0.41524370537E+01  0.27330607546E+02  0.00000000000E+00 0. -1.
</event>
<event>
 7    1  0.4520156E-012  0.5052886E+02  0.7816164E-02  0.1300439E+00
        -11   -1    0    0    0    0  0.00000000000E+00  0.00000000000E+00  0.45593999997E+02  0.45594000000E+02  0.51100000000E-03 0. -1.
         11   -1    0    0    0    0 -0.00000000000E+00 -0.00000000000E+00 -0.45593999997E+02  0.45594000000E+02  0.51100000000E-03 0.  1.
    9900012    2    1    2    0    0  0.73758630824E+01  0.39753730433E+02 -0.42898750429E+01  0.50528862436E+02  0.30000007861E+02 0.  0.
        -12    1    1    2    0    0 -0.73758630824E+01 -0.39753730433E+02  0.42898750429E+01  0.40659137564E+02  0.00000000000E+00 0.  1.
         11    1    3    3    0    0  0.78377139488E+01  0.18439275142E+01  0.23237878856E+01  0.83803233242E+01  0.51100000000E-03 0. -1.
        -11    1    3    3    0    0 -0.51108441657E+01  0.27730580475E+01 -0.29400144873E+01  0.65156937057E+01  0.51100000000E-03 0.  1.
        -12    1    3    3    0    0  0.46489932993E+01  0.35136744872E+02 -0.36736484412E+01  0.35632845406E+02  0.00000000000E+00 0.  1.
</event>
<event>
 7    1  0.4520156E-012  0.5052886E+02  0.7816164E-02  0.1300439E+00
        -11   -1    0    0    0    0  0.00000000000E+00  0.00000000000E+00  0.45593999997E+02  0.45594000000E+02  0.51100000000E-03 0. -1.
         11   -1    0    0    0    0 -0.00000000000E+00 -0.00000000000E+00 -0.45593999997E+02  0.45594000000E+02  0.51100000000E-03 0.  1.
    9900012    2    1    2    0    0 -0.13163039549E+02  0.12491054323E+02  0.36385075210E+02  0.50528859007E+02  0.29999997437E+02 0.  0.
        -12    1    1    2    0    0  0.13163039549E+02 -0.12491054323E+02 -0.36385075210E+02  0.40659140993E+02  0.00000000000E+00 0.  1.
         11    1    3    3    0    0 -0.69757451656E+01 -0.22302925550E+01  0.19298652710E+02  0.20641541178E+02  0.51100000000E-03 0. -1.
        -11    1    3    3    0    0  0.67542243234E+00 -0.28339688068E+00  0.12825431250E+02  0.12846330070E+02  0.51100000000E-03 0.  1.
        -12    1    3    3    0    0 -0.68627168154E+01  0.15004743759E+02  0.42609912496E+01  0.17040987759E+02  0.00000000000E+00 0.  1.
</event>
<event>
 7    1  0.4520156E-012  0.5052886E+02  0.7816164E-02  0.1300439E+00
        -11   -1    0    0    0    0  0.00000000000E+00  0.00000000000E+00  0.45593999997E+02  0.45594000000E+02  0.51100000000E-03 0. -1.
         11   -1    0    0    0    0 -0.00000000000E+00 -0.00000000000E+00 -0.45593999997E+02  0.45594000000E+02  0.51100000000E-03 0.  1.
    9900012    2    1    2    0    0  0.82219922718E+01  0.62148687436E+01  0.39331158624E+02  0.50528858480E+02  0.29999995836E+02 0.  0.
        -12    1    1    2    0    0 -0.82219922718E+01 -0.62148687436E+01 -0.39331158624E+02  0.40659141520E+02  0.00000000000E+00 0.  1.
         11    1    3    3    0    0  0.86170429808E+01  0.77784728553E+01  0.12354958524E+02  0.16952966410E+02  0.51100000000E-03 0. -1.
        -11    1    3    3    0    0 -0.78945259615E+01  0.32893373810E+01  0.51275184573E+01  0.99716962626E+01  0.51100000000E-03 0.  1.
        -12    1    3    3    0    0  0.74994752524E+01 -0.48529414927E+01  0.21848681643E+02  0.23604195808E+02  0.00000000000E+00 0.  1.
</event>
<event>
 7    1  0.4520156E-012  0.5052886E+02  0.7816164E-02  0.1300439E+00
        -11   -1    0    0    0    0  0.00000000000E+00  0.00000000000E+00  0.45593999997E+02  0.45594000000E+02  0.51100000000E-03 0. -1.
         11   -1    0    0    0    0 -0.00000000000E+00 -0.00000000000E+00 -0.45593999997E+02  0.45594000000E+02  0.51100000000E-03 0.  1.
    9900012    2    1    2    0    0 -0.23732876884E+01  0.33593599911E+02  0.22781644097E+02  0.50528858873E+02  0.29999997029E+02 0.  0.
        -12    1    1    2    0    0  0.23732876884E+01 -0.33593599911E+02 -0.22781644097E+02  0.40659141127E+02  0.00000000000E+00 0.  1.
         11    1    3    3    0    0 -0.69462318152E+01  0.26053933067E+01  0.15466659672E+02  0.17153885053E+02  0.51100000000E-03 0.  1.
        -11    1    3    3    0    0 -0.13758452640E+01  0.13043961971E+02  0.60033820904E+01  0.14424926026E+02  0.51100000000E-03 0. -1.
        -12    1    3    3    0    0  0.59487893908E+01  0.17944244634E+02  0.13116023345E+01  0.18950047794E+02  0.00000000000E+00 0.  1.
</event>
<event>
 7    1  0.4520156E-012  0.5052886E+02  0.7816164E-02  0.1300439E+00
        -11   -1    0    0    0    0  0.00000000000E+00  0.00000000000E+00  0.45593999997E+02  0.45594000000E+02  0.51100000000E-03 0. -1.
         11   -1    0    0    0    0 -0.00000000000E+00 -0.00000000000E+00 -0.45593999997E+02  0.45594000000E+02  0.51100000000E-03 0.  1.
    9900012    2    1    2    0    0 -0.14750666835E+02  0.12777334496E+02 -0.35669643050E+02  0.50528857311E+02  0.29999992283E+02 0.  0.
         12    1    1    2    0    0  0.14750666835E+02 -0.12777334496E+02  0.35669643050E+02  0.40659142689E+02  0.00000000000E+00 0. -1.
         11    1    3    3    0    0  0.48342873614E+01 -0.70186637749E+00 -0.10918360892E+02  0.11961335859E+02  0.51100000000E-03 0. -1.
        -11    1    3    3    0    0  0.22066864874E+01 -0.17300091225E+01 -0.38261707770E+01  0.47436251847E+01  0.51100000000E-03 0.  1.
         12    1    3    3    0    0 -0.21791640683E+02  0.15209209996E+02 -0.20925111381E+02  0.33823896267E+02  0.00000000000E+00 0. -1.
</event>
<event>
 7    1  0.4520156E-012  0.5052886E+02  0.7816164E-02  0.1300439E+00
        -11   -1    0    0    0    0  0.00000000000E+00  0.00000000000E+00  0.45593999997E+02  0.45594000000E+02  0.51100000000E-03 0. -1.
         11   -1    0    0    0    0 -0.00000000000E+00 -0.00000000000E+00 -0.45593999997E+02  0.45594000000E+02  0.51100000000E-03 0.  1.
    9900012    2    1    2    0    0  0.25249894185E+02  0.22344626933E+02 -0.22722808601E+02  0.50528861546E+02  0.30000005156E+02 0.  0.
         12    1    1    2    0    0 -0.25249894185E+02 -0.22344626933E+02  0.22722808601E+02  0.40659138454E+02  0.00000000000E+00 0. -1.
         11    1    3    3    0    0 -0.14843145216E+01 -0.23047347798E+01  0.16120838379E+01  0.31802211504E+01  0.51100000000E-03 0. -1.
        -11    1    3    3    0    0  0.13343828303E+02  0.29887776930E+01 -0.14817118513E+02  0.20162776276E+02  0.51100000000E-03 0.  1.
        -12    1    3    3    0    0  0.13390380404E+02  0.21660584020E+02 -0.95177739251E+01  0.27185864119E+02  0.00000000000E+00 0.  1.
</event>
<event>
 7    1  0.4520156E-012  0.5052889E+02  0.7816164E-02  0.1300439E+00
        -11   -1    0    0    0    0  0.00000000000E+00  0.00000000000E+00  0.45593999997E+02  0.45594000000E+02  0.51100000000E-03 0. -1.
         11   -1    0    0    0    0 -0.00000000000E+00 -0.00000000000E+00 -0.45593999997E+02  0.45594000000E+02  0.51100000000E-03 0.  1.
    9900012    2    1    2    0    0 -0.90962825212E+01  0.21697615612E+01 -0.39569092662E+02  0.50528888905E+02  0.30000088315E+02 0.  0.
         12    1    1    2    0    0  0.90962825212E+01 -0.21697615612E+01  0.39569092662E+02  0.40659111095E+02  0.00000000000E+00 0. -1.
         11    1    3    3    0    0  0.19371631228E+01  0.96222651056E+00 -0.69440650420E+00  0.22717133349E+01  0.51100000000E-03 0. -1.
        -11    1    3    3    0    0  0.11552093692E+01  0.87171637450E+01 -0.30342877824E+02  0.31591354629E+02  0.51100000000E-03 0.  1.
        -12    1    3    3    0    0 -0.12188655013E+02 -0.75096286944E+01 -0.85318083345E+01  0.16665820940E+02  0.00000000000E+00 0.  1.
</event>
<event>
 7    1  0.4520156E-012  0.5052885E+02  0.7816164E-02  0.1300439E+00
        -11   -1    0    0    0    0  0.00000000000E+00  0.00000000000E+00  0.45593999997E+02  0.45594000000E+02  0.51100000000E-03 0.  1.
         11   -1    0    0    0    0 -0.00000000000E+00 -0.00000000000E+00 -0.45593999997E+02  0.45594000000E+02  0.51100000000E-03 0. -1.
    9900012    2    1    2    0    0  0.39624924774E+02 -0.78328007894E+01 -0.46560534614E+01  0.50528852623E+02  0.29999978034E+02 0.  0.
         12    1    1    2    0    0 -0.39624924774E+02  0.78328007894E+01  0.46560534614E+01  0.40659147377E+02  0.00000000000E+00 0. -1.
         11    1    3    3    0    0  0.22634299637E+02 -0.15609154118E+00 -0.47521193338E+00  0.22639825778E+02  0.51100000000E-03 0. -1.
        -11    1    3    3    0    0  0.21113496371E+02 -0.53250413691E+01 -0.33032894827E+00  0.21777164923E+02  0.51100000000E-03 0.  1.
         12    1    3    3    0    0 -0.41228712343E+01 -0.23516678792E+01 -0.38505125797E+01  0.61118619221E+01  0.00000000000E+00 0. -1.
</event>
<event>
 7    1  0.4520156E-012  0.5052886E+02  0.7816164E-02  0.1300439E+00
        -11   -1    0    0    0    0  0.00000000000E+00  0.00000000000E+00  0.45593999997E+02  0.45594000000E+02  0.51100000000E-03 0. -1.
         11   -1    0    0    0    0 -0.00000000000E+00 -0.00000000000E+00 -0.45593999997E+02  0.45594000000E+02  0.51100000000E-03 0.  1.
    9900012    2    1    2    0    0  0.17974889209E+02 -0.11277176025E+02 -0.34682767772E+02  0.50528859311E+02  0.29999998363E+02 0.  0.
         12    1    1    2    0    0 -0.17974889209E+02  0.11277176025E+02  0.34682767772E+02  0.40659140689E+02  0.00000000000E+00 0. -1.
         11    1    3    3    0    0  0.20327696770E+02 -0.76467920691E+01 -0.17849676922E+02  0.28112268699E+02  0.51100000000E-03 0. -1.
        -11    1    3    3    0    0  0.35976591682E+01 -0.70088290175E+01 -0.10183125821E+02  0.12874893686E+02  0.51100000000E-03 0.  1.
         12    1    3    3    0    0 -0.59504667296E+01  0.33784450615E+01 -0.66499650295E+01  0.95416969260E+01  0.00000000000E+00 0. -1.
</event>
<event>
 7    1  0.4520156E-012  0.5052886E+02  0.7816164E-02  0.1300439E+00
        -11   -1    0    0    0    0  0.00000000000E+00  0.00000000000E+00  0.45593999997E+02  0.45594000000E+02  0.51100000000E-03 0. -1.
         11   -1    0    0    0    0 -0.00000000000E+00 -0.00000000000E+00 -0.45593999997E+02  0.45594000000E+02  0.51100000000E-03 0.  1.
    9900012    2    1    2    0    0 -0.10113534749E+02  0.89587252138E+01  0.38348708503E+02  0.50528858513E+02  0.29999995937E+02 0.  0.
        -12    1    1    2    0    0  0.10113534749E+02 -0.89587252138E+01 -0.38348708503E+02  0.40659141487E+02  0.00000000000E+00 0.  1.
         11    1    3    3    0    0 -0.13510858901E+02  0.51477799427E+01  0.12616953638E+02  0.19189332087E+02  0.51100000000E-03 0. -1.
        -11    1    3    3    0    0 -0.63720481165E+01 -0.14427408532E+01  0.12228867518E+02  0.13864692546E+02  0.51100000000E-03 0.  1.
        -12    1    3    3    0    0  0.97693722686E+01  0.52536861243E+01  0.13502887347E+02  0.17474833880E+02  0.00000000000E+00 0.  1.
</event>
<event>
 7    1  0.4520156E-012  0.5052886E+02  0.7816164E-02  0.1300439E+00
        -11   -1    0    0    0    0  0.00000000000E+00  0.00000000000E+00  0.45593999997E+02  0.45594000000E+02  0.51100000000E-03 0. -1.
         11   -1    0    0    0    0 -0.00000000000E+00 -0.00000000000E+00 -0.45593999997E+02  0.45594000000E+02  0.51100000000E-03 0.  1.
    9900012    2    1    2    0    0 -0.18310585710E+02 -0.33246180759E+02 -0.14580122583E+02  0.50528855166E+02  0.29999985762E+02 0.  0.
         12    1    1    2    0    0  0.18310585710E+02  0.33246180759E+02  0.14580122583E+02  0.40659144834E+02  0.00000000000E+00 0. -1.
         11    1    3    3    0    0  0.79481845351E+00 -0.23678382652E+02 -0.70676287527E+01  0.24723448745E+02  0.51100000000E-03 0. -1.
        -11    1    3    3    0    0 -0.31133865449E+01 -0.61143102790E+01  0.16456540588E+01  0.70559296700E+01  0.51100000000E-03 0.  1.
         12    1    3    3    0    0 -0.15992017618E+02 -0.34534878287E+01 -0.91581478892E+01  0.18749476751E+02  0.00000000000E+00 0. -1.
</event>
<event>
 7    1  0.4520156E-012  0.5052887E+02  0.7816164E-02  0.1300439E+00
        -11   -1    0    0    0    0  0.00000000000E+00  0.00000000000E+00  0.45593999997E+02  0.45594000000E+02  0.51100000000E-03 0. -1.
         11   -1    0    0    0    0 -0.00000000000E+00 -0.00000000000E+00 -0.45593999997E+02  0.45594000000E+02  0.51100000000E-03 0.  1.
    9900012    2    1    2    0    0 -0.37722772566E+02 -0.87165300363E+01  0.12416914401E+02  0.50528865366E+02  0.30000016767E+02 0.  0.
        -12    1    1    2    0    0  0.37722772566E+02  0.87165300363E+01 -0.12416914401E+02  0.40659134634E+02  0.00000000000E+00 0.  1.
         11    1    3    3    0    0 -0.21187866520E+01 -0.24092625305E+01 -0.66766937021E+00  0.32771306758E+01  0.51100000000E-03 0. -1.
        -11    1    3    3    0    0 -0.89875851308E+01 -0.10339619415E+02  0.14936749382E+02  0.20267977168E+02  0.51100000000E-03 0.  1.
        -12    1    3    3    0    0 -0.26616400783E+02  0.40323519089E+01 -0.18521656110E+01  0.26983757522E+02  0.00000000000E+00 0.  1.
</event>
<event>
 7    1  0.4520156E-012  0.5052885E+02  0.7816164E-02  0.1300439E+00
        -11   -1    0    0    0    0  0.00000000000E+00  0.00000000000E+00  0.45593999997E+02  0.45594000000E+02  0.51100000000E-03 0.  1.
         11   -1    0    0    0    0 -0.00000000000E+00 -0.00000000000E+00 -0.45593999997E+02  0.45594000000E+02  0.51100000000E-03 0. -1.
    9900012    2    1    2    0    0 -0.37327625743E+02 -0.15779687404E+02  0.32888044170E+01  0.50528850812E+02  0.29999972529E+02 0.  0.
        -12    1    1    2    0    0  0.37327625743E+02  0.15779687404E+02 -0.32888044170E+01  0.40659149188E+02  0.00000000000E+00 0.  1.
         11    1    3    3    0    0 -0.11233316035E+02 -0.13911965692E+01 -0.84355764649E+01  0.14116719434E+02  0.51100000000E-03 0. -1.
        -11    1    3    3    0    0 -0.23398912930E+01 -0.29463986887E+01 -0.41770248304E+01  0.56217340021E+01  0.51100000000E-03 0.  1.
         12    1    3    3    0    0 -0.23754418415E+02 -0.11442092146E+02  0.15901405712E+02  0.30790397376E+02  0.00000000000E+00 0. -1.
</event>
<event>
 7    1  0.4520156E-012  0.5052886E+02  0.7816164E-02  0.1300439E+00
        -11   -1    0    0    0    0  0.00000000000E+00  0.00000000000E+00  0.45593999997E+02  0.45594000000E+02  0.51100000000E-03 0. -1.
         11   -1    0    0    0    0 -0.00000000000E+00 -0.00000000000E+00 -0.45593999997E+02  0.45594000000E+02  0.51100000000E-03 0.  1.
    9900012    2    1    2    0    0  0.78618528120E+00  0.14092038922E+02 -0.38130859081E+02  0.50528855118E+02  0.29999985616E+02 0.  0.
         12    1    1    2    0    0 -0.78618528120E+00 -0.14092038922E+02  0.38130859081E+02  0.40659144882E+02  0.00000000000E+00 0. -1.
         11    1    3    3    0    0 -0.42310251328E+01  0.12992494793E+01 -0.13294837393E+02  0.14012220539E+02  0.51100000000E-03 0. -1.
        -11    1    3    3    0    0 -0.38965239997E+01 -0.51506808879E+01 -0.39310310552E+01  0.75607815937E+01  0.51100000000E-03 0.  1.
        -12    1    3    3    0    0  0.89137344137E+01  0.17943470331E+02 -0.20904990633E+02  0.28955852985E+02  0.00000000000E+00 0.  1.
</event>
<event>
 7    1  0.4520156E-012  0.5052887E+02  0.7816164E-02  0.1300439E+00
        -11   -1    0    0    0    0  0.00000000000E+00  0.00000000000E+00  0.45593999997E+02  0.45594000000E+02  0.51100000000E-03 0.  1.
         11   -1    0    0    0    0 -0.00000000000E+00 -0.00000000000E+00 -0.45593999997E+02  0.45594000000E+02  0.51100000000E-03 0. -1.
    9900012    2    1    2    0    0 -0.83433772835E+01 -0.25860786845E+02  0.30245213577E+02  0.50528865909E+02  0.30000018417E+02 0.  0.
        -12    1    1    2    0    0  0.83433772835E+01  0.25860786845E+02 -0.30245213577E+02  0.40659134091E+02  0.00000000000E+00 0.  1.
         11    1    3    3    0    0 -0.11862836882E+02 -0.18532643098E+02  0.22935004798E+02  0.31783646809E+02  0.51100000000E-03 0. -1.
        -11    1    3    3    0    0 -0.49419871712E+01  0.17390142373E+00 -0.54703898515E+00  0.49752116355E+01  0.51100000000E-03 0.  1.
        -12    1    3    3    0    0  0.84614467694E+01 -0.75020451700E+01  0.78572477638E+01  0.13770007465E+02  0.00000000000E+00 0.  1.
</event>
<event>
 7    1  0.4520156E-012  0.5052886E+02  0.7816164E-02  0.1300439E+00
        -11   -1    0    0    0    0  0.00000000000E+00  0.00000000000E+00  0.45593999997E+02  0.45594000000E+02  0.51100000000E-03 0.  1.
         11   -1    0    0    0    0 -0.00000000000E+00 -0.00000000000E+00 -0.45593999997E+02  0.45594000000E+02  0.51100000000E-03 0. -1.
    9900012    2    1    2    0    0 -0.34104652551E+02 -0.20921714931E+02 -0.72332687510E+01  0.50528860092E+02  0.30000000734E+02 0.  0.
         12    1    1    2    0    0  0.34104652551E+02  0.20921714931E+02  0.72332687510E+01  0.40659139908E+02  0.00000000000E+00 0. -1.
         11    1    3    3    0    0 -0.83097173240E+01 -0.94404211553E+00 -0.10928730807E+02  0.13761532431E+02  0.51100000000E-03 0. -1.
        -11    1    3    3    0    0 -0.37840348925E+01 -0.66352264728E+01 -0.55243838369E+01  0.94267686644E+01  0.51100000000E-03 0.  1.
        -12    1    3    3    0    0 -0.22010900335E+02 -0.13342446343E+02  0.92198458934E+01  0.27340558996E+02  0.00000000000E+00 0.  1.
</event>
<event>
 7    1  0.4520156E-012  0.5052886E+02  0.7816164E-02  0.1300439E+00
        -11   -1    0    0    0    0  0.00000000000E+00  0.00000000000E+00  0.45593999997E+02  0.45594000000E+02  0.51100000000E-03 0.  1.
         11   -1    0    0    0    0 -0.00000000000E+00 -0.00000000000E+00 -0.45593999997E+02  0.45594000000E+02  0.51100000000E-03 0. -1.
    9900012    2    1    2    0    0 -0.13511155000E+02 -0.37314472413E+02 -0.88456063412E+01  0.50528856964E+02  0.29999991227E+02 0.  0.
        -12    1    1    2    0    0  0.13511155000E+02  0.37314472413E+02  0.88456063412E+01  0.40659143036E+02  0.00000000000E+00 0.  1.
         11    1    3    3    0    0 -0.31284061075E+01 -0.12187357031E+02  0.45886299384E+01  0.13393062426E+02  0.51100000000E-03 0. -1.
        -11    1    3    3    0    0 -0.11038748215E+02 -0.20547681943E+02 -0.42554675227E+00  0.23329000958E+02  0.51100000000E-03 0.  1.
         12    1    3    3    0    0  0.65599932300E+00 -0.45794334392E+01 -0.13008689527E+02  0.13806793580E+02  0.00000000000E+00 0. -1.
</event>
<event>
 7    1  0.4520156E-012  0.5052885E+02  0.7816164E-02  0.1300439E+00
        -11   -1    0    0    0    0  0.00000000000E+00  0.00000000000E+00  0.45593999997E+02  0.45594000000E+02  0.51100000000E-03 0. -1.
         11   -1    0    0    0    0 -0.00000000000E+00 -0.00000000000E+00 -0.45593999997E+02  0.45594000000E+02  0.51100000000E-03 0.  1.
    9900012    2    1    2    0    0  0.12614170723E+02 -0.13675956333E+01  0.38628726289E+02  0.50528854466E+02  0.29999983635E+02 0.  0.
        -12    1    1    2    0    0 -0.12614170723E+02  0.13675956333E+01 -0.38628726289E+02  0.40659145534E+02  0.00000000000E+00 0.  1.
         11    1    3    3    0    0  0.60446871942E+01 -0.52315563270E+01 -0.16845805875E+01  0.81697758167E+01  0.51100000000E-03 0. -1.
        -11    1    3    3    0    0 -0.20522761577E+01  0.29331272330E+00  0.18455651868E+01  0.27756046010E+01  0.51100000000E-03 0.  1.
         12    1    3    3    0    0  0.86217596867E+01  0.35706479705E+01  0.38467741690E+02  0.39583474048E+02  0.00000000000E+00 0. -1.
</event>
<event>
 7    1  0.4520156E-012  0.5052889E+02  0.7816164E-02  0.1300439E+00
        -11   -1    0    0    0    0  0.00000000000E+00  0.00000000000E+00  0.45593999997E+02  0.45594000000E+02  0.51100000000E-03 0. -1.
         11   -1    0    0    0    0 -0.00000000000E+00 -0.00000000000E+00 -0.45593999997E+02  0.45594000000E+02  0.51100000000E-03 0.  1.
    9900012    2    1    2    0    0  0.17267648308E+02 -0.31564315190E+02 -0.18939001623E+02  0.50528887196E+02  0.30000083122E+02 0.  0.
         12    1    1    2    0    0 -0.17267648308E+02  0.31564315190E+02  0.18939001623E+02  0.40659112804E+02  0.00000000000E+00 0. -1.
         11    1    3    3    0    0  0.10471180791E+02 -0.16495448409E+01 -0.69865457910E+01  0.12695607417E+02  0.51100000000E-03 0. -1.
        -11    1    3    3    0    0  0.57704805489E+01  0.16010654791E+00 -0.25046314416E+01  0.62926352819E+01  0.51100000000E-03 0.  1.
        -12    1    3    3    0    0  0.10259869685E+01 -0.30074876897E+02 -0.94478243904E+01  0.31540644498E+02  0.00000000000E+00 0.  1.
</event>
<event>
 7    1  0.4520156E-012  0.5052886E+02  0.7816164E-02  0.1300439E+00
        -11   -1    0    0    0    0  0.00000000000E+00  0.00000000000E+00  0.45593999997E+02  0.45594000000E+02  0.51100000000E-03 0. -1.
         11   -1    0    0    0    0 -0.00000000000E+00 -0.00000000000E+00 -0.45593999997E+02  0.45594000000E+02  0.51100000000E-03 0.  1.
    9900012    2    1    2    0    0 -0.18098668005E+01 -0.27260923487E+02  0.30111995413E+02  0.50528857917E+02  0.29999994123E+02 0.  0.
        -12    1    1    2    0    0  0.18098668005E+01  0.27260923487E+02 -0.30111995413E+02  0.40659142083E+02  0.00000000000E+00 0.  1.
         11    1    3    3    0    0  0.39256610816E+01 -0.13426140285E+02  0.21997334163E+02  0.26068271297E+02  0.51100000000E-03 0. -1.
        -11    1    3    3    0    0 -0.54441013029E+01  0.24443221037E+01  0.52097334731E+01  0.79217594425E+01  0.51100000000E-03 0.  1.
        -12    1    3    3    0    0 -0.29142657918E+00 -0.16279105305E+02  0.29049277773E+01  0.16538827177E+02  0.00000000000E+00 0.  1.
</event>
<event>
 7    1  0.4520156E-012  0.5052886E+02  0.7816164E-02  0.1300439E+00
        -11   -1    0    0    0    0  0.00000000000E+00  0.00000000000E+00  0.45593999997E+02  0.45594000000E+02  0.51100000000E-03 0. -1.
         11   -1    0    0    0    0 -0.00000000000E+00 -0.00000000000E+00 -0.45593999997E+02  0.45594000000E+02  0.51100000000E-03 0.  1.
    9900012    2    1    2    0    0 -0.52493553200E+01  0.90733697832E-01 -0.40318753241E+02  0.50528858017E+02  0.29999994429E+02 0.  0.
         12    1    1    2    0    0  0.52493553200E+01 -0.90733697832E-01  0.40318753241E+02  0.40659141983E+02  0.00000000000E+00 0. -1.
         11    1    3    3    0    0 -0.11627700733E+01 -0.37718953377E+01 -0.41663011207E+01  0.57391021921E+01  0.51100000000E-03 0. -1.
        -11    1    3    3    0    0 -0.14171744085E+02 -0.23068632630E+01 -0.22911640521E+02  0.27038920469E+02  0.51100000000E-03 0.  1.
         12    1    3    3    0    0  0.10085158838E+02  0.61694922986E+01 -0.13240811599E+02  0.17750835356E+02  0.00000000000E+00 0. -1.
</event>
<event>
 7    1  0.4520156E-012  0.5052874E+02  0.7816164E-02  0.1300439E+00
        -11   -1    0    0    0    0  0.00000000000E+00  0.00000000000E+00  0.45593999997E+02  0.45594000000E+02  0.51100000000E-03 0. -1.
         11   -1    0    0    0    0 -0.00000000000E+00 -0.00000000000E+00 -0.45593999997E+02  0.45594000000E+02  0.51100000000E-03 0.  1.
    9900012    2    1    2    0    0  0.52177474235E+01  0.38931237463E+02 -0.10502808612E+02  0.50528743646E+02  0.29999646783E+02 0.  0.
         12    1    1    2    0    0 -0.52177474235E+01 -0.38931237463E+02  0.10502808612E+02  0.40659256354E+02  0.00000000000E+00 0. -1.
         11    1    3    3    0    0  0.43678347923E+01  0.29898764083E+02 -0.13095808853E+02  0.32931964476E+02  0.51100000000E-03 0. -1.
        -11    1    3    3    0    0 -0.10296739657E+01  0.95140946476E+01 -0.42595479001E+01  0.10474825727E+02  0.51100000000E-03 0.  1.
         12    1    3    3    0    0  0.18795865969E+01 -0.48162126783E+00  0.68525481408E+01  0.71219534430E+01  0.00000000000E+00 0. -1.
</event>
<event>
 7    1  0.4520156E-012  0.5052886E+02  0.7816164E-02  0.1300439E+00
        -11   -1    0    0    0    0  0.00000000000E+00  0.00000000000E+00  0.45593999997E+02  0.45594000000E+02  0.51100000000E-03 0. -1.
         11   -1    0    0    0    0 -0.00000000000E+00 -0.00000000000E+00 -0.45593999997E+02  0.45594000000E+02  0.51100000000E-03 0.  1.
    9900012    2    1    2    0    0 -0.12526302746E+02 -0.34492538089E+02  0.17507773723E+02  0.50528860990E+02  0.30000003465E+02 0.  0.
        -12    1    1    2    0    0  0.12526302746E+02  0.34492538089E+02 -0.17507773723E+02  0.40659139010E+02  0.00000000000E+00 0.  1.
         11    1    3    3    0    0 -0.14979111793E+02 -0.22831710478E+02  0.11731502656E+02  0.29720177460E+02  0.51100000000E-03 0. -1.
        -11    1    3    3    0    0  0.29298831160E+01 -0.15446609331E+02  0.63387096963E+01  0.16951731351E+02  0.51100000000E-03 0.  1.
        -12    1    3    3    0    0 -0.47707406891E+00  0.37857817201E+01 -0.56243862944E+00  0.38569521790E+01  0.00000000000E+00 0.  1.
</event>
<event>
 7    1  0.4520156E-012  0.5052886E+02  0.7816164E-02  0.1300439E+00
        -11   -1    0    0    0    0  0.00000000000E+00  0.00000000000E+00  0.45593999997E+02  0.45594000000E+02  0.51100000000E-03 0.  1.
         11   -1    0    0    0    0 -0.00000000000E+00 -0.00000000000E+00 -0.45593999997E+02  0.45594000000E+02  0.51100000000E-03 0. -1.
    9900012    2    1    2    0    0 -0.37045744239E+02  0.16036204684E+02  0.48599142187E+01  0.50528858431E+02  0.29999995687E+02 0.  0.
        -12    1    1    2    0    0  0.37045744239E+02 -0.16036204684E+02 -0.48599142187E+01  0.40659141569E+02  0.00000000000E+00 0.  1.
         11    1    3    3    0    0 -0.11211430998E+02  0.98585569421E+01  0.12774956187E+02  0.19649092494E+02  0.51100000000E-03 0. -1.
        -11    1    3    3    0    0 -0.71471459457E+01 -0.42899638240E+01 -0.33239211149E+01  0.89740702371E+01  0.51100000000E-03 0.  1.
        -12    1    3    3    0    0 -0.18687167295E+02  0.10467611566E+02 -0.45911208532E+01  0.21905695700E+02  0.00000000000E+00 0.  1.
</event>
<event>
 7    1  0.4520156E-012  0.5052886E+02  0.7816164E-02  0.1300439E+00
        -11   -1    0    0    0    0  0.00000000000E+00  0.00000000000E+00  0.45593999997E+02  0.45594000000E+02  0.51100000000E-03 0. -1.
         11   -1    0    0    0    0 -0.00000000000E+00 -0.00000000000E+00 -0.45593999997E+02  0.45594000000E+02  0.51100000000E-03 0.  1.
    9900012    2    1    2    0    0 -0.21820398048E+01  0.22504088091E+02 -0.33793049093E+02  0.50528862706E+02  0.30000008681E+02 0.  0.
         12    1    1    2    0    0  0.21820398048E+01 -0.22504088091E+02  0.33793049093E+02  0.40659137294E+02  0.00000000000E+00 0. -1.
         11    1    3    3    0    0  0.11411922841E+01  0.21946514589E+01 -0.60316332212E+01  0.65191574940E+01  0.51100000000E-03 0. -1.
        -11    1    3    3    0    0 -0.49174930524E+01  0.81626237995E+01 -0.30069331355E+02  0.31543221992E+02  0.51100000000E-03 0.  1.
         12    1    3    3    0    0  0.15942609635E+01  0.12146812832E+02  0.23079154835E+01  0.12466483220E+02  0.00000000000E+00 0. -1.
</event>
<event>
 7    1  0.4520156E-012  0.5052886E+02  0.7816164E-02  0.1300439E+00
        -11   -1    0    0    0    0  0.00000000000E+00  0.00000000000E+00  0.45593999997E+02  0.45594000000E+02  0.51100000000E-03 0. -1.
         11   -1    0    0    0    0 -0.00000000000E+00 -0.00000000000E+00 -0.45593999997E+02  0.45594000000E+02  0.51100000000E-03 0.  1.
    9900012    2    1    2    0    0  0.25616952296E+02  0.25420915541E+02  0.18727366314E+02  0.50528862762E+02  0.30000008852E+02 0.  0.
        -12    1    1    2    0    0 -0.25616952296E+02 -0.25420915541E+02 -0.18727366314E+02  0.40659137238E+02  0.00000000000E+00 0.  1.
         11    1    3    3    0    0  0.17739824772E+02  0.15876239088E+02  0.25105230055E+02  0.34598105828E+02  0.51100000000E-03 0.  1.
        -11    1    3    3    0    0  0.80291210864E+01  0.86455432378E+01 -0.26496961352E+01  0.12092687591E+02  0.51100000000E-03 0. -1.
        -12    1    3    3    0    0 -0.15199356228E+00  0.89913321518E+00 -0.37281676065E+01  0.38380693432E+01  0.00000000000E+00 0.  1.
</event>
<event>
 7    1  0.4520156E-012  0.5052887E+02  0.7816164E-02  0.1300439E+00
        -11   -1    0    0    0    0  0.00000000000E+00  0.00000000000E+00  0.45593999997E+02  0.45594000000E+02  0.51100000000E-03 0. -1.
         11   -1    0    0    0    0 -0.00000000000E+00 -0.00000000000E+00 -0.45593999997E+02  0.45594000000E+02  0.51100000000E-03 0.  1.
    9900012    2    1    2    0    0 -0.25887913760E+02 -0.18560284689E+02 -0.25268495799E+02  0.50528866628E+02  0.30000020602E+02 0.  0.
         12    1    1    2    0    0  0.25887913760E+02  0.18560284689E+02  0.25268495799E+02  0.40659133372E+02  0.00000000000E+00 0. -1.
         11    1    3    3    0    0 -0.82425544040E+01 -0.39157265221E+01 -0.62531827708E+01  0.11062319482E+02  0.51100000000E-03 0. -1.
        -11    1    3    3    0    0 -0.13234705565E+02 -0.17894835787E+02 -0.28999804441E+01  0.22445321697E+02  0.51100000000E-03 0.  1.
        -12    1    3    3    0    0 -0.44106537911E+01  0.32502776201E+01 -0.16115332584E+02  0.17021225449E+02  0.00000000000E+00 0.  1.
</event>
<event>
 7    1  0.4520156E-012  0.5052886E+02  0.7816164E-02  0.1300439E+00
        -11   -1    0    0    0    0  0.00000000000E+00  0.00000000000E+00  0.45593999997E+02  0.45594000000E+02  0.51100000000E-03 0. -1.
         11   -1    0    0    0    0 -0.00000000000E+00 -0.00000000000E+00 -0.45593999997E+02  0.45594000000E+02  0.51100000000E-03 0.  1.
    9900012    2    1    2    0    0  0.33343508399E+02  0.90035696339E+01 -0.21454877436E+02  0.50528860999E+02  0.30000003493E+02 0.  0.
         12    1    1    2    0    0 -0.33343508399E+02 -0.90035696339E+01  0.21454877436E+02  0.40659139001E+02  0.00000000000E+00 0. -1.
         11    1    3    3    0    0  0.18215326528E+02  0.76214196725E+01 -0.40727761923E+00  0.19749684394E+02  0.51100000000E-03 0.  1.
        -11    1    3    3    0    0  0.11250055894E+02  0.86639197500E+01 -0.13712490451E+02  0.19739798826E+02  0.51100000000E-03 0. -1.
         12    1    3    3    0    0  0.38781259766E+01 -0.72817697886E+01 -0.73351093656E+01  0.11039377779E+02  0.00000000000E+00 0. -1.
</event>
<event>
 7    1  0.4520156E-012  0.5052884E+02  0.7816164E-02  0.1300439E+00
        -11   -1    0    0    0    0  0.00000000000E+00  0.00000000000E+00  0.45593999997E+02  0.45594000000E+02  0.51100000000E-03 0. -1.
         11   -1    0    0    0    0 -0.00000000000E+00 -0.00000000000E+00 -0.45593999997E+02  0.45594000000E+02  0.51100000000E-03 0.  1.
    9900012    2    1    2    0    0  0.19490002722E+02  0.79059232935E+01  0.34796603866E+02  0.50528837812E+02  0.29999933014E+02 0.  0.
        -12    1    1    2    0    0 -0.19490002722E+02 -0.79059232935E+01 -0.34796603866E+02  0.40659162188E+02  0.00000000000E+00 0.  1.
         11    1    3    3    0    0 -0.27779646967E+01  0.52111504387E+01  0.11287869654E+02  0.12739276994E+02  0.51100000000E-03 0. -1.
        -11    1    3    3    0    0 -0.11607801345E+01  0.55983601475E+01  0.27129164193E+01  0.63284249715E+01  0.51100000000E-03 0.  1.
         12    1    3    3    0    0  0.23428747554E+02 -0.29035872926E+01  0.20795817792E+02  0.31461135846E+02  0.00000000000E+00 0. -1.
</event>
<event>
 7    1  0.4520156E-012  0.5052884E+02  0.7816164E-02  0.1300439E+00
        -11   -1    0    0    0    0  0.00000000000E+00  0.00000000000E+00  0.45593999997E+02  0.45594000000E+02  0.51100000000E-03 0. -1.
         11   -1    0    0    0    0 -0.00000000000E+00 -0.00000000000E+00 -0.45593999997E+02  0.45594000000E+02  0.51100000000E-03 0.  1.
    9900012    2    1    2    0    0  0.17159868304E+02  0.27249314874E+02  0.24822995133E+02  0.50528839547E+02  0.29999938288E+02 0.  0.
        -12    1    1    2    0    0 -0.17159868304E+02 -0.27249314874E+02 -0.24822995133E+02  0.40659160453E+02  0.00000000000E+00 0.  1.
         11    1    3    3    0    0  0.15888997002E+02  0.41577333266E+01  0.92528523186E+01  0.18851054305E+02  0.51100000000E-03 0. -1.
        -11    1    3    3    0    0  0.37650945018E+01  0.10697054066E+02  0.15283873001E+02  0.19031544248E+02  0.51100000000E-03 0.  1.
        -12    1    3    3    0    0 -0.24942231997E+01  0.12394527482E+02  0.28626981371E+00  0.12646240994E+02  0.00000000000E+00 0.  1.
</event>
<event>
 7    1  0.4520156E-012  0.5052885E+02  0.7816164E-02  0.1300439E+00
        -11   -1    0    0    0    0  0.00000000000E+00  0.00000000000E+00  0.45593999997E+02  0.45594000000E+02  0.51100000000E-03 0. -1.
         11   -1    0    0    0    0 -0.00000000000E+00 -0.00000000000E+00 -0.45593999997E+02  0.45594000000E+02  0.51100000000E-03 0.  1.
    9900012    2    1    2    0    0 -0.15061280419E+02  0.12718373035E+02 -0.35560750450E+02  0.50528854004E+02  0.29999982232E+02 0.  0.
         12    1    1    2    0    0  0.15061280419E+02 -0.12718373035E+02  0.35560750450E+02  0.40659145996E+02  0.00000000000E+00 0. -1.
         11    1    3    3    0    0 -0.10763442137E+02 -0.39071876668E+01 -0.31679887498E+01  0.11880822997E+02  0.51100000000E-03 0. -1.
        -11    1    3    3    0    0 -0.31102386482E+00  0.13372554074E+01 -0.15338855027E+02  0.15400177326E+02  0.51100000000E-03 0.  1.
        -12    1    3    3    0    0 -0.39868144170E+01  0.15288305295E+02 -0.17053906673E+02  0.23247853681E+02  0.00000000000E+00 0.  1.
</event>
<event>
 7    1  0.4520156E-012  0.5052887E+02  0.7816164E-02  0.1300439E+00
        -11   -1    0    0    0    0  0.00000000000E+00  0.00000000000E+00  0.45593999997E+02  0.45594000000E+02  0.51100000000E-03 0. -1.
         11   -1    0    0    0    0 -0.00000000000E+00 -0.00000000000E+00 -0.45593999997E+02  0.45594000000E+02  0.51100000000E-03 0.  1.
    9900012    2    1    2    0    0 -0.11162068452E+02 -0.92046966737E+01  0.37997977079E+02  0.50528874639E+02  0.30000044953E+02 0.  0.
        -12    1    1    2    0    0  0.11162068452E+02  0.92046966737E+01 -0.37997977079E+02  0.40659125361E+02  0.00000000000E+00 0.  1.
         11    1    3    3    0    0  0.56955033656E+01  0.36956660241E+00  0.10979459690E+02  0.12374323149E+02  0.51100000000E-03 0. -1.
        -11    1    3    3    0    0 -0.15629930598E+02  0.15852323730E+01  0.16046068179E+02  0.22456268534E+02  0.51100000000E-03 0.  1.
         12    1    3    3    0    0 -0.12276412195E+01 -0.11159495649E+02  0.10972449210E+02  0.15698282956E+02  0.00000000000E+00 0. -1.
</event>
<event>
 7    1  0.4520156E-012  0.5052886E+02  0.7816164E-02  0.1300439E+00
        -11   -1    0    0    0    0  0.00000000000E+00  0.00000000000E+00  0.45593999997E+02  0.45594000000E+02  0.51100000000E-03 0. -1.
         11   -1    0    0    0    0 -0.00000000000E+00 -0.00000000000E+00 -0.45593999997E+02  0.45594000000E+02  0.51100000000E-03 0.  1.
    9900012    2    1    2    0    0 -0.10635984963E+02  0.75045830261E+01 -0.38519118431E+02  0.50528862931E+02  0.30000009364E+02 0.  0.
         12    1    1    2    0    0  0.10635984963E+02 -0.75045830261E+01  0.38519118431E+02  0.40659137069E+02  0.00000000000E+00 0. -1.
         11    1    3    3    0    0 -0.10569542021E+01  0.24420459623E+01  0.23221806355E+01  0.35317508169E+01  0.51100000000E-03 0. -1.
        -11    1    3    3    0    0  0.31718112778E+01 -0.55493995552E+01 -0.14793380853E+02  0.16115220741E+02  0.51100000000E-03 0.  1.
        -12    1    3    3    0    0 -0.12750842039E+02  0.10611936619E+02 -0.26047918214E+02  0.30881891373E+02  0.00000000000E+00 0.  1.
</event>
<event>
 7    1  0.4520156E-012  0.5052886E+02  0.7816164E-02  0.1300439E+00
        -11   -1    0    0    0    0  0.00000000000E+00  0.00000000000E+00  0.45593999997E+02  0.45594000000E+02  0.51100000000E-03 0. -1.
         11   -1    0    0    0    0 -0.00000000000E+00 -0.00000000000E+00 -0.45593999997E+02  0.45594000000E+02  0.51100000000E-03 0.  1.
    9900012    2    1    2    0    0  0.14530483935E+02  0.76780178385E+01 -0.37189771888E+02  0.50528855218E+02  0.29999985921E+02 0.  0.
         12    1    1    2    0    0 -0.14530483935E+02 -0.76780178385E+01  0.37189771888E+02  0.40659144782E+02  0.00000000000E+00 0. -1.
         11    1    3    3    0    0 -0.98066281549E+00  0.10063529343E+01 -0.22805928871E+01  0.26787217033E+01  0.51100000000E-03 0. -1.
        -11    1    3    3    0    0  0.12202292747E+02  0.76014101446E+01 -0.39546185471E+02  0.42078238676E+02  0.51100000000E-03 0.  1.
         12    1    3    3    0    0  0.33088540036E+01 -0.92974524043E+00  0.46370064701E+01  0.57718948391E+01  0.00000000000E+00 0. -1.
</event>
<event>
 7    1  0.4520156E-012  0.5052887E+02  0.7816164E-02  0.1300439E+00
        -11   -1    0    0    0    0  0.00000000000E+00  0.00000000000E+00  0.45593999997E+02  0.45594000000E+02  0.51100000000E-03 0. -1.
         11   -1    0    0    0    0 -0.00000000000E+00 -0.00000000000E+00 -0.45593999997E+02  0.45594000000E+02  0.51100000000E-03 0.  1.
    9900012    2    1    2    0    0 -0.28357554736E+02  0.17018512411E+02  0.23651309481E+02  0.50528866765E+02  0.30000021019E+02 0.  0.
        -12    1    1    2    0    0  0.28357554736E+02 -0.17018512411E+02 -0.23651309481E+02  0.40659133235E+02  0.00000000000E+00 0.  1.
         11    1    3    3    0    0 -0.76073403133E+01  0.13831345900E+02  0.15027936951E+02  0.21794876584E+02  0.51100000000E-03 0. -1.
        -11    1    3    3    0    0  0.17915231068E+01  0.25118192295E+01  0.50254387950E+01  0.58969336293E+01  0.51100000000E-03 0.  1.
        -12    1    3    3    0    0 -0.22541737530E+02  0.67534728127E+00  0.35979337351E+01  0.22837056552E+02  0.00000000000E+00 0.  1.
</event>
<event>
 7    1  0.4520156E-012  0.5052881E+02  0.7816164E-02  0.1300439E+00
        -11   -1    0    0    0    0  0.00000000000E+00  0.00000000000E+00  0.45593999997E+02  0.45594000000E+02  0.51100000000E-03 0. -1.
         11   -1    0    0    0    0 -0.00000000000E+00 -0.00000000000E+00 -0.45593999997E+02  0.45594000000E+02  0.51100000000E-03 0.  1.
    9900012    2    1    2    0    0  0.98588487080E+01 -0.78768166720E+01  0.38651374714E+02  0.50528807853E+02  0.29999841949E+02 0.  0.
        -12    1    1    2    0    0 -0.98588487080E+01  0.78768166720E+01 -0.38651374714E+02  0.40659192147E+02  0.00000000000E+00 0.  1.
         11    1    3    3    0    0  0.89179629800E+01 -0.14745644014E+01  0.26823055991E+02  0.28305136227E+02  0.51100000000E-03 0. -1.
        -11    1    3    3    0    0 -0.36681534923E+01  0.51761926969E+01  0.36820984746E+01  0.73352689328E+01  0.51100000000E-03 0.  1.
        -12    1    3    3    0    0  0.46090392203E+01 -0.11578444968E+02  0.81462202490E+01  0.14888402693E+02  0.00000000000E+00 0.  1.
</event>
<event>
 7    1  0.7660925E-012  0.5052886E+02  0.7816164E-02  0.1300439E+00
        -11   -1    0    0    0    0  0.00000000000E+00  0.00000000000E+00  0.45593999997E+02  0.45594000000E+02  0.51100000000E-03 0. -1.
         11   -1    0    0    0    0 -0.00000000000E+00 -0.00000000000E+00 -0.45593999997E+02  0.45594000000E+02  0.51100000000E-03 0.  1.
    9900012    2    1    2    0    0 -0.16932441183E+02 -0.45871354168E+01  0.36679919057E+02  0.50528857882E+02  0.29999994019E+02 0.  0.
        -12    1    1    2    0    0  0.16932441183E+02  0.45871354168E+01 -0.36679919057E+02  0.40659142118E+02  0.00000000000E+00 0.  1.
         11    1    3    3    0    0 -0.35526264737E+01  0.22060808814E+01  0.18345753803E+02  0.18816339457E+02  0.51100000000E-03 0. -1.
        -11    1    3    3    0    0 -0.86631337907E+01  0.68693233648E+01  0.10613474417E+02  0.15325903890E+02  0.51100000000E-03 0.  1.
         12    1    3    3    0    0 -0.47166809187E+01 -0.13662539663E+02  0.77206908363E+01  0.16386614535E+02  0.00000000000E+00 0. -1.
</event>
<event>
 7    1  0.4520156E-012  0.5052886E+02  0.7816164E-02  0.1300439E+00
        -11   -1    0    0    0    0  0.00000000000E+00  0.00000000000E+00  0.45593999997E+02  0.45594000000E+02  0.51100000000E-03 0. -1.
         11   -1    0    0    0    0 -0.00000000000E+00 -0.00000000000E+00 -0.45593999997E+02  0.45594000000E+02  0.51100000000E-03 0.  1.
    9900012    2    1    2    0    0 -0.64545704491E+01  0.34292459998E+02 -0.20869395377E+02  0.50528856431E+02  0.29999989607E+02 0.  0.
         12    1    1    2    0    0  0.64545704491E+01 -0.34292459998E+02  0.20869395377E+02  0.40659143569E+02  0.00000000000E+00 0. -1.
         11    1    3    3    0    0 -0.14521830719E+01 -0.11736710570E+01  0.19840795293E+01  0.27245020213E+01  0.51100000000E-03 0. -1.
        -11    1    3    3    0    0 -0.89399451186E+01  0.16444878229E+02 -0.21243376306E+02  0.28313206739E+02  0.51100000000E-03 0.  1.
        -12    1    3    3    0    0  0.39375577414E+01  0.19021252826E+02 -0.16100986005E+01  0.19491147671E+02  0.00000000000E+00 0.  1.
</event>
<event>
 7    1  0.4520156E-012  0.5052886E+02  0.7816164E-02  0.1300439E+00
        -11   -1    0    0    0    0  0.00000000000E+00  0.00000000000E+00  0.45593999997E+02  0.45594000000E+02  0.51100000000E-03 0. -1.
         11   -1    0    0    0    0 -0.00000000000E+00 -0.00000000000E+00 -0.45593999997E+02  0.45594000000E+02  0.51100000000E-03 0.  1.
    9900012    2    1    2    0    0  0.11016823558E+02 -0.15595859744E+01 -0.39107073138E+02  0.50528857373E+02  0.29999992470E+02 0.  0.
         12    1    1    2    0    0 -0.11016823558E+02  0.15595859744E+01  0.39107073138E+02  0.40659142627E+02  0.00000000000E+00 0. -1.
         11    1    3    3    0    0 -0.63029604254E+01  0.70828320256E+01 -0.12158377225E+02  0.15418169691E+02  0.51100000000E-03 0. -1.
        -11    1    3    3    0    0  0.37958430269E+01  0.79731763129E-01 -0.13850168557E+02  0.14361126375E+02  0.51100000000E-03 0.  1.
        -12    1    3    3    0    0  0.13523940957E+02 -0.87221497632E+01 -0.13098527357E+02  0.20749561307E+02  0.00000000000E+00 0.  1.
</event>
<event>
 7    1  0.4520156E-012  0.5052886E+02  0.7816164E-02  0.1300439E+00
        -11   -1    0    0    0    0  0.00000000000E+00  0.00000000000E+00  0.45593999997E+02  0.45594000000E+02  0.51100000000E-03 0. -1.
         11   -1    0    0    0    0 -0.00000000000E+00 -0.00000000000E+00 -0.45593999997E+02  0.45594000000E+02  0.51100000000E-03 0.  1.
    9900012    2    1    2    0    0  0.10153119316E+02 -0.30890579996E+02 -0.24410080960E+02  0.50528858140E+02  0.29999994802E+02 0.  0.
         12    1    1    2    0    0 -0.10153119316E+02  0.30890579996E+02  0.24410080960E+02  0.40659141860E+02  0.00000000000E+00 0. -1.
         11    1    3    3    0    0  0.48700238655E+01 -0.16171615668E+02  0.26017137405E+01  0.17088218175E+02  0.51100000000E-03 0. -1.
        -11    1    3    3    0    0  0.62300772350E+01 -0.16517284211E+02 -0.23645414575E+02  0.29508306809E+02  0.51100000000E-03 0.  1.
        -12    1    3    3    0    0 -0.94698178456E+00  0.17983198821E+01 -0.33663801249E+01  0.39323331553E+01  0.00000000000E+00 0.  1.
</event>
<event>
 7    1  0.4520156E-012  0.5052886E+02  0.7816164E-02  0.1300439E+00
        -11   -1    0    0    0    0  0.00000000000E+00  0.00000000000E+00  0.45593999997E+02  0.45594000000E+02  0.51100000000E-03 0. -1.
         11   -1    0    0    0    0 -0.00000000000E+00 -0.00000000000E+00 -0.45593999997E+02  0.45594000000E+02  0.51100000000E-03 0.  1.
    9900012    2    1    2    0    0 -0.11275752471E+02 -0.88697154849E+01 -0.38044064900E+02  0.50528864241E+02  0.30000013346E+02 0.  0.
         12    1    1    2    0    0  0.11275752471E+02  0.88697154849E+01  0.38044064900E+02  0.40659135759E+02  0.00000000000E+00 0. -1.
         11    1    3    3    0    0  0.14283488541E+01  0.22430117208E+01 -0.89133729691E+00  0.28045970239E+01  0.51100000000E-03 0. -1.
        -11    1    3    3    0    0 -0.91292118868E+01  0.63976977711E+01 -0.20301912625E+02  0.23161189584E+02  0.51100000000E-03 0.  1.
         12    1    3    3    0    0 -0.35748894379E+01 -0.17510424977E+02 -0.16850814979E+02  0.24563077633E+02  0.00000000000E+00 0. -1.
</event>
<event>
 7    1  0.4520156E-012  0.5052886E+02  0.7816164E-02  0.1300439E+00
        -11   -1    0    0    0    0  0.00000000000E+00  0.00000000000E+00  0.45593999997E+02  0.45594000000E+02  0.51100000000E-03 0. -1.
         11   -1    0    0    0    0 -0.00000000000E+00 -0.00000000000E+00 -0.45593999997E+02  0.45594000000E+02  0.51100000000E-03 0.  1.
    9900012    2    1    2    0    0  0.23767764079E+02 -0.44666754507E+01  0.32684985366E+02  0.50528855060E+02  0.29999985439E+02 0.  0.
        -12    1    1    2    0    0 -0.23767764079E+02  0.44666754507E+01 -0.32684985366E+02  0.40659144940E+02  0.00000000000E+00 0.  1.
         11    1    3    3    0    0  0.12435511512E+02 -0.10292097114E+02  0.22174296811E+02  0.27427516273E+02  0.51100000000E-03 0. -1.
        -11    1    3    3    0    0 -0.20324003840E+01  0.45858806854E+01  0.80060515111E+01  0.94476353678E+01  0.51100000000E-03 0.  1.
        -12    1    3    3    0    0  0.13364652951E+02  0.12395409779E+01  0.25046370444E+01  0.13653703419E+02  0.00000000000E+00 0.  1.
</event>
<event>
 7    1  0.4520156E-012  0.5052887E+02  0.7816164E-02  0.1300439E+00
        -11   -1    0    0    0    0  0.00000000000E+00  0.00000000000E+00  0.45593999997E+02  0.45594000000E+02  0.51100000000E-03 0.  1.
         11   -1    0    0    0    0 -0.00000000000E+00 -0.00000000000E+00 -0.45593999997E+02  0.45594000000E+02  0.51100000000E-03 0. -1.
    9900012    2    1    2    0    0  0.35124967206E+02 -0.20303359165E+02 -0.26786235055E+01  0.50528871400E+02  0.30000035109E+02 0.  0.
        -12    1    1    2    0    0 -0.35124967206E+02  0.20303359165E+02  0.26786235055E+01  0.40659128600E+02  0.00000000000E+00 0.  1.
         11    1    3    3    0    0  0.29367375535E+01 -0.12743062113E+02 -0.99618386520E+01  0.16439230185E+02  0.51100000000E-03 0. -1.
        -11    1    3    3    0    0  0.65749157897E+00 -0.65163395876E+00 -0.21742558836E+00  0.95089228634E+00  0.51100000000E-03 0.  1.
        -12    1    3    3    0    0  0.31530738073E+02 -0.69086630934E+01  0.75006407349E+01  0.33138748929E+02  0.00000000000E+00 0.  1.
</event>
<event>
 7    1  0.4520156E-012  0.5052886E+02  0.7816164E-02  0.1300439E+00
        -11   -1    0    0    0    0  0.00000000000E+00  0.00000000000E+00  0.45593999997E+02  0.45594000000E+02  0.51100000000E-03 0. -1.
         11   -1    0    0    0    0 -0.00000000000E+00 -0.00000000000E+00 -0.45593999997E+02  0.45594000000E+02  0.51100000000E-03 0.  1.
    9900012    2    1    2    0    0 -0.14496385043E+02  0.88168044897E+01  0.36949760976E+02  0.50528855187E+02  0.29999985828E+02 0.  0.
        -12    1    1    2    0    0  0.14496385043E+02 -0.88168044897E+01 -0.36949760976E+02  0.40659144813E+02  0.00000000000E+00 0.  1.
         11    1    3    3    0    0  0.63292314029E+01  0.44919113765E+01  0.20834983516E+02  0.22233600166E+02  0.51100000000E-03 0. -1.
        -11    1    3    3    0    0 -0.44601152191E+01  0.51419037219E+01  0.37821331744E+01  0.77869334955E+01  0.51100000000E-03 0.  1.
        -12    1    3    3    0    0 -0.16365501227E+02 -0.81701060875E+00  0.12332644285E+02  0.20508321526E+02  0.00000000000E+00 0.  1.
</event>
<event>
 7    1  0.4520156E-012  0.5052886E+02  0.7816164E-02  0.1300439E+00
        -11   -1    0    0    0    0  0.00000000000E+00  0.00000000000E+00  0.45593999997E+02  0.45594000000E+02  0.51100000000E-03 0. -1.
         11   -1    0    0    0    0 -0.00000000000E+00 -0.00000000000E+00 -0.45593999997E+02  0.45594000000E+02  0.51100000000E-03 0.  1.
    9900012    2    1    2    0    0 -0.94628648279E+01 -0.30065734436E+02  0.25684075101E+02  0.50528856973E+02  0.29999991254E+02 0.  0.
        -12    1    1    2    0    0  0.94628648279E+01  0.30065734436E+02 -0.25684075101E+02  0.40659143027E+02  0.00000000000E+00 0.  1.
         11    1    3    3    0    0 -0.55116135339E+01 -0.15025705807E+02  0.20835729438E+02  0.26273129624E+02  0.51100000000E-03 0. -1.
        -11    1    3    3    0    0 -0.38659710012E+01 -0.18304410770E+02  0.36824835047E+00  0.18711835627E+02  0.51100000000E-03 0.  1.
         12    1    3    3    0    0 -0.85280292792E-01  0.32643821413E+01  0.44800973120E+01  0.55438917213E+01  0.00000000000E+00 0. -1.
</event>
<event>
 7    1  0.4520156E-012  0.5052884E+02  0.7816164E-02  0.1300439E+00
        -11   -1    0    0    0    0  0.00000000000E+00  0.00000000000E+00  0.45593999997E+02  0.45594000000E+02  0.51100000000E-03 0. -1.
         11   -1    0    0    0    0 -0.00000000000E+00 -0.00000000000E+00 -0.45593999997E+02  0.45594000000E+02  0.51100000000E-03 0.  1.
    9900012    2    1    2    0    0  0.18815805261E+02  0.83837715572E+00 -0.36033727882E+02  0.50528844217E+02  0.29999952483E+02 0.  0.
         12    1    1    2    0    0 -0.18815805261E+02 -0.83837715572E+00  0.36033727882E+02  0.40659155783E+02  0.00000000000E+00 0. -1.
         11    1    3    3    0    0  0.47186249686E+01  0.27032382331E+01 -0.31538605917E+01  0.62864740064E+01  0.51100000000E-03 0. -1.
        -11    1    3    3    0    0  0.97243357905E+01 -0.42855895671E+01  0.35601309688E+00  0.10632766813E+02  0.51100000000E-03 0.  1.
         12    1    3    3    0    0  0.43728445017E+01  0.24207284897E+01 -0.33235880388E+02  0.33609603398E+02  0.00000000000E+00 0. -1.
</event>
<event>
 7    1  0.4520156E-012  0.5052884E+02  0.7816164E-02  0.1300439E+00
        -11   -1    0    0    0    0  0.00000000000E+00  0.00000000000E+00  0.45593999997E+02  0.45594000000E+02  0.51100000000E-03 0. -1.
         11   -1    0    0    0    0 -0.00000000000E+00 -0.00000000000E+00 -0.45593999997E+02  0.45594000000E+02  0.51100000000E-03 0.  1.
    9900012    2    1    2    0    0 -0.27733906720E+02  0.19123519914E+02 -0.22765962691E+02  0.50528835558E+02  0.29999926162E+02 0.  0.
         12    1    1    2    0    0  0.27733906720E+02 -0.19123519914E+02  0.22765962691E+02  0.40659164442E+02  0.00000000000E+00 0. -1.
         11    1    3    3    0    0 -0.43202367612E+01 -0.41124910770E+01 -0.92829790589E+01  0.11034071279E+02  0.51100000000E-03 0. -1.
        -11    1    3    3    0    0 -0.17422210227E+02  0.82565487215E+01 -0.13188267845E+02  0.23358818784E+02  0.51100000000E-03 0.  1.
        -12    1    3    3    0    0 -0.59914597318E+01  0.14979462270E+02 -0.29471578764E+00  0.16135945495E+02  0.00000000000E+00 0.  1.
</event>
<event>
 7    1  0.4520156E-012  0.5052887E+02  0.7816164E-02  0.1300439E+00
        -11   -1    0    0    0    0  0.00000000000E+00  0.00000000000E+00  0.45593999997E+02  0.45594000000E+02  0.51100000000E-03 0. -1.
         11   -1    0    0    0    0 -0.00000000000E+00 -0.00000000000E+00 -0.45593999997E+02  0.45594000000E+02  0.51100000000E-03 0.  1.
    9900012    2    1    2    0    0 -0.10283994735E+02 -0.38368767653E+02 -0.86742231000E+01  0.50528867873E+02  0.30000024387E+02 0.  0.
         12    1    1    2    0    0  0.10283994735E+02  0.38368767653E+02  0.86742231000E+01  0.40659132127E+02  0.00000000000E+00 0. -1.
         11    1    3    3    0    0 -0.82062532047E+01 -0.33014579009E+01 -0.37174310254E+01  0.95948689215E+01  0.51100000000E-03 0.  1.
        -11    1    3    3    0    0 -0.62640281775E+01 -0.16612683898E+01  0.15029266865E+01  0.66525672156E+01  0.51100000000E-03 0. -1.
        -12    1    3    3    0    0  0.41862866470E+01 -0.33406041362E+02 -0.64597187611E+01  0.34281431736E+02  0.00000000000E+00 0.  1.
</event>
<event>
 7    1  0.4520156E-012  0.5052887E+02  0.7816164E-02  0.1300439E+00
        -11   -1    0    0    0    0  0.00000000000E+00  0.00000000000E+00  0.45593999997E+02  0.45594000000E+02  0.51100000000E-03 0. -1.
         11   -1    0    0    0    0 -0.00000000000E+00 -0.00000000000E+00 -0.45593999997E+02  0.45594000000E+02  0.51100000000E-03 0.  1.
    9900012    2    1    2    0    0  0.87988542087E+01  0.10473332730E+02 -0.38289092323E+02  0.50528866650E+02  0.30000020670E+02 0.  0.
         12    1    1    2    0    0 -0.87988542087E+01 -0.10473332730E+02  0.38289092323E+02  0.40659133350E+02  0.00000000000E+00 0. -1.
         11    1    3    3    0    0 -0.16145787536E+00 -0.89599994120E+01 -0.69835204922E+01  0.11361215465E+02  0.51100000000E-03 0. -1.
        -11    1    3    3    0    0  0.18677353728E+01  0.59209687726E+01 -0.17574308189E+02  0.18638739636E+02  0.51100000000E-03 0.  1.
        -12    1    3    3    0    0  0.70925767113E+01  0.13512363369E+02 -0.13731263641E+02  0.20528911550E+02  0.00000000000E+00 0.  1.
</event>
<event>
 7    1  0.4520156E-012  0.5052884E+02  0.7816164E-02  0.1300439E+00
        -11   -1    0    0    0    0  0.00000000000E+00  0.00000000000E+00  0.45593999997E+02  0.45594000000E+02  0.51100000000E-03 0. -1.
         11   -1    0    0    0    0 -0.00000000000E+00 -0.00000000000E+00 -0.45593999997E+02  0.45594000000E+02  0.51100000000E-03 0.  1.
    9900012    2    1    2    0    0  0.38483626905E+02  0.91250317513E+01 -0.94292777338E+01  0.50528843309E+02  0.29999949722E+02 0.  0.
        -12    1    1    2    0    0 -0.38483626905E+02 -0.91250317513E+01  0.94292777338E+01  0.40659156691E+02  0.00000000000E+00 0.  1.
         11    1    3    3    0    0  0.35745799383E+01  0.97448429461E+00  0.79031200631E+01  0.87284906122E+01  0.51100000000E-03 0. -1.
        -11    1    3    3    0    0  0.23992750801E+01 -0.26666824208E+01 -0.29399689765E+01  0.46380096903E+01  0.51100000000E-03 0.  1.
         12    1    3    3    0    0  0.32509771887E+02  0.10817229878E+02 -0.14392428820E+02  0.37162343006E+02  0.00000000000E+00 0. -1.
</event>
<event>
 7    1  0.4520156E-012  0.5052885E+02  0.7816164E-02  0.1300439E+00
        -11   -1    0    0    0    0  0.00000000000E+00  0.00000000000E+00  0.45593999997E+02  0.45594000000E+02  0.51100000000E-03 0. -1.
         11   -1    0    0    0    0 -0.00000000000E+00 -0.00000000000E+00 -0.45593999997E+02  0.45594000000E+02  0.51100000000E-03 0.  1.
    9900012    2    1    2    0    0 -0.25853014557E+01  0.44059763406E+01 -0.40336951984E+02  0.50528854578E+02  0.29999983974E+02 0.  0.
         12    1    1    2    0    0  0.25853014557E+01 -0.44059763406E+01  0.40336951984E+02  0.40659145422E+02  0.00000000000E+00 0. -1.
         11    1    3    3    0    0 -0.39753771084E+01  0.35347985879E+01 -0.20996743097E+01  0.57190083650E+01  0.51100000000E-03 0. -1.
        -11    1    3    3    0    0 -0.81614901932E+01 -0.17916906325E+01 -0.41890083166E+01  0.93470780693E+01  0.51100000000E-03 0.  1.
        -12    1    3    3    0    0  0.95515658458E+01  0.26628683852E+01 -0.34048269358E+02  0.35462768143E+02  0.00000000000E+00 0.  1.
</event>
<event>
 7    1  0.4520156E-012  0.5052886E+02  0.7816164E-02  0.1300439E+00
        -11   -1    0    0    0    0  0.00000000000E+00  0.00000000000E+00  0.45593999997E+02  0.45594000000E+02  0.51100000000E-03 0. -1.
         11   -1    0    0    0    0 -0.00000000000E+00 -0.00000000000E+00 -0.45593999997E+02  0.45594000000E+02  0.51100000000E-03 0.  1.
    9900012    2    1    2    0    0 -0.18796511672E+02 -0.21443655394E+02 -0.28983207298E+02  0.50528861876E+02  0.30000006159E+02 0.  0.
         12    1    1    2    0    0  0.18796511672E+02  0.21443655394E+02  0.28983207298E+02  0.40659138124E+02  0.00000000000E+00 0. -1.
         11    1    3    3    0    0 -0.43956252608E+01 -0.48834707428E+01  0.23330077007E+01  0.69722832072E+01  0.51100000000E-03 0. -1.
        -11    1    3    3    0    0  0.46945552421E+01 -0.66843100402E+01 -0.12797674179E+02  0.15182203868E+02  0.51100000000E-03 0.  1.
        -12    1    3    3    0    0 -0.19095441653E+02 -0.98758746106E+01 -0.18518540820E+02  0.28374374801E+02  0.00000000000E+00 0.  1.
</event>
<event>
 7    1  0.4520156E-012  0.5052885E+02  0.7816164E-02  0.1300439E+00
        -11   -1    0    0    0    0  0.00000000000E+00  0.00000000000E+00  0.45593999997E+02  0.45594000000E+02  0.51100000000E-03 0.  1.
         11   -1    0    0    0    0 -0.00000000000E+00 -0.00000000000E+00 -0.45593999997E+02  0.45594000000E+02  0.51100000000E-03 0. -1.
    9900012    2    1    2    0    0 -0.11506503077E+02 -0.24908917608E+02 -0.30005205375E+02  0.50528854177E+02  0.29999982757E+02 0.  0.
         12    1    1    2    0    0  0.11506503077E+02  0.24908917608E+02  0.30005205375E+02  0.40659145823E+02  0.00000000000E+00 0. -1.
         11    1    3    3    0    0 -0.28294616278E+01 -0.48462892220E+01 -0.44837375597E+01  0.71830547186E+01  0.51100000000E-03 0. -1.
        -11    1    3    3    0    0 -0.33901055664E+01 -0.11698276086E+02  0.35092125927E+01  0.12675056309E+02  0.51100000000E-03 0.  1.
         12    1    3    3    0    0 -0.52869358830E+01 -0.83643522998E+01 -0.29030680408E+02  0.30670743150E+02  0.00000000000E+00 0. -1.
</event>
<event>
 7    1  0.4520156E-012  0.5052886E+02  0.7816164E-02  0.1300439E+00
        -11   -1    0    0    0    0  0.00000000000E+00  0.00000000000E+00  0.45593999997E+02  0.45594000000E+02  0.51100000000E-03 0.  1.
         11   -1    0    0    0    0 -0.00000000000E+00 -0.00000000000E+00 -0.45593999997E+02  0.45594000000E+02  0.51100000000E-03 0. -1.
    9900012    2    1    2    0    0  0.36775570156E+02 -0.14996663108E+02 -0.87076588811E+01  0.50528858496E+02  0.29999995883E+02 0.  0.
        -12    1    1    2    0    0 -0.36775570156E+02  0.14996663108E+02  0.87076588811E+01  0.40659141504E+02  0.00000000000E+00 0.  1.
         11    1    3    3    0    0  0.18071967763E+02  0.59277308268E+01 -0.14175320158E+01  0.19072058328E+02  0.51100000000E-03 0. -1.
        -11    1    3    3    0    0  0.17024430014E+02 -0.11621833462E+02 -0.76763605393E+01  0.21996016497E+02  0.51100000000E-03 0.  1.
        -12    1    3    3    0    0  0.16791723788E+01 -0.93025604724E+01  0.38623367396E+00  0.94607836711E+01  0.00000000000E+00 0.  1.
</event>
<event>
 7    1  0.4520156E-012  0.5052880E+02  0.7816164E-02  0.1300439E+00
        -11   -1    0    0    0    0  0.00000000000E+00  0.00000000000E+00  0.45593999997E+02  0.45594000000E+02  0.51100000000E-03 0. -1.
         11   -1    0    0    0    0 -0.00000000000E+00 -0.00000000000E+00 -0.45593999997E+02  0.45594000000E+02  0.51100000000E-03 0.  1.
    9900012    2    1    2    0    0 -0.14268286217E+02  0.11739916102E+02  0.36218238556E+02  0.50528801462E+02  0.29999822522E+02 0.  0.
        -12    1    1    2    0    0  0.14268286217E+02 -0.11739916102E+02 -0.36218238556E+02  0.40659198538E+02  0.00000000000E+00 0.  1.
         11    1    3    3    0    0 -0.78214243388E+01  0.94759526976E+01  0.21658592624E+02  0.24901064092E+02  0.51100000000E-03 0. -1.
        -11    1    3    3    0    0 -0.60489994905E+01  0.10888552505E+02  0.86862050462E+01  0.15185556587E+02  0.51100000000E-03 0.  1.
        -12    1    3    3    0    0 -0.39786238795E+00 -0.86245891009E+01  0.58734408860E+01  0.10442180782E+02  0.00000000000E+00 0.  1.
</event>
<event>
 7    1  0.4520156E-012  0.5052886E+02  0.7816164E-02  0.1300439E+00
        -11   -1    0    0    0    0  0.00000000000E+00  0.00000000000E+00  0.45593999997E+02  0.45594000000E+02  0.51100000000E-03 0. -1.
         11   -1    0    0    0    0 -0.00000000000E+00 -0.00000000000E+00 -0.45593999997E+02  0.45594000000E+02  0.51100000000E-03 0.  1.
    9900012    2    1    2    0    0  0.16027289669E+02 -0.12352719297E+02 -0.35266164000E+02  0.50528855746E+02  0.29999987527E+02 0.  0.
         12    1    1    2    0    0 -0.16027289669E+02  0.12352719297E+02  0.35266164000E+02  0.40659144254E+02  0.00000000000E+00 0. -1.
         11    1    3    3    0    0  0.53983346834E-02 -0.35003148269E+01  0.17034308382E+01  0.38928023211E+01  0.51100000000E-03 0. -1.
        -11    1    3    3    0    0  0.17261977088E+02 -0.65760101702E+01 -0.13147313955E+02  0.22673147714E+02  0.51100000000E-03 0.  1.
        -12    1    3    3    0    0 -0.12400857535E+01 -0.22763943000E+01 -0.23822280883E+02  0.23962905712E+02  0.00000000000E+00 0.  1.
</event>
<event>
 7    1  0.4520156E-012  0.5052886E+02  0.7816164E-02  0.1300439E+00
        -11   -1    0    0    0    0  0.00000000000E+00  0.00000000000E+00  0.45593999997E+02  0.45594000000E+02  0.51100000000E-03 0. -1.
         11   -1    0    0    0    0 -0.00000000000E+00 -0.00000000000E+00 -0.45593999997E+02  0.45594000000E+02  0.51100000000E-03 0.  1.
    9900012    2    1    2    0    0 -0.28353191829E+02 -0.28145569120E+02  0.75557535678E+01  0.50528856379E+02  0.29999989451E+02 0.  0.
         12    1    1    2    0    0  0.28353191829E+02  0.28145569120E+02 -0.75557535678E+01  0.40659143621E+02  0.00000000000E+00 0. -1.
         11    1    3    3    0    0 -0.19080372171E+01  0.15634499196E+01 -0.24300565618E+01  0.34626805841E+01  0.51100000000E-03 0. -1.
        -11    1    3    3    0    0 -0.11857798720E+02 -0.10862821333E+01 -0.32154874870E+01  0.12333967707E+02  0.51100000000E-03 0.  1.
        -12    1    3    3    0    0 -0.14587355892E+02 -0.28622736907E+02  0.13201297617E+02  0.34732208089E+02  0.00000000000E+00 0.  1.
</event>
<event>
 7    1  0.4520156E-012  0.5052885E+02  0.7816164E-02  0.1300439E+00
        -11   -1    0    0    0    0  0.00000000000E+00  0.00000000000E+00  0.45593999997E+02  0.45594000000E+02  0.51100000000E-03 0. -1.
         11   -1    0    0    0    0 -0.00000000000E+00 -0.00000000000E+00 -0.45593999997E+02  0.45594000000E+02  0.51100000000E-03 0.  1.
    9900012    2    1    2    0    0  0.18117240607E+02 -0.11247523968E+01  0.36382233241E+02  0.50528851328E+02  0.29999974096E+02 0.  0.
        -12    1    1    2    0    0 -0.18117240607E+02  0.11247523968E+01 -0.36382233241E+02  0.40659148672E+02  0.00000000000E+00 0.  1.
         11    1    3    3    0    0  0.45771732427E+01  0.23183026254E+01  0.94856990485E+01  0.10784411373E+02  0.51100000000E-03 0. -1.
        -11    1    3    3    0    0  0.26260636176E+01  0.29732111759E+01  0.26791589531E+02  0.27083675243E+02  0.51100000000E-03 0.  1.
        -12    1    3    3    0    0  0.10914003746E+02 -0.64162661982E+01  0.10494466140E+00  0.12660764712E+02  0.00000000000E+00 0.  1.
</event>
<event>
 7    1  0.4533945E-012  0.5052887E+02  0.7816164E-02  0.1300439E+00
        -11   -1    0    0    0    0  0.00000000000E+00  0.00000000000E+00  0.45593999997E+02  0.45594000000E+02  0.51100000000E-03 0. -1.
         11   -1    0    0    0    0 -0.00000000000E+00 -0.00000000000E+00 -0.45593999997E+02  0.45594000000E+02  0.51100000000E-03 0.  1.
    9900012    2    1    2    0    0 -0.63910489209E+01 -0.13450717277E+02  0.37833810862E+02  0.50528873768E+02  0.30000042307E+02 0.  0.
        -12    1    1    2    0    0  0.63910489209E+01  0.13450717277E+02 -0.37833810862E+02  0.40659126232E+02  0.00000000000E+00 0.  1.
         11    1    3    3    0    0  0.41067449712E+01 -0.87014227915E+01  0.95638677809E+01  0.13566417362E+02  0.51100000000E-03 0. -1.
        -11    1    3    3    0    0 -0.32140117684E+01 -0.96275862230E+01  0.35806148800E+01  0.10762949935E+02  0.51100000000E-03 0.  1.
         12    1    3    3    0    0 -0.72837821237E+01  0.48782917377E+01  0.24689328201E+02  0.26199506471E+02  0.00000000000E+00 0. -1.
</event>
<event>
 7    1  0.4520156E-012  0.5052885E+02  0.7816164E-02  0.1300439E+00
        -11   -1    0    0    0    0  0.00000000000E+00  0.00000000000E+00  0.45593999997E+02  0.45594000000E+02  0.51100000000E-03 0. -1.
         11   -1    0    0    0    0 -0.00000000000E+00 -0.00000000000E+00 -0.45593999997E+02  0.45594000000E+02  0.51100000000E-03 0.  1.
    9900012    2    1    2    0    0  0.21776604739E+02 -0.18436462717E+02  0.28966230033E+02  0.50528853996E+02  0.29999982205E+02 0.  0.
        -12    1    1    2    0    0 -0.21776604739E+02  0.18436462717E+02 -0.28966230033E+02  0.40659146004E+02  0.00000000000E+00 0.  1.
         11    1    3    3    0    0  0.16968092726E+02  0.15423071012E+00  0.12322255503E+02  0.20970883119E+02  0.51100000000E-03 0. -1.
        -11    1    3    3    0    0  0.30014527332E+01  0.12639241621E+01 -0.46094241929E+00  0.32891778566E+01  0.51100000000E-03 0.  1.
         12    1    3    3    0    0  0.18070592795E+01 -0.19854617590E+02  0.17104916950E+02  0.26268793020E+02  0.00000000000E+00 0. -1.
</event>
<event>
 7    1  0.4520156E-012  0.5052887E+02  0.7816164E-02  0.1300439E+00
        -11   -1    0    0    0    0  0.00000000000E+00  0.00000000000E+00  0.45593999997E+02  0.45594000000E+02  0.51100000000E-03 0. -1.
         11   -1    0    0    0    0 -0.00000000000E+00 -0.00000000000E+00 -0.45593999997E+02  0.45594000000E+02  0.51100000000E-03 0.  1.
    9900012    2    1    2    0    0 -0.22894938606E+02  0.29698631162E+02 -0.15715537651E+02  0.50528867811E+02  0.30000024199E+02 0.  0.
         12    1    1    2    0    0  0.22894938606E+02 -0.29698631162E+02  0.15715537651E+02  0.40659132189E+02  0.00000000000E+00 0. -1.
         11    1    3    3    0    0 -0.38837543067E+01 -0.12979894383E+01 -0.53560618979E+01  0.67420859837E+01  0.51100000000E-03 0. -1.
        -11    1    3    3    0    0 -0.14410791304E+01  0.68399196389E-01  0.48802812251E+01  0.50890600907E+01  0.51100000000E-03 0.  1.
        -12    1    3    3    0    0 -0.17570105168E+02  0.30928221404E+02 -0.15239756979E+02  0.38697721737E+02  0.00000000000E+00 0.  1.
</event>
<event>
 7    1  0.4520156E-012  0.5052889E+02  0.7816164E-02  0.1300439E+00
        -11   -1    0    0    0    0  0.00000000000E+00  0.00000000000E+00  0.45593999997E+02  0.45594000000E+02  0.51100000000E-03 0. -1.
         11   -1    0    0    0    0 -0.00000000000E+00 -0.00000000000E+00 -0.45593999997E+02  0.45594000000E+02  0.51100000000E-03 0.  1.
    9900012    2    1    2    0    0  0.23583453690E+02 -0.24899661113E+02 -0.21840124069E+02  0.50528887481E+02  0.30000083987E+02 0.  0.
         12    1    1    2    0    0 -0.23583453690E+02  0.24899661113E+02  0.21840124069E+02  0.40659112519E+02  0.00000000000E+00 0. -1.
         11    1    3    3    0    0 -0.51389448258E+00 -0.86951097211E+01 -0.11651094823E+02  0.14547062639E+02  0.51100000000E-03 0. -1.
        -11    1    3    3    0    0  0.11247941586E+02 -0.18131063666E+02 -0.45420739782E+01  0.21814721999E+02  0.51100000000E-03 0.  1.
         12    1    3    3    0    0  0.12849406586E+02  0.19265122742E+01 -0.56469552682E+01  0.14167102843E+02  0.00000000000E+00 0. -1.
</event>
<event>
 7    1  0.4520156E-012  0.5052886E+02  0.7816164E-02  0.1300439E+00
        -11   -1    0    0    0    0  0.00000000000E+00  0.00000000000E+00  0.45593999997E+02  0.45594000000E+02  0.51100000000E-03 0. -1.
         11   -1    0    0    0    0 -0.00000000000E+00 -0.00000000000E+00 -0.45593999997E+02  0.45594000000E+02  0.51100000000E-03 0.  1.
    9900012    2    1    2    0    0  0.22570000500E+02  0.23564535086E+02  0.24258470572E+02  0.50528860426E+02  0.30000001751E+02 0.  0.
        -12    1    1    2    0    0 -0.22570000500E+02 -0.23564535086E+02 -0.24258470572E+02  0.40659139574E+02  0.00000000000E+00 0.  1.
         11    1    3    3    0    0  0.19955381304E+02  0.10631010779E+02  0.83493080007E+01  0.24102833392E+02  0.51100000000E-03 0. -1.
        -11    1    3    3    0    0  0.74028445253E+01  0.10005006719E+02  0.36932720125E+01  0.12982392882E+02  0.51100000000E-03 0.  1.
         12    1    3    3    0    0 -0.47882253295E+01  0.29285175876E+01  0.12215890559E+02  0.13443634152E+02  0.00000000000E+00 0. -1.
</event>
<event>
 7    1  0.4520156E-012  0.5052887E+02  0.7816164E-02  0.1300439E+00
        -11   -1    0    0    0    0  0.00000000000E+00  0.00000000000E+00  0.45593999997E+02  0.45594000000E+02  0.51100000000E-03 0. -1.
         11   -1    0    0    0    0 -0.00000000000E+00 -0.00000000000E+00 -0.45593999997E+02  0.45594000000E+02  0.51100000000E-03 0.  1.
    9900012    2    1    2    0    0  0.16595784894E+02  0.44806410097E+01 -0.36846550948E+02  0.50528873880E+02  0.30000042645E+02 0.  0.
         12    1    1    2    0    0 -0.16595784894E+02 -0.44806410097E+01  0.36846550948E+02  0.40659126120E+02  0.00000000000E+00 0. -1.
         11    1    3    3    0    0  0.93520892917E+01  0.13303351040E+02 -0.18865396810E+02  0.24906704320E+02  0.51100000000E-03 0. -1.
        -11    1    3    3    0    0  0.11004140294E+02 -0.89505388394E+01 -0.12120767647E+02  0.18657873881E+02  0.51100000000E-03 0.  1.
        -12    1    3    3    0    0 -0.37604446924E+01  0.12782880939E+00 -0.58603864904E+01  0.69642956791E+01  0.00000000000E+00 0.  1.
</event>
<event>
 7    1  0.4520156E-012  0.5052886E+02  0.7816164E-02  0.1300439E+00
        -11   -1    0    0    0    0  0.00000000000E+00  0.00000000000E+00  0.45593999997E+02  0.45594000000E+02  0.51100000000E-03 0. -1.
         11   -1    0    0    0    0 -0.00000000000E+00 -0.00000000000E+00 -0.45593999997E+02  0.45594000000E+02  0.51100000000E-03 0.  1.
    9900012    2    1    2    0    0  0.21702097221E+02 -0.13518723688E+02  0.31613739292E+02  0.50528862946E+02  0.30000009411E+02 0.  0.
        -12    1    1    2    0    0 -0.21702097221E+02  0.13518723688E+02 -0.31613739292E+02  0.40659137054E+02  0.00000000000E+00 0.  1.
         11    1    3    3    0    0  0.97919927664E+01  0.36095168381E+01  0.18368286570E+02  0.21125948166E+02  0.51100000000E-03 0. -1.
        -11    1    3    3    0    0 -0.29274677005E+01 -0.52092679235E+01  0.73629458859E+01  0.94825899319E+01  0.51100000000E-03 0.  1.
         12    1    3    3    0    0  0.14837572155E+02 -0.11918972603E+02  0.58825068357E+01  0.19920324848E+02  0.00000000000E+00 0. -1.
</event>
<event>
 7    1  0.4520156E-012  0.5052886E+02  0.7816164E-02  0.1300439E+00
        -11   -1    0    0    0    0  0.00000000000E+00  0.00000000000E+00  0.45593999997E+02  0.45594000000E+02  0.51100000000E-03 0. -1.
         11   -1    0    0    0    0 -0.00000000000E+00 -0.00000000000E+00 -0.45593999997E+02  0.45594000000E+02  0.51100000000E-03 0.  1.
    9900012    2    1    2    0    0  0.32671529998E+02  0.22997691716E+02 -0.75394305490E+01  0.50528859457E+02  0.29999998805E+02 0.  0.
        -12    1    1    2    0    0 -0.32671529998E+02 -0.22997691716E+02  0.75394305490E+01  0.40659140543E+02  0.00000000000E+00 0.  1.
         11    1    3    3    0    0  0.76536085961E+01  0.31247743460E+01 -0.45483875338E+01  0.94355587368E+01  0.51100000000E-03 0. -1.
        -11    1    3    3    0    0  0.42553840188E+01 -0.35714636777E+00 -0.10340494307E+02  0.11187567629E+02  0.51100000000E-03 0.  1.
         12    1    3    3    0    0  0.20762537383E+02  0.20230063738E+02  0.73494512920E+01  0.29905733091E+02  0.00000000000E+00 0. -1.
</event>
<event>
 7    1  0.4520156E-012  0.5052885E+02  0.7816164E-02  0.1300439E+00
        -11   -1    0    0    0    0  0.00000000000E+00  0.00000000000E+00  0.45593999997E+02  0.45594000000E+02  0.51100000000E-03 0. -1.
         11   -1    0    0    0    0 -0.00000000000E+00 -0.00000000000E+00 -0.45593999997E+02  0.45594000000E+02  0.51100000000E-03 0.  1.
    9900012    2    1    2    0    0 -0.26291629994E+02  0.12274082545E+02 -0.28482688250E+02  0.50528850476E+02  0.29999971506E+02 0.  0.
         12    1    1    2    0    0  0.26291629994E+02 -0.12274082545E+02  0.28482688250E+02  0.40659149524E+02  0.00000000000E+00 0. -1.
         11    1    3    3    0    0 -0.10990987617E+02  0.78828207581E+01 -0.23286936469E+02  0.26929947684E+02  0.51100000000E-03 0.  1.
        -11    1    3    3    0    0 -0.96790546765E+01  0.10733083638E+02 -0.42892364679E+01  0.15075832765E+02  0.51100000000E-03 0. -1.
        -12    1    3    3    0    0 -0.56215877009E+01 -0.63418218509E+01 -0.90651531307E+00  0.85230700268E+01  0.00000000000E+00 0.  1.
</event>
<event>
 7    1  0.4520156E-012  0.5052887E+02  0.7816164E-02  0.1300439E+00
        -11   -1    0    0    0    0  0.00000000000E+00  0.00000000000E+00  0.45593999997E+02  0.45594000000E+02  0.51100000000E-03 0. -1.
         11   -1    0    0    0    0 -0.00000000000E+00 -0.00000000000E+00 -0.45593999997E+02  0.45594000000E+02  0.51100000000E-03 0.  1.
    9900012    2    1    2    0    0 -0.19478032270E+02  0.24645233135E+02 -0.25814401468E+02  0.50528873343E+02  0.30000041014E+02 0.  0.
         12    1    1    2    0    0  0.19478032270E+02 -0.24645233135E+02  0.25814401468E+02  0.40659126657E+02  0.00000000000E+00 0. -1.
         11    1    3    3    0    0  0.17959669953E+01  0.40727799055E+01 -0.11300370941E+02  0.12145427834E+02  0.51100000000E-03 0. -1.
        -11    1    3    3    0    0 -0.17260532323E+01 -0.10296899358E+01 -0.83712617813E+01  0.86091547318E+01  0.51100000000E-03 0.  1.
        -12    1    3    3    0    0 -0.19547946033E+02  0.21602143165E+02 -0.61427687453E+01  0.29774290777E+02  0.00000000000E+00 0.  1.
</event>
<event>
 7    1  0.4520156E-012  0.5052885E+02  0.7816164E-02  0.1300439E+00
        -11   -1    0    0    0    0  0.00000000000E+00  0.00000000000E+00  0.45593999997E+02  0.45594000000E+02  0.51100000000E-03 0. -1.
         11   -1    0    0    0    0 -0.00000000000E+00 -0.00000000000E+00 -0.45593999997E+02  0.45594000000E+02  0.51100000000E-03 0.  1.
    9900012    2    1    2    0    0  0.46495970599E+01 -0.45206383814E+01 -0.40138658650E+02  0.50528845528E+02  0.29999956467E+02 0.  0.
         12    1    1    2    0    0 -0.46495970599E+01  0.45206383814E+01  0.40138658650E+02  0.40659154472E+02  0.00000000000E+00 0. -1.
         11    1    3    3    0    0  0.68927697413E+01  0.71364447339E+01 -0.13312165369E+02  0.16602796909E+02  0.51100000000E-03 0. -1.
        -11    1    3    3    0    0 -0.50194114057E+01 -0.57797856618E-01 -0.52558292137E+00  0.50471842764E+01  0.51100000000E-03 0.  1.
         12    1    3    3    0    0  0.27762387243E+01 -0.11599285259E+02 -0.26300910359E+02  0.28878864342E+02  0.00000000000E+00 0. -1.
</event>
<event>
 7    1  0.4520156E-012  0.5052886E+02  0.7816164E-02  0.1300439E+00
        -11   -1    0    0    0    0  0.00000000000E+00  0.00000000000E+00  0.45593999997E+02  0.45594000000E+02  0.51100000000E-03 0. -1.
         11   -1    0    0    0    0 -0.00000000000E+00 -0.00000000000E+00 -0.45593999997E+02  0.45594000000E+02  0.51100000000E-03 0.  1.
    9900012    2    1    2    0    0  0.34483453915E+02 -0.56580819868E+01 -0.20785655849E+02  0.50528856198E+02  0.29999988899E+02 0.  0.
         12    1    1    2    0    0 -0.34483453915E+02  0.56580819868E+01  0.20785655849E+02  0.40659143802E+02  0.00000000000E+00 0. -1.
         11    1    3    3    0    0  0.16898380915E+02  0.66406870646E+01 -0.10858836449E+02  0.21155810822E+02  0.51100000000E-03 0.  1.
        -11    1    3    3    0    0 -0.30818216782E+01 -0.28895022769E+01 -0.41933152374E+01  0.59523727375E+01  0.51100000000E-03 0. -1.
         12    1    3    3    0    0  0.20666894678E+02 -0.94092667745E+01 -0.57335041629E+01  0.23420672639E+02  0.00000000000E+00 0. -1.
</event>
<event>
 7    1  0.4520156E-012  0.5052884E+02  0.7816164E-02  0.1300439E+00
        -11   -1    0    0    0    0  0.00000000000E+00  0.00000000000E+00  0.45593999997E+02  0.45594000000E+02  0.51100000000E-03 0. -1.
         11   -1    0    0    0    0 -0.00000000000E+00 -0.00000000000E+00 -0.45593999997E+02  0.45594000000E+02  0.51100000000E-03 0.  1.
    9900012    2    1    2    0    0 -0.39670011336E+02 -0.82216318525E+01  0.34441562511E+01  0.50528840613E+02  0.29999941528E+02 0.  0.
        -12    1    1    2    0    0  0.39670011336E+02  0.82216318525E+01 -0.34441562511E+01  0.40659159387E+02  0.00000000000E+00 0.  1.
         11    1    3    3    0    0 -0.89150984068E+01  0.39122706210E+01  0.58518835457E+01  0.11359110102E+02  0.51100000000E-03 0. -1.
        -11    1    3    3    0    0 -0.18546268371E+02  0.37339149892E+01 -0.29188426364E+01  0.19142252590E+02  0.51100000000E-03 0.  1.
        -12    1    3    3    0    0 -0.12208644559E+02 -0.15867817463E+02  0.51111534177E+00  0.20027477921E+02  0.00000000000E+00 0.  1.
</event>
<event>
 7    1  0.4520156E-012  0.5052886E+02  0.7816164E-02  0.1300439E+00
        -11   -1    0    0    0    0  0.00000000000E+00  0.00000000000E+00  0.45593999997E+02  0.45594000000E+02  0.51100000000E-03 0.  1.
         11   -1    0    0    0    0 -0.00000000000E+00 -0.00000000000E+00 -0.45593999997E+02  0.45594000000E+02  0.51100000000E-03 0. -1.
    9900012    2    1    2    0    0 -0.32380823213E+02  0.24389681015E+02 -0.31291334161E+01  0.50528859233E+02  0.29999998125E+02 0.  0.
         12    1    1    2    0    0  0.32380823213E+02 -0.24389681015E+02  0.31291334161E+01  0.40659140767E+02  0.00000000000E+00 0. -1.
         11    1    3    3    0    0 -0.21048227261E+01 -0.33665380796E+00 -0.77700461529E+01  0.80571230582E+01  0.51100000000E-03 0. -1.
        -11    1    3    3    0    0 -0.97866518339E+00  0.61668992483E+01 -0.30482005164E+01  0.69483781222E+01  0.51100000000E-03 0.  1.
        -12    1    3    3    0    0 -0.29297335304E+02  0.18559435575E+02  0.76891132533E+01  0.35523358053E+02  0.00000000000E+00 0.  1.
</event>
<event>
 7    1  0.4520156E-012  0.5052886E+02  0.7816164E-02  0.1300439E+00
        -11   -1    0    0    0    0  0.00000000000E+00  0.00000000000E+00  0.45593999997E+02  0.45594000000E+02  0.51100000000E-03 0. -1.
         11   -1    0    0    0    0 -0.00000000000E+00 -0.00000000000E+00 -0.45593999997E+02  0.45594000000E+02  0.51100000000E-03 0.  1.
    9900012    2    1    2    0    0  0.68642668133E+01  0.37988778681E+02 -0.12763249748E+02  0.50528855780E+02  0.29999987630E+02 0.  0.
         12    1    1    2    0    0 -0.68642668133E+01 -0.37988778681E+02  0.12763249748E+02  0.40659144220E+02  0.00000000000E+00 0. -1.
         11    1    3    3    0    0  0.28576800421E+00 -0.16201074956E+01 -0.60923582156E+01  0.63105657858E+01  0.51100000000E-03 0. -1.
        -11    1    3    3    0    0  0.63370658231E+01  0.29425798551E+01 -0.23663749799E+00  0.69909353463E+01  0.51100000000E-03 0.  1.
        -12    1    3    3    0    0  0.24143298607E+00  0.36666306321E+02 -0.64342540342E+01  0.37227354648E+02  0.00000000000E+00 0.  1.
</event>
<event>
 7    1  0.4520156E-012  0.5052886E+02  0.7816164E-02  0.1300439E+00
        -11   -1    0    0    0    0  0.00000000000E+00  0.00000000000E+00  0.45593999997E+02  0.45594000000E+02  0.51100000000E-03 0. -1.
         11   -1    0    0    0    0 -0.00000000000E+00 -0.00000000000E+00 -0.45593999997E+02  0.45594000000E+02  0.51100000000E-03 0.  1.
    9900012    2    1    2    0    0  0.50056532814E+01 -0.44237397589E+01  0.40106603768E+02  0.50528859527E+02  0.29999999017E+02 0.  0.
        -12    1    1    2    0    0 -0.50056532814E+01  0.44237397589E+01 -0.40106603768E+02  0.40659140473E+02  0.00000000000E+00 0.  1.
         11    1    3    3    0    0  0.11179245314E+01  0.40236826468E+01  0.52226629038E+01  0.66870012239E+01  0.51100000000E-03 0. -1.
        -11    1    3    3    0    0 -0.21267932318E+01  0.27128226974E+00  0.33017062969E+02  0.33086602891E+02  0.51100000000E-03 0.  1.
        -12    1    3    3    0    0  0.60145219818E+01 -0.87187046755E+01  0.18668778952E+01  0.10755255411E+02  0.00000000000E+00 0.  1.
</event>
<event>
 7    1  0.4520156E-012  0.5052886E+02  0.7816164E-02  0.1300439E+00
        -11   -1    0    0    0    0  0.00000000000E+00  0.00000000000E+00  0.45593999997E+02  0.45594000000E+02  0.51100000000E-03 0.  1.
         11   -1    0    0    0    0 -0.00000000000E+00 -0.00000000000E+00 -0.45593999997E+02  0.45594000000E+02  0.51100000000E-03 0. -1.
    9900012    2    1    2    0    0 -0.32375572410E+01  0.40300728704E+02  0.43052929758E+01  0.50528855167E+02  0.29999985766E+02 0.  0.
        -12    1    1    2    0    0  0.32375572410E+01 -0.40300728704E+02 -0.43052929758E+01  0.40659144833E+02  0.00000000000E+00 0.  1.
         11    1    3    3    0    0  0.28178178714E+01  0.14032977633E+02 -0.19217444232E+01  0.14441525567E+02  0.51100000000E-03 0. -1.
        -11    1    3    3    0    0  0.89235186915E+01  0.93817882055E+01  0.29351326966E+01  0.13276375258E+02  0.51100000000E-03 0.  1.
         12    1    3    3    0    0 -0.14978893804E+02  0.16885962865E+02  0.32919047024E+01  0.22810954343E+02  0.00000000000E+00 0. -1.
</event>
<event>
 7    1  0.4520156E-012  0.5052887E+02  0.7816164E-02  0.1300439E+00
        -11   -1    0    0    0    0  0.00000000000E+00  0.00000000000E+00  0.45593999997E+02  0.45594000000E+02  0.51100000000E-03 0. -1.
         11   -1    0    0    0    0 -0.00000000000E+00 -0.00000000000E+00 -0.45593999997E+02  0.45594000000E+02  0.51100000000E-03 0.  1.
    9900012    2    1    2    0    0  0.17920591972E+02  0.17346468228E+02 -0.32111020410E+02  0.50528865622E+02  0.30000017544E+02 0.  0.
         12    1    1    2    0    0 -0.17920591972E+02 -0.17346468228E+02  0.32111020410E+02  0.40659134378E+02  0.00000000000E+00 0. -1.
         11    1    3    3    0    0 -0.78082101525E+00  0.34931790153E+01  0.30422313499E+01  0.46975688328E+01  0.51100000000E-03 0. -1.
        -11    1    3    3    0    0 -0.60866482325E+00  0.83312561435E+01 -0.54458994410E+01  0.99718665644E+01  0.51100000000E-03 0.  1.
        -12    1    3    3    0    0  0.19310077810E+02  0.55220330696E+01 -0.29707352319E+02  0.35859430225E+02  0.00000000000E+00 0.  1.
</event>
<event>
 7    1  0.4520156E-012  0.5052887E+02  0.7816164E-02  0.1300439E+00
        -11   -1    0    0    0    0  0.00000000000E+00  0.00000000000E+00  0.45593999997E+02  0.45594000000E+02  0.51100000000E-03 0. -1.
         11   -1    0    0    0    0 -0.00000000000E+00 -0.00000000000E+00 -0.45593999997E+02  0.45594000000E+02  0.51100000000E-03 0.  1.
    9900012    2    1    2    0    0 -0.29008401426E+02 -0.28824298717E+01  0.28343773249E+02  0.50528865267E+02  0.30000016466E+02 0.  0.
        -12    1    1    2    0    0  0.29008401426E+02  0.28824298717E+01 -0.28343773249E+02  0.40659134733E+02  0.00000000000E+00 0.  1.
         11    1    3    3    0    0 -0.12938567580E+02 -0.42397491045E+01  0.12948563143E+02  0.18789552714E+02  0.51100000000E-03 0. -1.
        -11    1    3    3    0    0 -0.10457578529E+02  0.11810290625E+02  0.10215338362E+02  0.18793537492E+02  0.51100000000E-03 0.  1.
         12    1    3    3    0    0 -0.56122553171E+01 -0.10452971392E+02  0.51798717437E+01  0.12945775061E+02  0.00000000000E+00 0. -1.
</event>
<event>
 7    1  0.4520156E-012  0.5052886E+02  0.7816164E-02  0.1300439E+00
        -11   -1    0    0    0    0  0.00000000000E+00  0.00000000000E+00  0.45593999997E+02  0.45594000000E+02  0.51100000000E-03 0. -1.
         11   -1    0    0    0    0 -0.00000000000E+00 -0.00000000000E+00 -0.45593999997E+02  0.45594000000E+02  0.51100000000E-03 0.  1.
    9900012    2    1    2    0    0 -0.19110116098E+02 -0.25728018738E+02 -0.25020751589E+02  0.50528862090E+02  0.30000006809E+02 0.  0.
         12    1    1    2    0    0  0.19110116098E+02  0.25728018738E+02  0.25020751589E+02  0.40659137910E+02  0.00000000000E+00 0. -1.
         11    1    3    3    0    0 -0.51716302447E+01  0.37412680852E+01 -0.14742401311E+01  0.65510480458E+01  0.51100000000E-03 0. -1.
        -11    1    3    3    0    0 -0.13445682145E+01  0.13830415216E+01 -0.60294947673E+01  0.63305193265E+01  0.51100000000E-03 0.  1.
        -12    1    3    3    0    0 -0.12593917639E+02 -0.30852328345E+02 -0.17517016691E+02  0.37647294718E+02  0.00000000000E+00 0.  1.
</event>
<event>
 7    1  0.4520156E-012  0.5052886E+02  0.7816164E-02  0.1300439E+00
        -11   -1    0    0    0    0  0.00000000000E+00  0.00000000000E+00  0.45593999997E+02  0.45594000000E+02  0.51100000000E-03 0. -1.
         11   -1    0    0    0    0 -0.00000000000E+00 -0.00000000000E+00 -0.45593999997E+02  0.45594000000E+02  0.51100000000E-03 0.  1.
    9900012    2    1    2    0    0  0.40885967493E+01  0.32092784141E+02  0.24627274073E+02  0.50528855327E+02  0.29999986251E+02 0.  0.
        -12    1    1    2    0    0 -0.40885967493E+01 -0.32092784141E+02 -0.24627274073E+02  0.40659144673E+02  0.00000000000E+00 0.  1.
         11    1    3    3    0    0 -0.38313573714E+01  0.40536479202E+01 -0.19161879308E+01  0.58977230535E+01  0.51100000000E-03 0. -1.
        -11    1    3    3    0    0 -0.13215681045E+01  0.87137234400E+00 -0.30329586295E+01  0.34212088983E+01  0.51100000000E-03 0.  1.
         12    1    3    3    0    0  0.92415222252E+01  0.27167763877E+02  0.29576420633E+02  0.41209923375E+02  0.00000000000E+00 0. -1.
</event>
<event>
 7    1  0.4520156E-012  0.5052886E+02  0.7816164E-02  0.1300439E+00
        -11   -1    0    0    0    0  0.00000000000E+00  0.00000000000E+00  0.45593999997E+02  0.45594000000E+02  0.51100000000E-03 0. -1.
         11   -1    0    0    0    0 -0.00000000000E+00 -0.00000000000E+00 -0.45593999997E+02  0.45594000000E+02  0.51100000000E-03 0.  1.
    9900012    2    1    2    0    0  0.35966808983E+02  0.60095739433E+01 -0.17984415927E+02  0.50528861499E+02  0.30000005013E+02 0.  0.
         12    1    1    2    0    0 -0.35966808983E+02 -0.60095739433E+01  0.17984415927E+02  0.40659138501E+02  0.00000000000E+00 0. -1.
         11    1    3    3    0    0  0.60222855091E+01 -0.31179024162E+01 -0.93198061606E+01  0.11525971775E+02  0.51100000000E-03 0. -1.
        -11    1    3    3    0    0  0.84664998228E+00 -0.53413463564E+01 -0.23588632234E+01  0.59000875467E+01  0.51100000000E-03 0.  1.
         12    1    3    3    0    0  0.29097873492E+02  0.14468822716E+02 -0.63057465427E+01  0.33102802177E+02  0.00000000000E+00 0. -1.
</event>
<event>
 7    1  0.4520156E-012  0.5052887E+02  0.7816164E-02  0.1300439E+00
        -11   -1    0    0    0    0  0.00000000000E+00  0.00000000000E+00  0.45593999997E+02  0.45594000000E+02  0.51100000000E-03 0. -1.
         11   -1    0    0    0    0 -0.00000000000E+00 -0.00000000000E+00 -0.45593999997E+02  0.45594000000E+02  0.51100000000E-03 0.  1.
    9900012    2    1    2    0    0 -0.12596693176E+02 -0.29034136378E+02  0.25524630341E+02  0.50528874232E+02  0.30000043716E+02 0.  0.
        -12    1    1    2    0    0  0.12596693176E+02  0.29034136378E+02 -0.25524630341E+02  0.40659125768E+02  0.00000000000E+00 0.  1.
         11    1    3    3    0    0 -0.40656198966E+01 -0.21309741948E+02  0.24408186487E+02  0.32655687635E+02  0.51100000000E-03 0. -1.
        -11    1    3    3    0    0 -0.74148679415E+00 -0.97517256713E+01  0.32478776484E+00  0.97852666590E+01  0.51100000000E-03 0.  1.
         12    1    3    3    0    0 -0.77895864850E+01  0.20273312416E+01  0.79165608881E+00  0.80879199386E+01  0.00000000000E+00 0. -1.
</event>
<event>
 7    1  0.4520156E-012  0.5052885E+02  0.7816164E-02  0.1300439E+00
        -11   -1    0    0    0    0  0.00000000000E+00  0.00000000000E+00  0.45593999997E+02  0.45594000000E+02  0.51100000000E-03 0. -1.
         11   -1    0    0    0    0 -0.00000000000E+00 -0.00000000000E+00 -0.45593999997E+02  0.45594000000E+02  0.51100000000E-03 0.  1.
    9900012    2    1    2    0    0  0.27476976375E+02  0.58110701503E+01 -0.29400919646E+02  0.50528845520E+02  0.29999956442E+02 0.  0.
         12    1    1    2    0    0 -0.27476976375E+02 -0.58110701503E+01  0.29400919646E+02  0.40659154480E+02  0.00000000000E+00 0. -1.
         11    1    3    3    0    0  0.39569511930E+01 -0.73111463099E+01 -0.97196775761E+01  0.12789935713E+02  0.51100000000E-03 0. -1.
        -11    1    3    3    0    0  0.17752541545E+02 -0.10550543719E+00 -0.11470079538E+02  0.21135907541E+02  0.51100000000E-03 0.  1.
        -12    1    3    3    0    0  0.57674836367E+01  0.13227721897E+02 -0.82111625324E+01  0.16603002265E+02  0.00000000000E+00 0.  1.
</event>
<event>
 7    1  0.4520156E-012  0.5052886E+02  0.7816164E-02  0.1300439E+00
        -11   -1    0    0    0    0  0.00000000000E+00  0.00000000000E+00  0.45593999997E+02  0.45594000000E+02  0.51100000000E-03 0. -1.
         11   -1    0    0    0    0 -0.00000000000E+00 -0.00000000000E+00 -0.45593999997E+02  0.45594000000E+02  0.51100000000E-03 0.  1.
    9900012    2    1    2    0    0  0.28078243442E+02  0.25355686227E+02  0.14895195662E+02  0.50528862864E+02  0.30000009162E+02 0.  0.
        -12    1    1    2    0    0 -0.28078243442E+02 -0.25355686227E+02 -0.14895195662E+02  0.40659137136E+02  0.00000000000E+00 0.  1.
         11    1    3    3    0    0  0.58124679562E+01  0.35294932752E+00  0.39649191020E+01  0.70448520720E+01  0.51100000000E-03 0. -1.
        -11    1    3    3    0    0 -0.20102902025E+01 -0.38105947137E+01  0.20683198561E+01  0.47791051525E+01  0.51100000000E-03 0.  1.
        -12    1    3    3    0    0  0.24276065688E+02  0.28813331613E+02  0.88619567037E+01  0.38704905640E+02  0.00000000000E+00 0.  1.
</event>
<event>
 7    1  0.4520156E-012  0.5052887E+02  0.7816164E-02  0.1300439E+00
        -11   -1    0    0    0    0  0.00000000000E+00  0.00000000000E+00  0.45593999997E+02  0.45594000000E+02  0.51100000000E-03 0. -1.
         11   -1    0    0    0    0 -0.00000000000E+00 -0.00000000000E+00 -0.45593999997E+02  0.45594000000E+02  0.51100000000E-03 0.  1.
    9900012    2    1    2    0    0  0.70492673709E+01  0.39858281542E+02 -0.38457347912E+01  0.50528874898E+02  0.30000045741E+02 0.  0.
         12    1    1    2    0    0 -0.70492673709E+01 -0.39858281542E+02  0.38457347912E+01  0.40659125102E+02  0.00000000000E+00 0. -1.
         11    1    3    3    0    0 -0.24659459998E+01 -0.83506386466E+00 -0.40430652551E+01  0.48088042432E+01  0.51100000000E-03 0. -1.
        -11    1    3    3    0    0  0.11327135351E+02  0.10943510516E+02 -0.17758789293E+01  0.15849863213E+02  0.51100000000E-03 0.  1.
        -12    1    3    3    0    0 -0.18119219798E+01  0.29749834891E+02  0.19732093931E+01  0.29870207442E+02  0.00000000000E+00 0.  1.
</event>
<event>
 7    1  0.4520156E-012  0.5052886E+02  0.7816164E-02  0.1300439E+00
        -11   -1    0    0    0    0  0.00000000000E+00  0.00000000000E+00  0.45593999997E+02  0.45594000000E+02  0.51100000000E-03 0.  1.
         11   -1    0    0    0    0 -0.00000000000E+00 -0.00000000000E+00 -0.45593999997E+02  0.45594000000E+02  0.51100000000E-03 0. -1.
    9900012    2    1    2    0    0  0.17335741034E+02 -0.36509247929E+02  0.44399060932E+01  0.50528857514E+02  0.29999992900E+02 0.  0.
        -12    1    1    2    0    0 -0.17335741034E+02  0.36509247929E+02 -0.44399060932E+01  0.40659142486E+02  0.00000000000E+00 0.  1.
         11    1    3    3    0    0  0.21183064699E+01  0.13832411997E+01  0.55883103830E+01  0.61343126522E+01  0.51100000000E-03 0.  1.
        -11    1    3    3    0    0  0.15090814500E+02 -0.14987232198E+02  0.15794246580E+01  0.21327081229E+02  0.51100000000E-03 0. -1.
         12    1    3    3    0    0  0.12662006447E+00 -0.22905256931E+02 -0.27278289478E+01  0.23067463633E+02  0.00000000000E+00 0. -1.
</event>
<event>
 7    1  0.4520156E-012  0.5052887E+02  0.7816164E-02  0.1300439E+00
        -11   -1    0    0    0    0  0.00000000000E+00  0.00000000000E+00  0.45593999997E+02  0.45594000000E+02  0.51100000000E-03 0. -1.
         11   -1    0    0    0    0 -0.00000000000E+00 -0.00000000000E+00 -0.45593999997E+02  0.45594000000E+02  0.51100000000E-03 0.  1.
    9900012    2    1    2    0    0  0.29870374806E+02  0.22678973976E+02  0.15703181950E+02  0.50528867262E+02  0.30000022530E+02 0.  0.
        -12    1    1    2    0    0 -0.29870374806E+02 -0.22678973976E+02 -0.15703181950E+02  0.40659132738E+02  0.00000000000E+00 0.  1.
         11    1    3    3    0    0 -0.10626059910E+01  0.14089235023E+01 -0.90756337989E+00  0.19844063287E+01  0.51100000000E-03 0.  1.
        -11    1    3    3    0    0 -0.11819896796E+01  0.52418808348E+01 -0.44082504184E+01  0.69503299420E+01  0.51100000000E-03 0. -1.
         12    1    3    3    0    0  0.32114970476E+02  0.16028169639E+02  0.21018995749E+02  0.41594130992E+02  0.00000000000E+00 0. -1.
</event>
<event>
 7    1  0.4520156E-012  0.5052886E+02  0.7816164E-02  0.1300439E+00
        -11   -1    0    0    0    0  0.00000000000E+00  0.00000000000E+00  0.45593999997E+02  0.45594000000E+02  0.51100000000E-03 0. -1.
         11   -1    0    0    0    0 -0.00000000000E+00 -0.00000000000E+00 -0.45593999997E+02  0.45594000000E+02  0.51100000000E-03 0.  1.
    9900012    2    1    2    0    0  0.52144878473E+01 -0.18877818925E+02  0.35631481835E+02  0.50528862914E+02  0.30000009312E+02 0.  0.
        -12    1    1    2    0    0 -0.52144878473E+01  0.18877818925E+02 -0.35631481835E+02  0.40659137086E+02  0.00000000000E+00 0.  1.
         11    1    3    3    0    0  0.53894563611E+01 -0.11752915331E+02  0.17614535581E+02  0.21850609205E+02  0.51100000000E-03 0. -1.
        -11    1    3    3    0    0 -0.48046013535E+01 -0.38284447372E+01 -0.30495199234E+01  0.68586263418E+01  0.51100000000E-03 0.  1.
         12    1    3    3    0    0  0.46296328396E+01 -0.32964588567E+01  0.21066466177E+02  0.21819627366E+02  0.00000000000E+00 0. -1.
</event>
<event>
 7    1  0.4520156E-012  0.5052886E+02  0.7816164E-02  0.1300439E+00
        -11   -1    0    0    0    0  0.00000000000E+00  0.00000000000E+00  0.45593999997E+02  0.45594000000E+02  0.51100000000E-03 0. -1.
         11   -1    0    0    0    0 -0.00000000000E+00 -0.00000000000E+00 -0.45593999997E+02  0.45594000000E+02  0.51100000000E-03 0.  1.
    9900012    2    1    2    0    0  0.14855978824E+01 -0.36328195512E+02  0.18199464273E+02  0.50528864617E+02  0.30000014490E+02 0.  0.
        -12    1    1    2    0    0 -0.14855978824E+01  0.36328195512E+02 -0.18199464273E+02  0.40659135383E+02  0.00000000000E+00 0.  1.
         11    1    3    3    0    0  0.45758365125E+01 -0.98434967117E+01  0.17307185389E+02  0.20429668956E+02  0.51100000000E-03 0. -1.
        -11    1    3    3    0    0 -0.84035999129E+01 -0.14526997315E+02  0.22967782216E+01  0.16938988546E+02  0.51100000000E-03 0.  1.
         12    1    3    3    0    0  0.53133612829E+01 -0.11957701486E+02 -0.14044993371E+01  0.13160207116E+02  0.00000000000E+00 0. -1.
</event>
<event>
 7    1  0.4520156E-012  0.5052886E+02  0.7816164E-02  0.1300439E+00
        -11   -1    0    0    0    0  0.00000000000E+00  0.00000000000E+00  0.45593999997E+02  0.45594000000E+02  0.51100000000E-03 0. -1.
         11   -1    0    0    0    0 -0.00000000000E+00 -0.00000000000E+00 -0.45593999997E+02  0.45594000000E+02  0.51100000000E-03 0.  1.
    9900012    2    1    2    0    0 -0.88597166562E+01 -0.86199626258E+01  0.38734570693E+02  0.50528864475E+02  0.30000014058E+02 0.  0.
        -12    1    1    2    0    0  0.88597166562E+01  0.86199626258E+01 -0.38734570693E+02  0.40659135525E+02  0.00000000000E+00 0.  1.
         11    1    3    3    0    0  0.26919172302E+01  0.30106147346E+01  0.56821451796E+01  0.69711543921E+01  0.51100000000E-03 0. -1.
        -11    1    3    3    0    0  0.47175126495E+01 -0.38944342985E+01  0.21025041531E+02  0.21896892833E+02  0.51100000000E-03 0.  1.
        -12    1    3    3    0    0 -0.16269146536E+02 -0.77361430620E+01  0.12027383982E+02  0.21660817250E+02  0.00000000000E+00 0.  1.
</event>
<event>
 7    1  0.4520156E-012  0.5052886E+02  0.7816164E-02  0.1300439E+00
        -11   -1    0    0    0    0  0.00000000000E+00  0.00000000000E+00  0.45593999997E+02  0.45594000000E+02  0.51100000000E-03 0.  1.
         11   -1    0    0    0    0 -0.00000000000E+00 -0.00000000000E+00 -0.45593999997E+02  0.45594000000E+02  0.51100000000E-03 0. -1.
    9900012    2    1    2    0    0 -0.26847474645E+02 -0.30474219344E+02  0.19237330550E+01  0.50528859720E+02  0.29999999605E+02 0.  0.
         12    1    1    2    0    0  0.26847474645E+02  0.30474219344E+02 -0.19237330550E+01  0.40659140280E+02  0.00000000000E+00 0. -1.
         11    1    3    3    0    0  0.57701063985E+01 -0.32454959918E+01 -0.22650407711E+01  0.69969837815E+01  0.51100000000E-03 0. -1.
        -11    1    3    3    0    0 -0.19651503818E+02 -0.12920304724E+02 -0.99296046313E+00  0.23539368029E+02  0.51100000000E-03 0.  1.
        -12    1    3    3    0    0 -0.12966077225E+02 -0.14308418629E+02  0.51817342892E+01  0.19992507909E+02  0.00000000000E+00 0.  1.
</event>
<event>
 7    1  0.4520156E-012  0.5052884E+02  0.7816164E-02  0.1300439E+00
        -11   -1    0    0    0    0  0.00000000000E+00  0.00000000000E+00  0.45593999997E+02  0.45594000000E+02  0.51100000000E-03 0. -1.
         11   -1    0    0    0    0 -0.00000000000E+00 -0.00000000000E+00 -0.45593999997E+02  0.45594000000E+02  0.51100000000E-03 0.  1.
    9900012    2    1    2    0    0 -0.12999810491E+02 -0.35977366989E+02 -0.13776830617E+02  0.50528842728E+02  0.29999947955E+02 0.  0.
         12    1    1    2    0    0  0.12999810491E+02  0.35977366989E+02  0.13776830617E+02  0.40659157272E+02  0.00000000000E+00 0. -1.
         11    1    3    3    0    0  0.34766792332E+01 -0.79473582245E+01  0.38255205627E+01  0.94806333689E+01  0.51100000000E-03 0. -1.
        -11    1    3    3    0    0 -0.97182988714E+00 -0.37213231510E+01 -0.10743542642E+02  0.11411240427E+02  0.51100000000E-03 0.  1.
        -12    1    3    3    0    0 -0.15504659837E+02 -0.24308685614E+02 -0.68588085380E+01  0.29636968932E+02  0.00000000000E+00 0.  1.
</event>
<event>
 7    1  0.4520156E-012  0.5052885E+02  0.7816164E-02  0.1300439E+00
        -11   -1    0    0    0    0  0.00000000000E+00  0.00000000000E+00  0.45593999997E+02  0.45594000000E+02  0.51100000000E-03 0. -1.
         11   -1    0    0    0    0 -0.00000000000E+00 -0.00000000000E+00 -0.45593999997E+02  0.45594000000E+02  0.51100000000E-03 0.  1.
    9900012    2    1    2    0    0  0.94368691744E+01  0.11470318259E+02 -0.37848954847E+02  0.50528854857E+02  0.29999984822E+02 0.  0.
         12    1    1    2    0    0 -0.94368691744E+01 -0.11470318259E+02  0.37848954847E+02  0.40659145143E+02  0.00000000000E+00 0. -1.
         11    1    3    3    0    0 -0.57353154233E+01  0.32936228333E+01 -0.30201410738E+02  0.30917098913E+02  0.51100000000E-03 0. -1.
        -11    1    3    3    0    0  0.20356835480E+01  0.47557120268E+00 -0.30644077845E+01  0.37095512946E+01  0.51100000000E-03 0.  1.
        -12    1    3    3    0    0  0.13136501050E+02  0.77011242231E+01 -0.45831363246E+01  0.15902204649E+02  0.00000000000E+00 0.  1.
</event>
<event>
 7    1  0.4520156E-012  0.5052886E+02  0.7816164E-02  0.1300439E+00
        -11   -1    0    0    0    0  0.00000000000E+00  0.00000000000E+00  0.45593999997E+02  0.45594000000E+02  0.51100000000E-03 0. -1.
         11   -1    0    0    0    0 -0.00000000000E+00 -0.00000000000E+00 -0.45593999997E+02  0.45594000000E+02  0.51100000000E-03 0.  1.
    9900012    2    1    2    0    0 -0.10801387150E+02  0.22009354651E+02  0.32435845743E+02  0.50528859016E+02  0.29999997466E+02 0.  0.
        -12    1    1    2    0    0  0.10801387150E+02 -0.22009354651E+02 -0.32435845743E+02  0.40659140984E+02  0.00000000000E+00 0.  1.
         11    1    3    3    0    0  0.19797138307E+00  0.23850560435E-01  0.17155033192E+01  0.17270533915E+01  0.51100000000E-03 0. -1.
        -11    1    3    3    0    0  0.86113886923E+01  0.71719899941E+00  0.10005953411E+02  0.13220797765E+02  0.51100000000E-03 0.  1.
         12    1    3    3    0    0 -0.19610747225E+02  0.21268305091E+02  0.20714389012E+02  0.35581007860E+02  0.00000000000E+00 0. -1.
</event>
<event>
 7    1  0.4520156E-012  0.5052886E+02  0.7816164E-02  0.1300439E+00
        -11   -1    0    0    0    0  0.00000000000E+00  0.00000000000E+00  0.45593999997E+02  0.45594000000E+02  0.51100000000E-03 0. -1.
         11   -1    0    0    0    0 -0.00000000000E+00 -0.00000000000E+00 -0.45593999997E+02  0.45594000000E+02  0.51100000000E-03 0.  1.
    9900012    2    1    2    0    0  0.83495031225E+01 -0.44935062172E+01 -0.39538077709E+02  0.50528863395E+02  0.30000010776E+02 0.  0.
         12    1    1    2    0    0 -0.83495031225E+01  0.44935062172E+01  0.39538077709E+02  0.40659136605E+02  0.00000000000E+00 0. -1.
         11    1    3    3    0    0  0.15778354609E+00  0.98240031459E+01 -0.79992703574E+01  0.12669816888E+02  0.51100000000E-03 0. -1.
        -11    1    3    3    0    0 -0.13027160638E+01 -0.16599354234E+00 -0.11409548499E+02  0.11484877893E+02  0.51100000000E-03 0.  1.
        -12    1    3    3    0    0  0.94944356402E+01 -0.14151515821E+02 -0.20129258852E+02  0.26374168614E+02  0.00000000000E+00 0.  1.
</event>
<event>
 7    1  0.4520156E-012  0.5052892E+02  0.7816164E-02  0.1300439E+00
        -11   -1    0    0    0    0  0.00000000000E+00  0.00000000000E+00  0.45593999997E+02  0.45594000000E+02  0.51100000000E-03 0.  1.
         11   -1    0    0    0    0 -0.00000000000E+00 -0.00000000000E+00 -0.45593999997E+02  0.45594000000E+02  0.51100000000E-03 0. -1.
    9900012    2    1    2    0    0  0.35851358928E+02  0.69938293226E+01 -0.17858528905E+02  0.50528921798E+02  0.30000188297E+02 0.  0.
         12    1    1    2    0    0 -0.35851358928E+02 -0.69938293226E+01  0.17858528905E+02  0.40659078202E+02  0.00000000000E+00 0. -1.
         11    1    3    3    0    0  0.44178706854E+01  0.71563477273E+01 -0.11322028752E+02  0.14103872855E+02  0.51100000000E-03 0. -1.
        -11    1    3    3    0    0  0.16448626953E+02 -0.40224691350E+01 -0.11153955792E+02  0.20276792564E+02  0.51100000000E-03 0.  1.
        -12    1    3    3    0    0  0.14984861289E+02  0.38599507303E+01  0.46174556400E+01  0.16148256379E+02  0.00000000000E+00 0.  1.
</event>
<event>
 7    1  0.4520156E-012  0.5052886E+02  0.7816164E-02  0.1300439E+00
        -11   -1    0    0    0    0  0.00000000000E+00  0.00000000000E+00  0.45593999997E+02  0.45594000000E+02  0.51100000000E-03 0. -1.
         11   -1    0    0    0    0 -0.00000000000E+00 -0.00000000000E+00 -0.45593999997E+02  0.45594000000E+02  0.51100000000E-03 0.  1.
    9900012    2    1    2    0    0 -0.20197450026E+02  0.68234533839E+01  0.34621806254E+02  0.50528856232E+02  0.29999989004E+02 0.  0.
        -12    1    1    2    0    0  0.20197450026E+02 -0.68234533839E+01 -0.34621806254E+02  0.40659143768E+02  0.00000000000E+00 0.  1.
         11    1    3    3    0    0 -0.91110050711E+01  0.50342054002E+01  0.60806874617E+01  0.12055222838E+02  0.51100000000E-03 0. -1.
        -11    1    3    3    0    0 -0.14024809129E+02  0.94981653797E+01  0.15042797730E+02  0.22653833682E+02  0.51100000000E-03 0.  1.
         12    1    3    3    0    0  0.29383641738E+01 -0.77089173959E+01  0.13498321063E+02  0.15819799712E+02  0.00000000000E+00 0. -1.
</event>
<event>
 7    1  0.4520156E-012  0.5052886E+02  0.7816164E-02  0.1300439E+00
        -11   -1    0    0    0    0  0.00000000000E+00  0.00000000000E+00  0.45593999997E+02  0.45594000000E+02  0.51100000000E-03 0. -1.
         11   -1    0    0    0    0 -0.00000000000E+00 -0.00000000000E+00 -0.45593999997E+02  0.45594000000E+02  0.51100000000E-03 0.  1.
    9900012    2    1    2    0    0  0.11907159713E+02 -0.29209162082E+01  0.38766651673E+02  0.50528862209E+02  0.30000007171E+02 0.  0.
        -12    1    1    2    0    0 -0.11907159713E+02  0.29209162082E+01 -0.38766651673E+02  0.40659137791E+02  0.00000000000E+00 0.  1.
         11    1    3    3    0    0  0.10097941540E+02  0.46961680260E+01  0.18527105713E+02  0.21616569196E+02  0.51100000000E-03 0. -1.
        -11    1    3    3    0    0  0.81245109931E+01  0.26682601724E+01  0.76870651327E+01  0.11498619997E+02  0.51100000000E-03 0.  1.
         12    1    3    3    0    0 -0.63152928195E+01 -0.10285344407E+02  0.12552480828E+02  0.17413673016E+02  0.00000000000E+00 0. -1.
</event>
<event>
 7    1  0.4520156E-012  0.5052886E+02  0.7816164E-02  0.1300439E+00
        -11   -1    0    0    0    0  0.00000000000E+00  0.00000000000E+00  0.45593999997E+02  0.45594000000E+02  0.51100000000E-03 0.  1.
         11   -1    0    0    0    0 -0.00000000000E+00 -0.00000000000E+00 -0.45593999997E+02  0.45594000000E+02  0.51100000000E-03 0. -1.
    9900012    2    1    2    0    0  0.16726793000E+02  0.32805293078E+02  0.17239287387E+02  0.50528857269E+02  0.29999992155E+02 0.  0.
        -12    1    1    2    0    0 -0.16726793000E+02 -0.32805293078E+02 -0.17239287387E+02  0.40659142731E+02  0.00000000000E+00 0.  1.
         11    1    3    3    0    0  0.35495019093E+01  0.13673762789E+02  0.11911256622E+02  0.18478332911E+02  0.51100000000E-03 0. -1.
        -11    1    3    3    0    0  0.29805637206E+01  0.12526798781E+02  0.12497300670E+02  0.17943995433E+02  0.51100000000E-03 0.  1.
         12    1    3    3    0    0  0.10196727370E+02  0.66047315087E+01 -0.71692699048E+01  0.14106528925E+02  0.00000000000E+00 0. -1.
</event>
<event>
 7    1  0.4520156E-012  0.5052887E+02  0.7816164E-02  0.1300439E+00
        -11   -1    0    0    0    0  0.00000000000E+00  0.00000000000E+00  0.45593999997E+02  0.45594000000E+02  0.51100000000E-03 0. -1.
         11   -1    0    0    0    0 -0.00000000000E+00 -0.00000000000E+00 -0.45593999997E+02  0.45594000000E+02  0.51100000000E-03 0.  1.
    9900012    2    1    2    0    0  0.51861267717E+01  0.34660338551E+02  0.20613832714E+02  0.50528867219E+02  0.30000022398E+02 0.  0.
        -12    1    1    2    0    0 -0.51861267717E+01 -0.34660338551E+02 -0.20613832714E+02  0.40659132781E+02  0.00000000000E+00 0.  1.
         11    1    3    3    0    0  0.84064945652E+01  0.12281373522E+02  0.19912258484E+02  0.24859592206E+02  0.51100000000E-03 0. -1.
        -11    1    3    3    0    0 -0.53352081252E+00  0.35097269001E+00 -0.30909942466E+01  0.31562750166E+01  0.51100000000E-03 0.  1.
        -12    1    3    3    0    0 -0.26868469810E+01  0.22027992339E+02  0.37925684775E+01  0.22512999996E+02  0.00000000000E+00 0.  1.
</event>
<event>
 7    1  0.4520156E-012  0.5052887E+02  0.7816164E-02  0.1300439E+00
        -11   -1    0    0    0    0  0.00000000000E+00  0.00000000000E+00  0.45593999997E+02  0.45594000000E+02  0.51100000000E-03 0. -1.
         11   -1    0    0    0    0 -0.00000000000E+00 -0.00000000000E+00 -0.45593999997E+02  0.45594000000E+02  0.51100000000E-03 0.  1.
    9900012    2    1    2    0    0  0.41187651796E+00 -0.14924940079E+02  0.37818531099E+02  0.50528870975E+02  0.30000033815E+02 0.  0.
        -12    1    1    2    0    0 -0.41187651796E+00  0.14924940079E+02 -0.37818531099E+02  0.40659129025E+02  0.00000000000E+00 0.  1.
         11    1    3    3    0    0  0.69896136258E+01  0.21878941449E+00  0.33127112092E+01  0.77379986600E+01  0.51100000000E-03 0. -1.
        -11    1    3    3    0    0  0.73111661561E+00 -0.13682609525E+01 -0.23248129206E+01  0.27948926485E+01  0.51100000000E-03 0.  1.
        -12    1    3    3    0    0 -0.73088537234E+01 -0.13775468541E+02  0.36830632810E+02  0.39995979666E+02  0.00000000000E+00 0.  1.
</event>
<event>
 7    1  0.4520156E-012  0.5052886E+02  0.7816164E-02  0.1300439E+00
        -11   -1    0    0    0    0  0.00000000000E+00  0.00000000000E+00  0.45593999997E+02  0.45594000000E+02  0.51100000000E-03 0. -1.
         11   -1    0    0    0    0 -0.00000000000E+00 -0.00000000000E+00 -0.45593999997E+02  0.45594000000E+02  0.51100000000E-03 0.  1.
    9900012    2    1    2    0    0  0.13367179781E+02 -0.39743290143E+01  0.38192785171E+02  0.50528860492E+02  0.30000001952E+02 0.  0.
        -12    1    1    2    0    0 -0.13367179781E+02  0.39743290143E+01 -0.38192785171E+02  0.40659139508E+02  0.00000000000E+00 0.  1.
         11    1    3    3    0    0  0.46779875046E+00  0.17200256098E+01  0.21391853443E+01  0.27844995902E+01  0.51100000000E-03 0. -1.
        -11    1    3    3    0    0  0.10067663701E+02 -0.71851159779E+01  0.85240033250E+00  0.12397997040E+02  0.51100000000E-03 0.  1.
        -12    1    3    3    0    0  0.28317173291E+01  0.14907613538E+01  0.35201199494E+02  0.35346363862E+02  0.00000000000E+00 0.  1.
</event>
<event>
 7    1  0.4520156E-012  0.5052884E+02  0.7816164E-02  0.1300439E+00
        -11   -1    0    0    0    0  0.00000000000E+00  0.00000000000E+00  0.45593999997E+02  0.45594000000E+02  0.51100000000E-03 0. -1.
         11   -1    0    0    0    0 -0.00000000000E+00 -0.00000000000E+00 -0.45593999997E+02  0.45594000000E+02  0.51100000000E-03 0.  1.
    9900012    2    1    2    0    0 -0.38633791440E+02 -0.10922753183E+02  0.64257694610E+01  0.50528844927E+02  0.29999954640E+02 0.  0.
        -12    1    1    2    0    0  0.38633791440E+02  0.10922753183E+02 -0.64257694610E+01  0.40659155073E+02  0.00000000000E+00 0.  1.
         11    1    3    3    0    0  0.19145566484E+01 -0.43825660574E+01  0.33458918464E+01  0.58367289569E+01  0.51100000000E-03 0. -1.
        -11    1    3    3    0    0 -0.13085630479E+01 -0.19470045157E+01  0.45909013455E+01  0.51555348180E+01  0.51100000000E-03 0.  1.
        -12    1    3    3    0    0 -0.39239785040E+02 -0.45931826101E+01 -0.15110237309E+01  0.39536581152E+02  0.00000000000E+00 0.  1.
</event>
<event>
 7    1  0.4520156E-012  0.5052882E+02  0.7816164E-02  0.1300439E+00
        -11   -1    0    0    0    0  0.00000000000E+00  0.00000000000E+00  0.45593999997E+02  0.45594000000E+02  0.51100000000E-03 0. -1.
         11   -1    0    0    0    0 -0.00000000000E+00 -0.00000000000E+00 -0.45593999997E+02  0.45594000000E+02  0.51100000000E-03 0.  1.
    9900012    2    1    2    0    0 -0.29905539107E+02 -0.20584182012E+02 -0.18306247491E+02  0.50528824952E+02  0.29999893923E+02 0.  0.
         12    1    1    2    0    0  0.29905539107E+02  0.20584182012E+02  0.18306247491E+02  0.40659175048E+02  0.00000000000E+00 0. -1.
         11    1    3    3    0    0 -0.94362405351E+01 -0.12351651187E+02 -0.14631732573E+01  0.15612392472E+02  0.51100000000E-03 0. -1.
        -11    1    3    3    0    0 -0.19929368872E+02 -0.10451034257E+02 -0.52593657976E+01  0.23109841833E+02  0.51100000000E-03 0.  1.
         12    1    3    3    0    0 -0.53992970010E+00  0.22185034314E+01 -0.11583708436E+02  0.11806590647E+02  0.00000000000E+00 0. -1.
</event>
<event>
 7    1  0.4520156E-012  0.5052875E+02  0.7816164E-02  0.1300439E+00
        -11   -1    0    0    0    0  0.00000000000E+00  0.00000000000E+00  0.45593999997E+02  0.45594000000E+02  0.51100000000E-03 0. -1.
         11   -1    0    0    0    0 -0.00000000000E+00 -0.00000000000E+00 -0.45593999997E+02  0.45594000000E+02  0.51100000000E-03 0.  1.
    9900012    2    1    2    0    0 -0.19691148687E+02 -0.13136082317E+02  0.33058686091E+02  0.50528748638E+02  0.29999661958E+02 0.  0.
        -12    1    1    2    0    0  0.19691148687E+02  0.13136082317E+02 -0.33058686091E+02  0.40659251362E+02  0.00000000000E+00 0.  1.
         11    1    3    3    0    0 -0.13426410982E+02 -0.15361591141E+02  0.28334892106E+02  0.34915800222E+02  0.51100000000E-03 0. -1.
        -11    1    3    3    0    0 -0.17930025593E+01 -0.50946702711E+01  0.45034084243E+01  0.70321555050E+01  0.51100000000E-03 0.  1.
        -12    1    3    3    0    0 -0.44717351450E+01  0.73201790945E+01  0.22038556142E+00  0.85807929108E+01  0.00000000000E+00 0.  1.
</event>
<event>
 7    1  0.4520156E-012  0.5052881E+02  0.7816164E-02  0.1300439E+00
        -11   -1    0    0    0    0  0.00000000000E+00  0.00000000000E+00  0.45593999997E+02  0.45594000000E+02  0.51100000000E-03 0.  1.
         11   -1    0    0    0    0 -0.00000000000E+00 -0.00000000000E+00 -0.45593999997E+02  0.45594000000E+02  0.51100000000E-03 0. -1.
    9900012    2    1    2    0    0 -0.32710650423E+02  0.40970756309E+01  0.23799092969E+02  0.50528812773E+02  0.29999856905E+02 0.  0.
        -12    1    1    2    0    0  0.32710650423E+02 -0.40970756309E+01 -0.23799092969E+02  0.40659187227E+02  0.00000000000E+00 0.  1.
         11    1    3    3    0    0 -0.16867395368E+02  0.23076222929E+01 -0.20693984702E+00  0.17025773741E+02  0.51100000000E-03 0. -1.
        -11    1    3    3    0    0 -0.63459803275E+01  0.43238177065E+01  0.12704465429E+00  0.76800394844E+01  0.51100000000E-03 0.  1.
        -12    1    3    3    0    0 -0.94972747278E+01 -0.25343643684E+01  0.23878988162E+02  0.25822999547E+02  0.00000000000E+00 0.  1.
</event>
<event>
 7    1  0.4520156E-012  0.5052887E+02  0.7816164E-02  0.1300439E+00
        -11   -1    0    0    0    0  0.00000000000E+00  0.00000000000E+00  0.45593999997E+02  0.45594000000E+02  0.51100000000E-03 0. -1.
         11   -1    0    0    0    0 -0.00000000000E+00 -0.00000000000E+00 -0.45593999997E+02  0.45594000000E+02  0.51100000000E-03 0.  1.
    9900012    2    1    2    0    0 -0.37122696456E+02 -0.93882889006E+01 -0.13672251433E+02  0.50528867940E+02  0.30000024591E+02 0.  0.
         12    1    1    2    0    0  0.37122696456E+02  0.93882889006E+01  0.13672251433E+02  0.40659132060E+02  0.00000000000E+00 0. -1.
         11    1    3    3    0    0 -0.39239639543E+00 -0.63995122629E+01  0.12022704065E+01  0.65232803500E+01  0.51100000000E-03 0. -1.
        -11    1    3    3    0    0  0.14846945724E+01 -0.14083986058E+01  0.13578444903E+01  0.24559410675E+01  0.51100000000E-03 0.  1.
        -12    1    3    3    0    0 -0.38214994632E+02 -0.15803780320E+01 -0.16232366330E+02  0.41549646523E+02  0.00000000000E+00 0.  1.
</event>
<event>
 7    1  0.4520156E-012  0.5052886E+02  0.7816164E-02  0.1300439E+00
        -11   -1    0    0    0    0  0.00000000000E+00  0.00000000000E+00  0.45593999997E+02  0.45594000000E+02  0.51100000000E-03 0. -1.
         11   -1    0    0    0    0 -0.00000000000E+00 -0.00000000000E+00 -0.45593999997E+02  0.45594000000E+02  0.51100000000E-03 0.  1.
    9900012    2    1    2    0    0  0.16192789575E+02  0.72516379614E+01 -0.36583777683E+02  0.50528862320E+02  0.30000007506E+02 0.  0.
         12    1    1    2    0    0 -0.16192789575E+02 -0.72516379614E+01  0.36583777683E+02  0.40659137680E+02  0.00000000000E+00 0. -1.
         11    1    3    3    0    0  0.66592764061E+01  0.26308740344E+01 -0.21517605194E+01  0.74764653435E+01  0.51100000000E-03 0. -1.
        -11    1    3    3    0    0  0.13266445205E+02  0.40199065970E+01 -0.73163905109E+01  0.15674431020E+02  0.51100000000E-03 0.  1.
         12    1    3    3    0    0 -0.37329320360E+01  0.60085732997E+00 -0.27115626653E+02  0.27377965956E+02  0.00000000000E+00 0. -1.
</event>
<event>
 7    1  0.4520156E-012  0.5052888E+02  0.7816164E-02  0.1300439E+00
        -11   -1    0    0    0    0  0.00000000000E+00  0.00000000000E+00  0.45593999997E+02  0.45594000000E+02  0.51100000000E-03 0.  1.
         11   -1    0    0    0    0 -0.00000000000E+00 -0.00000000000E+00 -0.45593999997E+02  0.45594000000E+02  0.51100000000E-03 0. -1.
    9900012    2    1    2    0    0  0.28867422913E+01  0.35535584199E+02  0.19546172986E+02  0.50528881665E+02  0.30000066308E+02 0.  0.
        -12    1    1    2    0    0 -0.28867422913E+01 -0.35535584199E+02 -0.19546172986E+02  0.40659118335E+02  0.00000000000E+00 0.  1.
         11    1    3    3    0    0 -0.99861831027E+00  0.10611093474E+02  0.99865037814E+01  0.14605574322E+02  0.51100000000E-03 0. -1.
        -11    1    3    3    0    0  0.55054876010E+01  0.23858769925E+02  0.15965122061E+02  0.29230744409E+02  0.51100000000E-03 0.  1.
        -12    1    3    3    0    0 -0.16201269995E+01  0.10657207999E+01 -0.64054528563E+01  0.66925629330E+01  0.00000000000E+00 0.  1.
</event>
<event>
 7    1  0.4520156E-012  0.5052886E+02  0.7816164E-02  0.1300439E+00
        -11   -1    0    0    0    0  0.00000000000E+00  0.00000000000E+00  0.45593999997E+02  0.45594000000E+02  0.51100000000E-03 0. -1.
         11   -1    0    0    0    0 -0.00000000000E+00 -0.00000000000E+00 -0.45593999997E+02  0.45594000000E+02  0.51100000000E-03 0.  1.
    9900012    2    1    2    0    0  0.62408663542E+01  0.33905697401E+02 -0.21555068020E+02  0.50528859743E+02  0.29999999675E+02 0.  0.
         12    1    1    2    0    0 -0.62408663542E+01 -0.33905697401E+02  0.21555068020E+02  0.40659140257E+02  0.00000000000E+00 0. -1.
         11    1    3    3    0    0 -0.62430891206E+01  0.61551217667E+00 -0.69178393849E+01  0.93387107795E+01  0.51100000000E-03 0. -1.
        -11    1    3    3    0    0  0.20115852007E+01  0.25111745068E+02 -0.89180625319E+01  0.26724109994E+02  0.51100000000E-03 0.  1.
        -12    1    3    3    0    0  0.10472370274E+02  0.81784401562E+01 -0.57191661031E+01  0.14466038969E+02  0.00000000000E+00 0.  1.
</event>
<event>
 7    1  0.4520156E-012  0.5052887E+02  0.7816164E-02  0.1300439E+00
        -11   -1    0    0    0    0  0.00000000000E+00  0.00000000000E+00  0.45593999997E+02  0.45594000000E+02  0.51100000000E-03 0. -1.
         11   -1    0    0    0    0 -0.00000000000E+00 -0.00000000000E+00 -0.45593999997E+02  0.45594000000E+02  0.51100000000E-03 0.  1.
    9900012    2    1    2    0    0  0.48514056246E+01  0.18472880187E+02 -0.35894032057E+02  0.50528868476E+02  0.30000026220E+02 0.  0.
         12    1    1    2    0    0 -0.48514056246E+01 -0.18472880187E+02  0.35894032057E+02  0.40659131524E+02  0.00000000000E+00 0. -1.
         11    1    3    3    0    0 -0.34875778036E+01 -0.24499982099E+01 -0.23786822608E+01  0.48809650402E+01  0.51100000000E-03 0. -1.
        -11    1    3    3    0    0 -0.44009635366E+01  0.49725119266E+01 -0.20229562270E+02  0.21291536930E+02  0.51100000000E-03 0.  1.
        -12    1    3    3    0    0  0.12739946965E+02  0.15950366470E+02 -0.13285787526E+02  0.24356366506E+02  0.00000000000E+00 0.  1.
</event>
<event>
 7    1  0.4520156E-012  0.5052885E+02  0.7816164E-02  0.1300439E+00
        -11   -1    0    0    0    0  0.00000000000E+00  0.00000000000E+00  0.45593999997E+02  0.45594000000E+02  0.51100000000E-03 0. -1.
         11   -1    0    0    0    0 -0.00000000000E+00 -0.00000000000E+00 -0.45593999997E+02  0.45594000000E+02  0.51100000000E-03 0.  1.
    9900012    2    1    2    0    0  0.15586028604E+02 -0.27840730865E+02  0.25201897193E+02  0.50528853368E+02  0.29999980297E+02 0.  0.
        -12    1    1    2    0    0 -0.15586028604E+02  0.27840730865E+02 -0.25201897193E+02  0.40659146632E+02  0.00000000000E+00 0.  1.
         11    1    3    3    0    0  0.12756598221E+02 -0.52850277348E+00  0.11056540588E+02  0.16889559005E+02  0.51100000000E-03 0. -1.
        -11    1    3    3    0    0 -0.45424445692E+01 -0.70116491728E+01  0.11495884499E+01  0.84331833048E+01  0.51100000000E-03 0.  1.
        -12    1    3    3    0    0  0.73718749525E+01 -0.20300578919E+02  0.12995768155E+02  0.25206111058E+02  0.00000000000E+00 0.  1.
</event>
<event>
 7    1  0.4520156E-012  0.5052877E+02  0.7816164E-02  0.1300439E+00
        -11   -1    0    0    0    0  0.00000000000E+00  0.00000000000E+00  0.45593999997E+02  0.45594000000E+02  0.51100000000E-03 0. -1.
         11   -1    0    0    0    0 -0.00000000000E+00 -0.00000000000E+00 -0.45593999997E+02  0.45594000000E+02  0.51100000000E-03 0.  1.
    9900012    2    1    2    0    0 -0.16493036854E+01  0.10348505423E+02  0.39285636691E+02  0.50528769593E+02  0.29999725652E+02 0.  0.
        -12    1    1    2    0    0  0.16493036854E+01 -0.10348505423E+02 -0.39285636691E+02  0.40659230407E+02  0.00000000000E+00 0.  1.
         11    1    3    3    0    0  0.40617845428E+01 -0.29132610537E+01  0.73133220024E+00  0.50517354134E+01  0.51100000000E-03 0. -1.
        -11    1    3    3    0    0  0.69145490705E+00 -0.11663974807E+01 -0.17372566828E+01  0.22037817529E+01  0.51100000000E-03 0.  1.
         12    1    3    3    0    0 -0.64025431352E+01  0.14428163958E+02  0.40291561173E+02  0.43273252426E+02  0.00000000000E+00 0. -1.
</event>
<event>
 7    1  0.4520156E-012  0.5052885E+02  0.7816164E-02  0.1300439E+00
        -11   -1    0    0    0    0  0.00000000000E+00  0.00000000000E+00  0.45593999997E+02  0.45594000000E+02  0.51100000000E-03 0. -1.
         11   -1    0    0    0    0 -0.00000000000E+00 -0.00000000000E+00 -0.45593999997E+02  0.45594000000E+02  0.51100000000E-03 0.  1.
    9900012    2    1    2    0    0 -0.23541392618E+02 -0.30678358906E+02 -0.12562142622E+02  0.50528852212E+02  0.29999976785E+02 0.  0.
         12    1    1    2    0    0  0.23541392618E+02  0.30678358906E+02  0.12562142622E+02  0.40659147788E+02  0.00000000000E+00 0. -1.
         11    1    3    3    0    0 -0.44454879116E+01 -0.46858799053E+00  0.73192465481E+00  0.45296414249E+01  0.51100000000E-03 0. -1.
        -11    1    3    3    0    0 -0.59509105485E+01  0.98230109936E+00 -0.10405875243E+02  0.12027489000E+02  0.51100000000E-03 0.  1.
        -12    1    3    3    0    0 -0.13144994158E+02 -0.31192072015E+02 -0.28881920340E+01  0.33971721787E+02  0.00000000000E+00 0.  1.
</event>
<event>
 7    1  0.4520156E-012  0.5052887E+02  0.7816164E-02  0.1300439E+00
        -11   -1    0    0    0    0  0.00000000000E+00  0.00000000000E+00  0.45593999997E+02  0.45594000000E+02  0.51100000000E-03 0. -1.
         11   -1    0    0    0    0 -0.00000000000E+00 -0.00000000000E+00 -0.45593999997E+02  0.45594000000E+02  0.51100000000E-03 0.  1.
    9900012    2    1    2    0    0  0.28103124624E+01  0.33434520131E+02  0.22965194187E+02  0.50528866505E+02  0.30000020229E+02 0.  0.
        -12    1    1    2    0    0 -0.28103124624E+01 -0.33434520131E+02 -0.22965194187E+02  0.40659133495E+02  0.00000000000E+00 0.  1.
         11    1    3    3    0    0 -0.80045135264E+01  0.11447852756E+02  0.23584533770E+01  0.14166434700E+02  0.51100000000E-03 0. -1.
        -11    1    3    3    0    0  0.53402095247E+01  0.85538169082E+01 -0.12176164058E+01  0.10157175367E+02  0.51100000000E-03 0.  1.
        -12    1    3    3    0    0  0.54746164641E+01  0.13432850467E+02  0.21824357215E+02  0.26205256437E+02  0.00000000000E+00 0.  1.
</event>
<event>
 7    1  0.4520156E-012  0.5052883E+02  0.7816164E-02  0.1300439E+00
        -11   -1    0    0    0    0  0.00000000000E+00  0.00000000000E+00  0.45593999997E+02  0.45594000000E+02  0.51100000000E-03 0. -1.
         11   -1    0    0    0    0 -0.00000000000E+00 -0.00000000000E+00 -0.45593999997E+02  0.45594000000E+02  0.51100000000E-03 0.  1.
    9900012    2    1    2    0    0 -0.82537906096E+01 -0.28626738755E+02  0.27668620803E+02  0.50528833649E+02  0.29999920361E+02 0.  0.
        -12    1    1    2    0    0  0.82537906096E+01  0.28626738755E+02 -0.27668620803E+02  0.40659166351E+02  0.00000000000E+00 0.  1.
         11    1    3    3    0    0 -0.99771308132E+01 -0.77191308276E+01  0.15419639113E+02  0.19922183380E+02  0.51100000000E-03 0. -1.
        -11    1    3    3    0    0 -0.60069128114E+00 -0.39956270466E+01  0.12905380703E+02  0.13523117867E+02  0.51100000000E-03 0.  1.
        -12    1    3    3    0    0  0.23240314848E+01 -0.16911980881E+02 -0.65639901274E+00  0.17083532402E+02  0.00000000000E+00 0.  1.
</event>
<event>
 7    1  0.4520156E-012  0.5052879E+02  0.7816164E-02  0.1300439E+00
        -11   -1    0    0    0    0  0.00000000000E+00  0.00000000000E+00  0.45593999997E+02  0.45594000000E+02  0.51100000000E-03 0. -1.
         11   -1    0    0    0    0 -0.00000000000E+00 -0.00000000000E+00 -0.45593999997E+02  0.45594000000E+02  0.51100000000E-03 0.  1.
    9900012    2    1    2    0    0 -0.24284764962E+02  0.38247463237E+01 -0.32385069481E+02  0.50528791708E+02  0.29999792874E+02 0.  0.
         12    1    1    2    0    0  0.24284764962E+02 -0.38247463237E+01  0.32385069481E+02  0.40659208292E+02  0.00000000000E+00 0. -1.
         11    1    3    3    0    0 -0.72334787062E+01  0.12254815639E+02 -0.85757693884E+01  0.16614678492E+02  0.51100000000E-03 0. -1.
        -11    1    3    3    0    0  0.18031031159E+01 -0.16717612612E+00 -0.73144411694E+01  0.75352623435E+01  0.51100000000E-03 0.  1.
         12    1    3    3    0    0 -0.18854389371E+02 -0.82628931894E+01 -0.16494858923E+02  0.26378850872E+02  0.00000000000E+00 0. -1.
</event>
<event>
 7    1  0.4520156E-012  0.5052888E+02  0.7816164E-02  0.1300439E+00
        -11   -1    0    0    0    0  0.00000000000E+00  0.00000000000E+00  0.45593999997E+02  0.45594000000E+02  0.51100000000E-03 0. -1.
         11   -1    0    0    0    0 -0.00000000000E+00 -0.00000000000E+00 -0.45593999997E+02  0.45594000000E+02  0.51100000000E-03 0.  1.
    9900012    2    1    2    0    0  0.11376117705E+02 -0.36058969228E+01 -0.38868314596E+02  0.50528875240E+02  0.30000046780E+02 0.  0.
         12    1    1    2    0    0 -0.11376117705E+02  0.36058969228E+01  0.38868314596E+02  0.40659124760E+02  0.00000000000E+00 0. -1.
         11    1    3    3    0    0  0.57272309020E+01 -0.16091432183E+01 -0.25906308223E+01  0.64885964599E+01  0.51100000000E-03 0.  1.
        -11    1    3    3    0    0  0.92372558114E+01  0.60901364969E+01 -0.61884106043E+01  0.12677266407E+02  0.51100000000E-03 0. -1.
         12    1    3    3    0    0 -0.35883690081E+01 -0.80868902013E+01 -0.30089273170E+02  0.31363012374E+02  0.00000000000E+00 0. -1.
</event>
<event>
 7    1  0.4520156E-012  0.5052874E+02  0.7816164E-02  0.1300439E+00
        -11   -1    0    0    0    0  0.00000000000E+00  0.00000000000E+00  0.45593999997E+02  0.45594000000E+02  0.51100000000E-03 0.  1.
         11   -1    0    0    0    0 -0.00000000000E+00 -0.00000000000E+00 -0.45593999997E+02  0.45594000000E+02  0.51100000000E-03 0. -1.
    9900012    2    1    2    0    0 -0.31051465903E+02 -0.25356090683E+02 -0.67860615459E+01  0.50528739053E+02  0.29999632824E+02 0.  0.
         12    1    1    2    0    0  0.31051465903E+02  0.25356090683E+02  0.67860615459E+01  0.40659260947E+02  0.00000000000E+00 0. -1.
         11    1    3    3    0    0 -0.93841663887E+01 -0.11818600588E+02 -0.66431079940E+01  0.16488565212E+02  0.51100000000E-03 0. -1.
        -11    1    3    3    0    0 -0.25438463744E+02 -0.70338189667E+01  0.11206898190E+01  0.26416774838E+02  0.51100000000E-03 0.  1.
         12    1    3    3    0    0  0.37711642300E+01 -0.65036711280E+01 -0.12636433709E+01  0.76233990030E+01  0.00000000000E+00 0. -1.
</event>
<event>
 7    1  0.4520156E-012  0.5052882E+02  0.7816164E-02  0.1300439E+00
        -11   -1    0    0    0    0  0.00000000000E+00  0.00000000000E+00  0.45593999997E+02  0.45594000000E+02  0.51100000000E-03 0.  1.
         11   -1    0    0    0    0 -0.00000000000E+00 -0.00000000000E+00 -0.45593999997E+02  0.45594000000E+02  0.51100000000E-03 0. -1.
    9900012    2    1    2    0    0 -0.28347326446E+02  0.29138814833E+02  0.72646382225E+00  0.50528816582E+02  0.29999868483E+02 0.  0.
         12    1    1    2    0    0  0.28347326446E+02 -0.29138814833E+02 -0.72646382225E+00  0.40659183418E+02  0.00000000000E+00 0. -1.
         11    1    3    3    0    0 -0.78797296450E+01  0.69609279682E+00  0.13620244779E+01  0.80268172646E+01  0.51100000000E-03 0. -1.
        -11    1    3    3    0    0 -0.21793713745E+02  0.13117872697E+02  0.53548387568E+01  0.25994592539E+02  0.51100000000E-03 0.  1.
         12    1    3    3    0    0  0.13261169446E+01  0.15324849340E+02 -0.59903994124E+01  0.16507406779E+02  0.00000000000E+00 0. -1.
</event>
<event>
 7    1  0.4520156E-012  0.5052888E+02  0.7816164E-02  0.1300439E+00
        -11   -1    0    0    0    0  0.00000000000E+00  0.00000000000E+00  0.45593999997E+02  0.45594000000E+02  0.51100000000E-03 0. -1.
         11   -1    0    0    0    0 -0.00000000000E+00 -0.00000000000E+00 -0.45593999997E+02  0.45594000000E+02  0.51100000000E-03 0.  1.
    9900012    2    1    2    0    0 -0.25084051746E+02  0.89103353015E+01  0.30733703101E+02  0.50528877610E+02  0.30000053984E+02 0.  0.
        -12    1    1    2    0    0  0.25084051746E+02 -0.89103353015E+01 -0.30733703101E+02  0.40659122390E+02  0.00000000000E+00 0.  1.
         11    1    3    3    0    0 -0.92691034456E+01  0.41040552183E+01  0.77871754139E+00  0.10166904602E+02  0.51100000000E-03 0. -1.
        -11    1    3    3    0    0 -0.84027541576E+01 -0.41764428036E+01  0.13537666630E+01  0.94805926167E+01  0.51100000000E-03 0.  1.
         12    1    3    3    0    0 -0.74121941427E+01  0.89827228868E+01  0.28601218897E+02  0.30881380391E+02  0.00000000000E+00 0. -1.
</event>
<event>
 7    1  0.4520156E-012  0.5052880E+02  0.7816164E-02  0.1300439E+00
        -11   -1    0    0    0    0  0.00000000000E+00  0.00000000000E+00  0.45593999997E+02  0.45594000000E+02  0.51100000000E-03 0. -1.
         11   -1    0    0    0    0 -0.00000000000E+00 -0.00000000000E+00 -0.45593999997E+02  0.45594000000E+02  0.51100000000E-03 0.  1.
    9900012    2    1    2    0    0 -0.11376047088E+02  0.28661895829E+02  0.26500039918E+02  0.50528796423E+02  0.29999807207E+02 0.  0.
        -12    1    1    2    0    0  0.11376047088E+02 -0.28661895829E+02 -0.26500039918E+02  0.40659203577E+02  0.00000000000E+00 0.  1.
         11    1    3    3    0    0 -0.33665614691E+01  0.12546550781E+02 -0.26205966818E+01  0.13252063985E+02  0.51100000000E-03 0. -1.
        -11    1    3    3    0    0 -0.45982405870E+00  0.41090684242E+01 -0.75729657600E+00  0.42034961455E+01  0.51100000000E-03 0.  1.
         12    1    3    3    0    0 -0.75496615605E+01  0.12006276624E+02  0.29877933176E+02  0.33073236293E+02  0.00000000000E+00 0. -1.
</event>
<event>
 7    1  0.4520156E-012  0.5052885E+02  0.7816164E-02  0.1300439E+00
        -11   -1    0    0    0    0  0.00000000000E+00  0.00000000000E+00  0.45593999997E+02  0.45594000000E+02  0.51100000000E-03 0.  1.
         11   -1    0    0    0    0 -0.00000000000E+00 -0.00000000000E+00 -0.45593999997E+02  0.45594000000E+02  0.51100000000E-03 0. -1.
    9900012    2    1    2    0    0  0.47103678310E+01 -0.33652797690E+02 -0.22326397904E+02  0.50528850958E+02  0.29999972972E+02 0.  0.
         12    1    1    2    0    0 -0.47103678310E+01  0.33652797690E+02  0.22326397904E+02  0.40659149042E+02  0.00000000000E+00 0. -1.
         11    1    3    3    0    0 -0.24060784361E+01 -0.17815647013E+02 -0.12869719880E+02  0.22109187728E+02  0.51100000000E-03 0. -1.
        -11    1    3    3    0    0 -0.28108420007E+01 -0.16569528851E+02 -0.66823354938E+01  0.18086009151E+02  0.51100000000E-03 0.  1.
         12    1    3    3    0    0  0.99272882678E+01  0.73237817507E+00 -0.27743425296E+01  0.10333654079E+02  0.00000000000E+00 0. -1.
</event>
<event>
 7    1  0.4520156E-012  0.5052888E+02  0.7816164E-02  0.1300439E+00
        -11   -1    0    0    0    0  0.00000000000E+00  0.00000000000E+00  0.45593999997E+02  0.45594000000E+02  0.51100000000E-03 0. -1.
         11   -1    0    0    0    0 -0.00000000000E+00 -0.00000000000E+00 -0.45593999997E+02  0.45594000000E+02  0.51100000000E-03 0.  1.
    9900012    2    1    2    0    0  0.81481577124E+01  0.58135155264E+01 -0.39407798617E+02  0.50528880128E+02  0.30000061638E+02 0.  0.
         12    1    1    2    0    0 -0.81481577124E+01 -0.58135155264E+01  0.39407798617E+02  0.40659119872E+02  0.00000000000E+00 0. -1.
         11    1    3    3    0    0 -0.35024909489E+01  0.12721058599E+02 -0.16954498460E+02  0.21483663398E+02  0.51100000000E-03 0. -1.
        -11    1    3    3    0    0  0.41143266767E+01  0.30972713656E+01 -0.10671824717E+02  0.11849414203E+02  0.51100000000E-03 0.  1.
         12    1    3    3    0    0  0.75363219846E+01 -0.10004814438E+02 -0.11781475441E+02  0.17195802527E+02  0.00000000000E+00 0. -1.
</event>
<event>
 7    1  0.4520156E-012  0.5052886E+02  0.7816164E-02  0.1300439E+00
        -11   -1    0    0    0    0  0.00000000000E+00  0.00000000000E+00  0.45593999997E+02  0.45594000000E+02  0.51100000000E-03 0. -1.
         11   -1    0    0    0    0 -0.00000000000E+00 -0.00000000000E+00 -0.45593999997E+02  0.45594000000E+02  0.51100000000E-03 0.  1.
    9900012    2    1    2    0    0  0.87468350917E+01  0.15822704969E+02 -0.36418414663E+02  0.50528855355E+02  0.29999986338E+02 0.  0.
         12    1    1    2    0    0 -0.87468350917E+01 -0.15822704969E+02  0.36418414663E+02  0.40659144645E+02  0.00000000000E+00 0. -1.
         11    1    3    3    0    0  0.25642243336E+01  0.11376835783E+02 -0.46056188029E+01  0.12538714595E+02  0.51100000000E-03 0. -1.
        -11    1    3    3    0    0  0.61227718413E+01  0.92577259001E+01 -0.79644526913E+01  0.13661124800E+02  0.51100000000E-03 0.  1.
         12    1    3    3    0    0  0.59838916838E-01 -0.48118567141E+01 -0.23848343169E+02  0.24329015961E+02  0.00000000000E+00 0. -1.
</event>
<event>
 7    1  0.4520156E-012  0.5052885E+02  0.7816164E-02  0.1300439E+00
        -11   -1    0    0    0    0  0.00000000000E+00  0.00000000000E+00  0.45593999997E+02  0.45594000000E+02  0.51100000000E-03 0. -1.
         11   -1    0    0    0    0 -0.00000000000E+00 -0.00000000000E+00 -0.45593999997E+02  0.45594000000E+02  0.51100000000E-03 0.  1.
    9900012    2    1    2    0    0 -0.26994687013E+01 -0.29655699284E+01 -0.40460902339E+02  0.50528851530E+02  0.29999974709E+02 0.  0.
         12    1    1    2    0    0  0.26994687013E+01  0.29655699284E+01  0.40460902339E+02  0.40659148470E+02  0.00000000000E+00 0. -1.
         11    1    3    3    0    0 -0.20328914905E+01  0.15809979199E+01  0.36193061578E+01  0.44420242637E+01  0.51100000000E-03 0. -1.
        -11    1    3    3    0    0 -0.44893555188E+00 -0.35282955141E+01 -0.21757810690E+01  0.41694647002E+01  0.51100000000E-03 0.  1.
        -12    1    3    3    0    0 -0.21764165898E+00 -0.10182723342E+01 -0.41904427427E+02  0.41917362566E+02  0.00000000000E+00 0.  1.
</event>
<event>
 7    1  0.4520156E-012  0.5052886E+02  0.7816164E-02  0.1300439E+00
        -11   -1    0    0    0    0  0.00000000000E+00  0.00000000000E+00  0.45593999997E+02  0.45594000000E+02  0.51100000000E-03 0. -1.
         11   -1    0    0    0    0 -0.00000000000E+00 -0.00000000000E+00 -0.45593999997E+02  0.45594000000E+02  0.51100000000E-03 0.  1.
    9900012    2    1    2    0    0 -0.28750452563E+02 -0.20203400709E+02 -0.20454818548E+02  0.50528861733E+02  0.30000005724E+02 0.  0.
         12    1    1    2    0    0  0.28750452563E+02  0.20203400709E+02  0.20454818548E+02  0.40659138267E+02  0.00000000000E+00 0. -1.
         11    1    3    3    0    0 -0.39783977058E+01 -0.40567816895E+01  0.56695657692E+01  0.80267740876E+01  0.51100000000E-03 0. -1.
        -11    1    3    3    0    0 -0.16686731883E+02 -0.70984516997E+01 -0.61828989102E+01  0.19158895497E+02  0.51100000000E-03 0.  1.
        -12    1    3    3    0    0 -0.80853229739E+01 -0.90481673196E+01 -0.19941485407E+02  0.23343192148E+02  0.00000000000E+00 0.  1.
</event>
<event>
 7    1  0.4520156E-012  0.5052886E+02  0.7816164E-02  0.1300439E+00
        -11   -1    0    0    0    0  0.00000000000E+00  0.00000000000E+00  0.45593999997E+02  0.45594000000E+02  0.51100000000E-03 0. -1.
         11   -1    0    0    0    0 -0.00000000000E+00 -0.00000000000E+00 -0.45593999997E+02  0.45594000000E+02  0.51100000000E-03 0.  1.
    9900012    2    1    2    0    0  0.57392325307E+01  0.96277575784E+01  0.39083668496E+02  0.50528860201E+02  0.30000001068E+02 0.  0.
        -12    1    1    2    0    0 -0.57392325307E+01 -0.96277575784E+01 -0.39083668496E+02  0.40659139799E+02  0.00000000000E+00 0.  1.
         11    1    3    3    0    0  0.55452938675E+01  0.10302029277E+02  0.29335695735E+02  0.31582671448E+02  0.51100000000E-03 0. -1.
        -11    1    3    3    0    0  0.52961969483E+01  0.47350251052E+01  0.90097114312E+01  0.11473668341E+02  0.51100000000E-03 0.  1.
        -12    1    3    3    0    0 -0.51022582850E+01 -0.54092968037E+01  0.73826133019E+00  0.74725204121E+01  0.00000000000E+00 0.  1.
</event>
<event>
 7    1  0.4520156E-012  0.5052886E+02  0.7816164E-02  0.1300439E+00
        -11   -1    0    0    0    0  0.00000000000E+00  0.00000000000E+00  0.45593999997E+02  0.45594000000E+02  0.51100000000E-03 0. -1.
         11   -1    0    0    0    0 -0.00000000000E+00 -0.00000000000E+00 -0.45593999997E+02  0.45594000000E+02  0.51100000000E-03 0.  1.
    9900012    2    1    2    0    0 -0.71881249722E+01  0.20089222710E+02  0.34610975314E+02  0.50528860537E+02  0.30000002089E+02 0.  0.
        -12    1    1    2    0    0  0.71881249722E+01 -0.20089222710E+02 -0.34610975314E+02  0.40659139463E+02  0.00000000000E+00 0.  1.
         11    1    3    3    0    0 -0.21337471694E+01  0.38311363130E+00  0.32304977859E+01  0.38904715965E+01  0.51100000000E-03 0. -1.
        -11    1    3    3    0    0 -0.11713856685E+02  0.23204544755E+02  0.19174571806E+02  0.32300612067E+02  0.51100000000E-03 0.  1.
         12    1    3    3    0    0  0.66594788822E+01 -0.34984356769E+01  0.12205905722E+02  0.14337776873E+02  0.00000000000E+00 0. -1.
</event>
<event>
 7    1  0.4520156E-012  0.5052886E+02  0.7816164E-02  0.1300439E+00
        -11   -1    0    0    0    0  0.00000000000E+00  0.00000000000E+00  0.45593999997E+02  0.45594000000E+02  0.51100000000E-03 0. -1.
         11   -1    0    0    0    0 -0.00000000000E+00 -0.00000000000E+00 -0.45593999997E+02  0.45594000000E+02  0.51100000000E-03 0.  1.
    9900012    2    1    2    0    0 -0.11959201605E+02 -0.28743100311E+02  0.26152964799E+02  0.50528857285E+02  0.29999992205E+02 0.  0.
        -12    1    1    2    0    0  0.11959201605E+02  0.28743100311E+02 -0.26152964799E+02  0.40659142715E+02  0.00000000000E+00 0.  1.
         11    1    3    3    0    0 -0.31805469261E+00 -0.20431938676E+02  0.49891104924E+01  0.21034650000E+02  0.51100000000E-03 0. -1.
        -11    1    3    3    0    0 -0.18958136188E+00 -0.90582889632E+01  0.89712206440E+01  0.12750346667E+02  0.51100000000E-03 0.  1.
        -12    1    3    3    0    0 -0.11451565550E+02  0.74712732750E+00  0.12192633662E+02  0.16743860619E+02  0.00000000000E+00 0.  1.
</event>
<event>
 7    1  0.4520156E-012  0.5052887E+02  0.7816164E-02  0.1300439E+00
        -11   -1    0    0    0    0  0.00000000000E+00  0.00000000000E+00  0.45593999997E+02  0.45594000000E+02  0.51100000000E-03 0. -1.
         11   -1    0    0    0    0 -0.00000000000E+00 -0.00000000000E+00 -0.45593999997E+02  0.45594000000E+02  0.51100000000E-03 0.  1.
    9900012    2    1    2    0    0  0.23314563323E+02 -0.24322403851E+02 -0.22759981167E+02  0.50528868987E+02  0.30000027772E+02 0.  0.
         12    1    1    2    0    0 -0.23314563323E+02  0.24322403851E+02  0.22759981167E+02  0.40659131013E+02  0.00000000000E+00 0. -1.
         11    1    3    3    0    0 -0.45466949226E+01 -0.19351183577E+01  0.29394421298E+01  0.57495598156E+01  0.51100000000E-03 0. -1.
        -11    1    3    3    0    0  0.37952114855E+01 -0.13264631745E+01 -0.47474419110E+00  0.40482733456E+01  0.51100000000E-03 0.  1.
        -12    1    3    3    0    0  0.24066046760E+02 -0.21060822319E+02 -0.25224679105E+02  0.40731035825E+02  0.00000000000E+00 0.  1.
</event>
<event>
 7    1  0.4520156E-012  0.5052886E+02  0.7816164E-02  0.1300439E+00
        -11   -1    0    0    0    0  0.00000000000E+00  0.00000000000E+00  0.45593999997E+02  0.45594000000E+02  0.51100000000E-03 0. -1.
         11   -1    0    0    0    0 -0.00000000000E+00 -0.00000000000E+00 -0.45593999997E+02  0.45594000000E+02  0.51100000000E-03 0.  1.
    9900012    2    1    2    0    0 -0.82665763438E+01 -0.21816175329E+02 -0.33299913195E+02  0.50528855774E+02  0.29999987611E+02 0.  0.
         12    1    1    2    0    0  0.82665763438E+01  0.21816175329E+02  0.33299913195E+02  0.40659144226E+02  0.00000000000E+00 0. -1.
         11    1    3    3    0    0 -0.10080589347E+02  0.30359716363E+01 -0.45134096488E+01  0.11454530645E+02  0.51100000000E-03 0. -1.
        -11    1    3    3    0    0 -0.10277943590E+01 -0.18120778474E+01 -0.67571292301E+01  0.70709817609E+01  0.51100000000E-03 0.  1.
         12    1    3    3    0    0  0.28418073625E+01 -0.23040069118E+02 -0.22029374316E+02  0.32003343369E+02  0.00000000000E+00 0. -1.
</event>
<event>
 7    1  0.4520156E-012  0.5052886E+02  0.7816164E-02  0.1300439E+00
        -11   -1    0    0    0    0  0.00000000000E+00  0.00000000000E+00  0.45593999997E+02  0.45594000000E+02  0.51100000000E-03 0. -1.
         11   -1    0    0    0    0 -0.00000000000E+00 -0.00000000000E+00 -0.45593999997E+02  0.45594000000E+02  0.51100000000E-03 0.  1.
    9900012    2    1    2    0    0 -0.20311948880E+02 -0.14067819816E+02  0.32290660661E+02  0.50528860958E+02  0.30000003369E+02 0.  0.
        -12    1    1    2    0    0  0.20311948880E+02  0.14067819816E+02 -0.32290660661E+02  0.40659139042E+02  0.00000000000E+00 0.  1.
         11    1    3    3    0    0 -0.27325237701E+01  0.46367400797E+01  0.10845368849E+02  0.12107356047E+02  0.51100000000E-03 0. -1.
        -11    1    3    3    0    0 -0.32636759297E+00 -0.27538644147E+01  0.13249339631E+02  0.13536442883E+02  0.51100000000E-03 0.  1.
        -12    1    3    3    0    0 -0.17253057516E+02 -0.15950695481E+02  0.81959521821E+01  0.24885062028E+02  0.00000000000E+00 0.  1.
</event>
<event>
 7    1  0.4520156E-012  0.5052886E+02  0.7816164E-02  0.1300439E+00
        -11   -1    0    0    0    0  0.00000000000E+00  0.00000000000E+00  0.45593999997E+02  0.45594000000E+02  0.51100000000E-03 0. -1.
         11   -1    0    0    0    0 -0.00000000000E+00 -0.00000000000E+00 -0.45593999997E+02  0.45594000000E+02  0.51100000000E-03 0.  1.
    9900012    2    1    2    0    0  0.33685001491E+02  0.13805660120E+02 -0.18107726905E+02  0.50528863875E+02  0.30000012234E+02 0.  0.
         12    1    1    2    0    0 -0.33685001491E+02 -0.13805660120E+02  0.18107726905E+02  0.40659136125E+02  0.00000000000E+00 0. -1.
         11    1    3    3    0    0 -0.62164805025E-01 -0.32538633924E+00  0.20966654380E+01  0.21226744811E+01  0.51100000000E-03 0. -1.
        -11    1    3    3    0    0  0.88314911578E+01  0.14308887492E+02 -0.81515981346E+00  0.16834606711E+02  0.51100000000E-03 0.  1.
        -12    1    3    3    0    0  0.24915675138E+02 -0.17784103261E+00 -0.19389232530E+02  0.31571582683E+02  0.00000000000E+00 0.  1.
</event>
<event>
 7    1  0.4520156E-012  0.5052886E+02  0.7816164E-02  0.1300439E+00
        -11   -1    0    0    0    0  0.00000000000E+00  0.00000000000E+00  0.45593999997E+02  0.45594000000E+02  0.51100000000E-03 0.  1.
         11   -1    0    0    0    0 -0.00000000000E+00 -0.00000000000E+00 -0.45593999997E+02  0.45594000000E+02  0.51100000000E-03 0. -1.
    9900012    2    1    2    0    0  0.23948059377E+02  0.32710979211E+02 -0.31061437916E+01  0.50528857878E+02  0.29999994005E+02 0.  0.
         12    1    1    2    0    0 -0.23948059377E+02 -0.32710979211E+02  0.31061437916E+01  0.40659142122E+02  0.00000000000E+00 0. -1.
         11    1    3    3    0    0  0.12280386295E+02  0.13000288539E+02  0.92213111817E+01  0.20120834223E+02  0.51100000000E-03 0.  1.
        -11    1    3    3    0    0  0.14035733039E+02  0.19483356216E+02 -0.77206452716E+01  0.25223230068E+02  0.51100000000E-03 0. -1.
        -12    1    3    3    0    0 -0.23680599562E+01  0.22733445516E+00 -0.46068097018E+01  0.51847935869E+01  0.00000000000E+00 0.  1.
</event>
<event>
 7    1  0.4520156E-012  0.5052887E+02  0.7816164E-02  0.1300439E+00
        -11   -1    0    0    0    0  0.00000000000E+00  0.00000000000E+00  0.45593999997E+02  0.45594000000E+02  0.51100000000E-03 0. -1.
         11   -1    0    0    0    0 -0.00000000000E+00 -0.00000000000E+00 -0.45593999997E+02  0.45594000000E+02  0.51100000000E-03 0.  1.
    9900012    2    1    2    0    0  0.57678869086E+01 -0.19115455657E+02  0.35418858342E+02  0.50528871988E+02  0.30000036896E+02 0.  0.
        -12    1    1    2    0    0 -0.57678869086E+01  0.19115455657E+02 -0.35418858342E+02  0.40659128012E+02  0.00000000000E+00 0.  1.
         11    1    3    3    0    0  0.79709273011E+01  0.18347096752E+01  0.11857529804E+02  0.14404959387E+02  0.51100000000E-03 0.  1.
        -11    1    3    3    0    0  0.56193734647E+01 -0.10180421232E+02  0.36774619336E+01  0.12195985451E+02  0.51100000000E-03 0. -1.
        -12    1    3    3    0    0 -0.78224138572E+01 -0.10769744101E+02  0.19883866605E+02  0.23927927150E+02  0.00000000000E+00 0.  1.
</event>
<event>
 7    1  0.4520156E-012  0.5052884E+02  0.7816164E-02  0.1300439E+00
        -11   -1    0    0    0    0  0.00000000000E+00  0.00000000000E+00  0.45593999997E+02  0.45594000000E+02  0.51100000000E-03 0. -1.
         11   -1    0    0    0    0 -0.00000000000E+00 -0.00000000000E+00 -0.45593999997E+02  0.45594000000E+02  0.51100000000E-03 0.  1.
    9900012    2    1    2    0    0 -0.32777246076E+02  0.14020753003E+02  0.19550916127E+02  0.50528835024E+02  0.29999924540E+02 0.  0.
        -12    1    1    2    0    0  0.32777246076E+02 -0.14020753003E+02 -0.19550916127E+02  0.40659164976E+02  0.00000000000E+00 0.  1.
         11    1    3    3    0    0 -0.19494370181E+02 -0.17689743614E+01  0.16227986036E+02  0.25426507234E+02  0.51100000000E-03 0. -1.
        -11    1    3    3    0    0 -0.78331515626E+01  0.88492482534E+00 -0.23870879980E+01  0.82364764748E+01  0.51100000000E-03 0.  1.
        -12    1    3    3    0    0 -0.54497243326E+01  0.14904802539E+02  0.57100180881E+01  0.16865851316E+02  0.00000000000E+00 0.  1.
</event>
<event>
 7    1  0.4520156E-012  0.5052885E+02  0.7816164E-02  0.1300439E+00
        -11   -1    0    0    0    0  0.00000000000E+00  0.00000000000E+00  0.45593999997E+02  0.45594000000E+02  0.51100000000E-03 0. -1.
         11   -1    0    0    0    0 -0.00000000000E+00 -0.00000000000E+00 -0.45593999997E+02  0.45594000000E+02  0.51100000000E-03 0.  1.
    9900012    2    1    2    0    0 -0.14005656197E+02 -0.30739724840E+02  0.22629126439E+02  0.50528850327E+02  0.29999971053E+02 0.  0.
        -12    1    1    2    0    0  0.14005656197E+02  0.30739724840E+02 -0.22629126439E+02  0.40659149673E+02  0.00000000000E+00 0.  1.
         11    1    3    3    0    0  0.11032107122E+01 -0.65430139874E+01  0.45282299709E+01  0.80332417395E+01  0.51100000000E-03 0. -1.
        -11    1    3    3    0    0 -0.15584887677E+01 -0.15507231853E+02 -0.30853140341E+01  0.15887803182E+02  0.51100000000E-03 0.  1.
         12    1    3    3    0    0 -0.13550378142E+02 -0.86894789992E+01  0.21186210502E+02  0.26607805405E+02  0.00000000000E+00 0. -1.
</event>
<event>
 7    1  0.4520156E-012  0.5052887E+02  0.7816164E-02  0.1300439E+00
        -11   -1    0    0    0    0  0.00000000000E+00  0.00000000000E+00  0.45593999997E+02  0.45594000000E+02  0.51100000000E-03 0. -1.
         11   -1    0    0    0    0 -0.00000000000E+00 -0.00000000000E+00 -0.45593999997E+02  0.45594000000E+02  0.51100000000E-03 0.  1.
    9900012    2    1    2    0    0 -0.12459573858E+02  0.13461470161E+02 -0.36286541465E+02  0.50528865096E+02  0.30000015947E+02 0.  0.
         12    1    1    2    0    0  0.12459573858E+02 -0.13461470161E+02  0.36286541465E+02  0.40659134904E+02  0.00000000000E+00 0. -1.
         11    1    3    3    0    0 -0.92376493726E+01  0.29426714461E+01 -0.21035801805E+01  0.99206114231E+01  0.51100000000E-03 0. -1.
        -11    1    3    3    0    0 -0.15008906634E+01 -0.35157228282E+01 -0.23101434133E+00  0.38296667839E+01  0.51100000000E-03 0.  1.
         12    1    3    3    0    0 -0.17210338218E+01  0.14034521543E+02 -0.33951946943E+02  0.36778586890E+02  0.00000000000E+00 0. -1.
</event>
<event>
 7    1  0.4520156E-012  0.5052885E+02  0.7816164E-02  0.1300439E+00
        -11   -1    0    0    0    0  0.00000000000E+00  0.00000000000E+00  0.45593999997E+02  0.45594000000E+02  0.51100000000E-03 0. -1.
         11   -1    0    0    0    0 -0.00000000000E+00 -0.00000000000E+00 -0.45593999997E+02  0.45594000000E+02  0.51100000000E-03 0.  1.
    9900012    2    1    2    0    0 -0.12629434833E+02 -0.30941167758E+02 -0.23158322324E+02  0.50528851223E+02  0.29999973777E+02 0.  0.
         12    1    1    2    0    0  0.12629434833E+02  0.30941167758E+02  0.23158322324E+02  0.40659148777E+02  0.00000000000E+00 0. -1.
         11    1    3    3    0    0  0.25882537134E+01  0.30572445413E+01  0.24307200659E+01  0.46855311087E+01  0.51100000000E-03 0. -1.
        -11    1    3    3    0    0 -0.34021825318E+01 -0.15000653687E+02 -0.13203961382E+02  0.20271631742E+02  0.51100000000E-03 0.  1.
        -12    1    3    3    0    0 -0.11815506014E+02 -0.18997758612E+02 -0.12385081007E+02  0.25571688373E+02  0.00000000000E+00 0.  1.
</event>
<event>
 7    1  0.4520156E-012  0.5052885E+02  0.7816164E-02  0.1300439E+00
        -11   -1    0    0    0    0  0.00000000000E+00  0.00000000000E+00  0.45593999997E+02  0.45594000000E+02  0.51100000000E-03 0. -1.
         11   -1    0    0    0    0 -0.00000000000E+00 -0.00000000000E+00 -0.45593999997E+02  0.45594000000E+02  0.51100000000E-03 0.  1.
    9900012    2    1    2    0    0 -0.22197736217E+02  0.11355659076E+02 -0.32116595847E+02  0.50528853243E+02  0.29999979916E+02 0.  0.
         12    1    1    2    0    0  0.22197736217E+02 -0.11355659076E+02  0.32116595847E+02  0.40659146757E+02  0.00000000000E+00 0. -1.
         11    1    3    3    0    0 -0.13020598088E+02  0.20577802147E+02 -0.17308650318E+02  0.29875931648E+02  0.51100000000E-03 0. -1.
        -11    1    3    3    0    0  0.16575704839E+00  0.14833671195E+00  0.42229524348E+00  0.47729730042E+00  0.51100000000E-03 0.  1.
        -12    1    3    3    0    0 -0.93428951776E+01 -0.93704797823E+01 -0.15230240773E+02  0.20175624294E+02  0.00000000000E+00 0.  1.
</event>
<event>
 7    1  0.4520156E-012  0.5052885E+02  0.7816164E-02  0.1300439E+00
        -11   -1    0    0    0    0  0.00000000000E+00  0.00000000000E+00  0.45593999997E+02  0.45594000000E+02  0.51100000000E-03 0. -1.
         11   -1    0    0    0    0 -0.00000000000E+00 -0.00000000000E+00 -0.45593999997E+02  0.45594000000E+02  0.51100000000E-03 0.  1.
    9900012    2    1    2    0    0  0.35009232954E+02 -0.59274739855E+01 -0.19808722598E+02  0.50528845670E+02  0.29999956898E+02 0.  0.
         12    1    1    2    0    0 -0.35009232954E+02  0.59274739855E+01  0.19808722598E+02  0.40659154330E+02  0.00000000000E+00 0. -1.
         11    1    3    3    0    0  0.56601253443E+01  0.63298889830E+01 -0.10255006577E+02  0.13314265793E+02  0.51100000000E-03 0. -1.
        -11    1    3    3    0    0  0.13773168027E+02  0.23023057877E+01 -0.28847792649E+00  0.13967247017E+02  0.51100000000E-03 0.  1.
         12    1    3    3    0    0  0.15575939582E+02 -0.14559668756E+02 -0.92652380943E+01  0.23247332860E+02  0.00000000000E+00 0. -1.
</event>
<event>
 7    1  0.4520156E-012  0.5052887E+02  0.7816164E-02  0.1300439E+00
        -11   -1    0    0    0    0  0.00000000000E+00  0.00000000000E+00  0.45593999997E+02  0.45594000000E+02  0.51100000000E-03 0. -1.
         11   -1    0    0    0    0 -0.00000000000E+00 -0.00000000000E+00 -0.45593999997E+02  0.45594000000E+02  0.51100000000E-03 0.  1.
    9900012    2    1    2    0    0  0.31460080686E+02  0.11248030747E+02  0.23171324994E+02  0.50528866040E+02  0.30000018814E+02 0.  0.
        -12    1    1    2    0    0 -0.31460080686E+02 -0.11248030747E+02 -0.23171324994E+02  0.40659133960E+02  0.00000000000E+00 0.  1.
         11    1    3    3    0    0  0.13461318757E+02  0.43584255209E+01  0.11773512563E+02  0.18407025127E+02  0.51100000000E-03 0. -1.
        -11    1    3    3    0    0  0.14815195075E+02 -0.46186492539E+01  0.12777521808E+02  0.20101915079E+02  0.51100000000E-03 0.  1.
         12    1    3    3    0    0  0.31835668538E+01  0.11508254480E+02 -0.13797093765E+01  0.12019925834E+02  0.00000000000E+00 0. -1.
</event>
<event>
 7    1  0.4520156E-012  0.5052878E+02  0.7816164E-02  0.1300439E+00
        -11   -1    0    0    0    0  0.00000000000E+00  0.00000000000E+00  0.45593999997E+02  0.45594000000E+02  0.51100000000E-03 0. -1.
         11   -1    0    0    0    0 -0.00000000000E+00 -0.00000000000E+00 -0.45593999997E+02  0.45594000000E+02  0.51100000000E-03 0.  1.
    9900012    2    1    2    0    0  0.21522521862E+02  0.32699804791E+02 -0.10985271221E+02  0.50528777621E+02  0.29999750055E+02 0.  0.
         12    1    1    2    0    0 -0.21522521862E+02 -0.32699804791E+02  0.10985271221E+02  0.40659222379E+02  0.00000000000E+00 0. -1.
         11    1    3    3    0    0 -0.61627439194E+00 -0.51422400833E+00 -0.16927905177E+01  0.18734354686E+01  0.51100000000E-03 0. -1.
        -11    1    3    3    0    0 -0.50250028107E+01  0.10752103272E+02  0.10681876385E+01  0.11916350243E+02  0.51100000000E-03 0.  1.
        -12    1    3    3    0    0  0.27163799065E+02  0.22461925527E+02 -0.10360668342E+02  0.36738991910E+02  0.00000000000E+00 0.  1.
</event>
<event>
 7    1  0.4520156E-012  0.5052886E+02  0.7816164E-02  0.1300439E+00
        -11   -1    0    0    0    0  0.00000000000E+00  0.00000000000E+00  0.45593999997E+02  0.45594000000E+02  0.51100000000E-03 0. -1.
         11   -1    0    0    0    0 -0.00000000000E+00 -0.00000000000E+00 -0.45593999997E+02  0.45594000000E+02  0.51100000000E-03 0.  1.
    9900012    2    1    2    0    0 -0.14239323470E+02  0.38070978274E+02 -0.10037730125E+01  0.50528864742E+02  0.30000014871E+02 0.  0.
         12    1    1    2    0    0  0.14239323470E+02 -0.38070978274E+02  0.10037730125E+01  0.40659135258E+02  0.00000000000E+00 0. -1.
         11    1    3    3    0    0  0.52221600169E+01  0.93613629578E+01 -0.34590498211E+01  0.11263707098E+02  0.51100000000E-03 0. -1.
        -11    1    3    3    0    0 -0.23313622416E+01  0.12339923143E+02 -0.62436917158E+01  0.14024715311E+02  0.51100000000E-03 0.  1.
        -12    1    3    3    0    0 -0.17130121245E+02  0.16369692174E+02  0.86989685245E+01  0.25240442332E+02  0.00000000000E+00 0.  1.
</event>
<event>
 7    1  0.5198029E-012  0.5052885E+02  0.7816164E-02  0.1300439E+00
        -11   -1    0    0    0    0  0.00000000000E+00  0.00000000000E+00  0.45593999997E+02  0.45594000000E+02  0.51100000000E-03 0. -1.
         11   -1    0    0    0    0 -0.00000000000E+00 -0.00000000000E+00 -0.45593999997E+02  0.45594000000E+02  0.51100000000E-03 0.  1.
    9900012    2    1    2    0    0  0.26956669120E+02 -0.22012671322E+00  0.30437745787E+02  0.50528845626E+02  0.29999956764E+02 0.  0.
        -12    1    1    2    0    0 -0.26956669120E+02  0.22012671322E+00 -0.30437745787E+02  0.40659154374E+02  0.00000000000E+00 0.  1.
         11    1    3    3    0    0  0.14192241222E+02 -0.61870927493E+01  0.95155522778E+01  0.18172659767E+02  0.51100000000E-03 0. -1.
        -11    1    3    3    0    0 -0.37640608977E+01 -0.36678314060E+01  0.25896132048E+01  0.58589451675E+01  0.51100000000E-03 0.  1.
         12    1    3    3    0    0  0.16528488796E+02  0.96347974422E+01  0.18332580305E+02  0.26497240692E+02  0.00000000000E+00 0. -1.
</event>
<event>
 7    1  0.4520156E-012  0.5052886E+02  0.7816164E-02  0.1300439E+00
        -11   -1    0    0    0    0  0.00000000000E+00  0.00000000000E+00  0.45593999997E+02  0.45594000000E+02  0.51100000000E-03 0. -1.
         11   -1    0    0    0    0 -0.00000000000E+00 -0.00000000000E+00 -0.45593999997E+02  0.45594000000E+02  0.51100000000E-03 0.  1.
    9900012    2    1    2    0    0 -0.16265436046E+02 -0.15687300360E+02 -0.33801037980E+02  0.50528856245E+02  0.29999989043E+02 0.  0.
         12    1    1    2    0    0  0.16265436046E+02  0.15687300360E+02  0.33801037980E+02  0.40659143755E+02  0.00000000000E+00 0. -1.
         11    1    3    3    0    0 -0.79323333343E+01  0.29744376292E+01 -0.51840962907E+01  0.99319708995E+01  0.51100000000E-03 0. -1.
        -11    1    3    3    0    0 -0.10625180829E+02 -0.20128112247E+01 -0.58382146510E+01  0.12289451870E+02  0.51100000000E-03 0.  1.
        -12    1    3    3    0    0  0.22920781179E+01 -0.16648926765E+02 -0.22778727038E+02  0.28307433476E+02  0.00000000000E+00 0.  1.
</event>
<event>
 7    1  0.4520156E-012  0.5052884E+02  0.7816164E-02  0.1300439E+00
        -11   -1    0    0    0    0  0.00000000000E+00  0.00000000000E+00  0.45593999997E+02  0.45594000000E+02  0.51100000000E-03 0. -1.
         11   -1    0    0    0    0 -0.00000000000E+00 -0.00000000000E+00 -0.45593999997E+02  0.45594000000E+02  0.51100000000E-03 0.  1.
    9900012    2    1    2    0    0 -0.27986356327E+02 -0.22210962168E+02 -0.19406285373E+02  0.50528844907E+02  0.29999954579E+02 0.  0.
         12    1    1    2    0    0  0.27986356327E+02  0.22210962168E+02  0.19406285373E+02  0.40659155093E+02  0.00000000000E+00 0. -1.
         11    1    3    3    0    0 -0.23808006668E+01 -0.15303859171E+02 -0.77408956420E+01  0.17314669588E+02  0.51100000000E-03 0. -1.
        -11    1    3    3    0    0 -0.14199278023E+02 -0.68738513582E+01 -0.14536787398E+02  0.21451981656E+02  0.51100000000E-03 0.  1.
         12    1    3    3    0    0 -0.11406277638E+02 -0.33251638993E-01  0.28713976663E+01  0.11762193663E+02  0.00000000000E+00 0. -1.
</event>
<event>
 7    1  0.4520156E-012  0.5052887E+02  0.7816164E-02  0.1300439E+00
        -11   -1    0    0    0    0  0.00000000000E+00  0.00000000000E+00  0.45593999997E+02  0.45594000000E+02  0.51100000000E-03 0. -1.
         11   -1    0    0    0    0 -0.00000000000E+00 -0.00000000000E+00 -0.45593999997E+02  0.45594000000E+02  0.51100000000E-03 0.  1.
    9900012    2    1    2    0    0  0.51487969141E+01 -0.73742701984E+01 -0.39651924759E+02  0.50528866860E+02  0.30000021308E+02 0.  0.
         12    1    1    2    0    0 -0.51487969141E+01  0.73742701984E+01  0.39651924759E+02  0.40659133140E+02  0.00000000000E+00 0. -1.
         11    1    3    3    0    0  0.46268872858E+01  0.84265630471E+01 -0.91128499512E+01  0.13246096981E+02  0.51100000000E-03 0. -1.
        -11    1    3    3    0    0  0.53361188587E+01 -0.86348403855E+00 -0.10689120482E+02  0.11978191270E+02  0.51100000000E-03 0.  1.
        -12    1    3    3    0    0 -0.48142092304E+01 -0.14937349207E+02 -0.19849954326E+02  0.25304578609E+02  0.00000000000E+00 0.  1.
</event>
<event>
 7    1  0.4520156E-012  0.5052886E+02  0.7816164E-02  0.1300439E+00
        -11   -1    0    0    0    0  0.00000000000E+00  0.00000000000E+00  0.45593999997E+02  0.45594000000E+02  0.51100000000E-03 0. -1.
         11   -1    0    0    0    0 -0.00000000000E+00 -0.00000000000E+00 -0.45593999997E+02  0.45594000000E+02  0.51100000000E-03 0.  1.
    9900012    2    1    2    0    0 -0.19355868711E+02  0.11216161119E+02  0.33951643809E+02  0.50528855381E+02  0.29999986416E+02 0.  0.
        -12    1    1    2    0    0  0.19355868711E+02 -0.11216161119E+02 -0.33951643809E+02  0.40659144619E+02  0.00000000000E+00 0.  1.
         11    1    3    3    0    0 -0.20770702146E+01 -0.10224073059E+01  0.31258857808E+01  0.38898199896E+01  0.51100000000E-03 0. -1.
        -11    1    3    3    0    0 -0.49782718032E+01  0.49559546383E+01 -0.46279280521E+01  0.84120386851E+01  0.51100000000E-03 0.  1.
         12    1    3    3    0    0 -0.12300526693E+02  0.72826137864E+01  0.35453686080E+02  0.38226996706E+02  0.00000000000E+00 0. -1.
</event>
<event>
 7    1  0.4520156E-012  0.5052890E+02  0.7816164E-02  0.1300439E+00
        -11   -1    0    0    0    0  0.00000000000E+00  0.00000000000E+00  0.45593999997E+02  0.45594000000E+02  0.51100000000E-03 0. -1.
         11   -1    0    0    0    0 -0.00000000000E+00 -0.00000000000E+00 -0.45593999997E+02  0.45594000000E+02  0.51100000000E-03 0.  1.
    9900012    2    1    2    0    0 -0.25523193773E+01  0.96953944698E+00 -0.40567324821E+02  0.50528902813E+02  0.30000130591E+02 0.  0.
         12    1    1    2    0    0  0.25523193773E+01 -0.96953944698E+00  0.40567324821E+02  0.40659097187E+02  0.00000000000E+00 0. -1.
         11    1    3    3    0    0 -0.32958164418E+01  0.88103920387E+01 -0.15019648846E+02  0.17722168762E+02  0.51100000000E-03 0. -1.
        -11    1    3    3    0    0 -0.45131787779E+01  0.49104841118E+01 -0.10035983721E+02  0.12050004415E+02  0.51100000000E-03 0.  1.
        -12    1    3    3    0    0  0.52566758424E+01 -0.12751336704E+02 -0.15511692254E+02  0.20756729637E+02  0.00000000000E+00 0.  1.
</event>
<event>
 7    1  0.4520156E-012  0.5052886E+02  0.7816164E-02  0.1300439E+00
        -11   -1    0    0    0    0  0.00000000000E+00  0.00000000000E+00  0.45593999997E+02  0.45594000000E+02  0.51100000000E-03 0. -1.
         11   -1    0    0    0    0 -0.00000000000E+00 -0.00000000000E+00 -0.45593999997E+02  0.45594000000E+02  0.51100000000E-03 0.  1.
    9900012    2    1    2    0    0  0.32057512930E+02 -0.16339133475E+02 -0.18934478851E+02  0.50528857026E+02  0.29999991418E+02 0.  0.
         12    1    1    2    0    0 -0.32057512930E+02  0.16339133475E+02  0.18934478851E+02  0.40659142974E+02  0.00000000000E+00 0. -1.
         11    1    3    3    0    0  0.42119517228E+01 -0.94958539457E+00  0.80234280386E+00  0.43915833105E+01  0.51100000000E-03 0. -1.
        -11    1    3    3    0    0  0.29356471243E+02 -0.47019943215E+01 -0.93721454881E+01  0.31172877085E+02  0.51100000000E-03 0.  1.
        -12    1    3    3    0    0 -0.15109100357E+01 -0.10687553759E+02 -0.10364676167E+02  0.14964396631E+02  0.00000000000E+00 0.  1.
</event>
<event>
 7    1  0.4520156E-012  0.5052885E+02  0.7816164E-02  0.1300439E+00
        -11   -1    0    0    0    0  0.00000000000E+00  0.00000000000E+00  0.45593999997E+02  0.45594000000E+02  0.51100000000E-03 0. -1.
         11   -1    0    0    0    0 -0.00000000000E+00 -0.00000000000E+00 -0.45593999997E+02  0.45594000000E+02  0.51100000000E-03 0.  1.
    9900012    2    1    2    0    0  0.15423341177E+02 -0.19504024972E+01 -0.37569711227E+02  0.50528846975E+02  0.29999960867E+02 0.  0.
         12    1    1    2    0    0 -0.15423341177E+02  0.19504024972E+01  0.37569711227E+02  0.40659153025E+02  0.00000000000E+00 0. -1.
         11    1    3    3    0    0  0.13421888327E+02 -0.33944338900E+00 -0.13541915195E+02  0.19069498564E+02  0.51100000000E-03 0. -1.
        -11    1    3    3    0    0  0.81476617116E+01  0.22439827092E+01 -0.22514182095E+02  0.24048040366E+02  0.51100000000E-03 0.  1.
        -12    1    3    3    0    0 -0.61462088622E+01 -0.38549418174E+01 -0.15136139378E+01  0.74113080455E+01  0.00000000000E+00 0.  1.
</event>
<event>
 7    1  0.4520156E-012  0.5052886E+02  0.7816164E-02  0.1300439E+00
        -11   -1    0    0    0    0  0.00000000000E+00  0.00000000000E+00  0.45593999997E+02  0.45594000000E+02  0.51100000000E-03 0. -1.
         11   -1    0    0    0    0 -0.00000000000E+00 -0.00000000000E+00 -0.45593999997E+02  0.45594000000E+02  0.51100000000E-03 0.  1.
    9900012    2    1    2    0    0  0.25490795484E+02  0.16991688493E+02 -0.26733271305E+02  0.50528856786E+02  0.29999990686E+02 0.  0.
         12    1    1    2    0    0 -0.25490795484E+02 -0.16991688493E+02  0.26733271305E+02  0.40659143214E+02  0.00000000000E+00 0. -1.
         11    1    3    3    0    0  0.11536039517E+02 -0.17006347551E+01 -0.19226281248E+01  0.11818158295E+02  0.51100000000E-03 0. -1.
        -11    1    3    3    0    0  0.13348588914E+02  0.26536703029E+01 -0.12556922744E+02  0.18517642969E+02  0.51100000000E-03 0.  1.
        -12    1    3    3    0    0  0.60616705306E+00  0.16038652945E+02 -0.12253720436E+02  0.20193055522E+02  0.00000000000E+00 0.  1.
</event>
<event>
 7    1  0.4520156E-012  0.5052883E+02  0.7816164E-02  0.1300439E+00
        -11   -1    0    0    0    0  0.00000000000E+00  0.00000000000E+00  0.45593999997E+02  0.45594000000E+02  0.51100000000E-03 0.  1.
         11   -1    0    0    0    0 -0.00000000000E+00 -0.00000000000E+00 -0.45593999997E+02  0.45594000000E+02  0.51100000000E-03 0. -1.
    9900012    2    1    2    0    0  0.86982478688E+01  0.30100946416E+02 -0.25912190932E+02  0.50528829694E+02  0.29999908336E+02 0.  0.
         12    1    1    2    0    0 -0.86982478688E+01 -0.30100946416E+02  0.25912190932E+02  0.40659170306E+02  0.00000000000E+00 0. -1.
         11    1    3    3    0    0  0.84103958480E+01  0.81484896226E+01 -0.23511527757E+01  0.11944059657E+02  0.51100000000E-03 0. -1.
        -11    1    3    3    0    0  0.84763059718E+01  0.14424958472E+02 -0.59541649286E+01  0.17758920859E+02  0.51100000000E-03 0.  1.
         12    1    3    3    0    0 -0.81884539509E+01  0.75274983214E+01 -0.17606873228E+02  0.20825849177E+02  0.00000000000E+00 0. -1.
</event>
<event>
 7    1  0.4520156E-012  0.5052886E+02  0.7816164E-02  0.1300439E+00
        -11   -1    0    0    0    0  0.00000000000E+00  0.00000000000E+00  0.45593999997E+02  0.45594000000E+02  0.51100000000E-03 0. -1.
         11   -1    0    0    0    0 -0.00000000000E+00 -0.00000000000E+00 -0.45593999997E+02  0.45594000000E+02  0.51100000000E-03 0.  1.
    9900012    2    1    2    0    0 -0.19475918923E+02  0.34350727044E+02  0.96892710760E+01  0.50528857851E+02  0.29999993923E+02 0.  0.
        -12    1    1    2    0    0  0.19475918923E+02 -0.34350727044E+02 -0.96892710760E+01  0.40659142149E+02  0.00000000000E+00 0.  1.
         11    1    3    3    0    0 -0.12542834848E+02  0.41624045558E+01  0.87148333367E+01  0.15830244409E+02  0.51100000000E-03 0. -1.
        -11    1    3    3    0    0  0.20123626232E+01  0.12379590693E+01 -0.33409573396E+01  0.40919606781E+01  0.51100000000E-03 0.  1.
         12    1    3    3    0    0 -0.89454466986E+01  0.28950363419E+02  0.43153950789E+01  0.30606652764E+02  0.00000000000E+00 0. -1.
</event>
<event>
 7    1  0.4520156E-012  0.5052886E+02  0.7816164E-02  0.1300439E+00
        -11   -1    0    0    0    0  0.00000000000E+00  0.00000000000E+00  0.45593999997E+02  0.45594000000E+02  0.51100000000E-03 0. -1.
         11   -1    0    0    0    0 -0.00000000000E+00 -0.00000000000E+00 -0.45593999997E+02  0.45594000000E+02  0.51100000000E-03 0.  1.
    9900012    2    1    2    0    0 -0.16505610261E+02 -0.16552720404E+02  0.33267672592E+02  0.50528858807E+02  0.29999996831E+02 0.  0.
        -12    1    1    2    0    0  0.16505610261E+02  0.16552720404E+02 -0.33267672592E+02  0.40659141193E+02  0.00000000000E+00 0.  1.
         11    1    3    3    0    0 -0.13679370474E+01 -0.21455070481E+01  0.51063269405E+01  0.57051754876E+01  0.51100000000E-03 0. -1.
        -11    1    3    3    0    0 -0.71090688160E+01 -0.10150721692E+02 -0.26735200079E+01  0.12677685901E+02  0.51100000000E-03 0.  1.
        -12    1    3    3    0    0 -0.80286043975E+01 -0.42564916635E+01  0.30834865659E+02  0.32145997419E+02  0.00000000000E+00 0.  1.
</event>
<event>
 7    1  0.4520156E-012  0.5052886E+02  0.7816164E-02  0.1300439E+00
        -11   -1    0    0    0    0  0.00000000000E+00  0.00000000000E+00  0.45593999997E+02  0.45594000000E+02  0.51100000000E-03 0.  1.
         11   -1    0    0    0    0 -0.00000000000E+00 -0.00000000000E+00 -0.45593999997E+02  0.45594000000E+02  0.51100000000E-03 0. -1.
    9900012    2    1    2    0    0 -0.10361294440E+01  0.34923810578E+02  0.20794692531E+02  0.50528863918E+02  0.30000012365E+02 0.  0.
        -12    1    1    2    0    0  0.10361294440E+01 -0.34923810578E+02 -0.20794692531E+02  0.40659136082E+02  0.00000000000E+00 0.  1.
         11    1    3    3    0    0 -0.73307756176E+01  0.15933132718E+02  0.10542645826E+02  0.20463439854E+02  0.51100000000E-03 0. -1.
        -11    1    3    3    0    0 -0.52212883362E+01  0.65760490203E+01  0.10095794486E+02  0.13131311403E+02  0.51100000000E-03 0.  1.
        -12    1    3    3    0    0  0.11515934510E+02  0.12414628839E+02  0.15625221875E+00  0.16934112661E+02  0.00000000000E+00 0.  1.
</event>
<event>
 7    1  0.4567044E-012  0.5052877E+02  0.7816164E-02  0.1300439E+00
        -11   -1    0    0    0    0  0.00000000000E+00  0.00000000000E+00  0.45593999997E+02  0.45594000000E+02  0.51100000000E-03 0. -1.
         11   -1    0    0    0    0 -0.00000000000E+00 -0.00000000000E+00 -0.45593999997E+02  0.45594000000E+02  0.51100000000E-03 0.  1.
    9900012    2    1    2    0    0  0.75092065164E+01 -0.72753388127E+01  0.39291910641E+02  0.50528770061E+02  0.29999727077E+02 0.  0.
        -12    1    1    2    0    0 -0.75092065164E+01  0.72753388127E+01 -0.39291910641E+02  0.40659229939E+02  0.00000000000E+00 0.  1.
         11    1    3    3    0    0  0.66603158002E+01 -0.93855875553E+01  0.19812271071E+02  0.22912336100E+02  0.51100000000E-03 0. -1.
        -11    1    3    3    0    0 -0.54076040468E+01 -0.39332738021E+01  0.46070559098E+00  0.67026169690E+01  0.51100000000E-03 0.  1.
         12    1    3    3    0    0  0.62564947631E+01  0.60435225447E+01  0.19018933980E+02  0.20913816992E+02  0.00000000000E+00 0. -1.
</event>
<event>
 7    1  0.4520156E-012  0.5052885E+02  0.7816164E-02  0.1300439E+00
        -11   -1    0    0    0    0  0.00000000000E+00  0.00000000000E+00  0.45593999997E+02  0.45594000000E+02  0.51100000000E-03 0. -1.
         11   -1    0    0    0    0 -0.00000000000E+00 -0.00000000000E+00 -0.45593999997E+02  0.45594000000E+02  0.51100000000E-03 0.  1.
    9900012    2    1    2    0    0  0.43869302274E+01 -0.32664752946E+02  0.23810393551E+02  0.50528854867E+02  0.29999984855E+02 0.  0.
        -12    1    1    2    0    0 -0.43869302274E+01  0.32664752946E+02 -0.23810393551E+02  0.40659145133E+02  0.00000000000E+00 0.  1.
         11    1    3    3    0    0 -0.22389686436E+01 -0.52235795861E+01  0.49650597774E+01  0.75465610137E+01  0.51100000000E-03 0. -1.
        -11    1    3    3    0    0  0.30414914544E+01 -0.15780635745E+02  0.24686614840E+02  0.29456885228E+02  0.51100000000E-03 0.  1.
        -12    1    3    3    0    0  0.35844074166E+01 -0.11660537615E+02 -0.58412810664E+01  0.13525408626E+02  0.00000000000E+00 0.  1.
</event>
<event>
 7    1  0.4520156E-012  0.5052885E+02  0.7816164E-02  0.1300439E+00
        -11   -1    0    0    0    0  0.00000000000E+00  0.00000000000E+00  0.45593999997E+02  0.45594000000E+02  0.51100000000E-03 0. -1.
         11   -1    0    0    0    0 -0.00000000000E+00 -0.00000000000E+00 -0.45593999997E+02  0.45594000000E+02  0.51100000000E-03 0.  1.
    9900012    2    1    2    0    0 -0.32514178999E+02 -0.10613838476E+02 -0.21985011941E+02  0.50528854003E+02  0.29999982229E+02 0.  0.
         12    1    1    2    0    0  0.32514178999E+02  0.10613838476E+02  0.21985011941E+02  0.40659145997E+02  0.00000000000E+00 0. -1.
         11    1    3    3    0    0 -0.25016845740E+01  0.48851655506E+01 -0.30334786478E+01  0.62709856588E+01  0.51100000000E-03 0. -1.
        -11    1    3    3    0    0 -0.28453525038E+02 -0.18568577031E+02 -0.21290348360E+02  0.40095811173E+02  0.51100000000E-03 0.  1.
         12    1    3    3    0    0 -0.15589693867E+01  0.30695730047E+01  0.23388150675E+01  0.41620571717E+01  0.00000000000E+00 0. -1.
</event>
<event>
 7    1  0.4520156E-012  0.5052886E+02  0.7816164E-02  0.1300439E+00
        -11   -1    0    0    0    0  0.00000000000E+00  0.00000000000E+00  0.45593999997E+02  0.45594000000E+02  0.51100000000E-03 0. -1.
         11   -1    0    0    0    0 -0.00000000000E+00 -0.00000000000E+00 -0.45593999997E+02  0.45594000000E+02  0.51100000000E-03 0.  1.
    9900012    2    1    2    0    0  0.44757911363E+01  0.39100834669E+01  0.40222437501E+02  0.50528856655E+02  0.29999990288E+02 0.  0.
        -12    1    1    2    0    0 -0.44757911363E+01 -0.39100834669E+01 -0.40222437501E+02  0.40659143345E+02  0.00000000000E+00 0.  1.
         11    1    3    3    0    0 -0.14251550866E+01  0.34678494009E+01  0.21332942785E+02  0.21659905231E+02  0.51100000000E-03 0. -1.
        -11    1    3    3    0    0  0.12174223322E+02 -0.48617862495E+01  0.84984975530E+01  0.15622840329E+02  0.51100000000E-03 0.  1.
         12    1    3    3    0    0 -0.62732770995E+01  0.53040203156E+01  0.10390997163E+02  0.13246111094E+02  0.00000000000E+00 0. -1.
</event>
<event>
 7    1  0.4520156E-012  0.5052887E+02  0.7816164E-02  0.1300439E+00
        -11   -1    0    0    0    0  0.00000000000E+00  0.00000000000E+00  0.45593999997E+02  0.45594000000E+02  0.51100000000E-03 0. -1.
         11   -1    0    0    0    0 -0.00000000000E+00 -0.00000000000E+00 -0.45593999997E+02  0.45594000000E+02  0.51100000000E-03 0.  1.
    9900012    2    1    2    0    0 -0.75047499890E+01  0.10496101331E+02 -0.38557425430E+02  0.50528874685E+02  0.30000045093E+02 0.  0.
         12    1    1    2    0    0  0.75047499890E+01 -0.10496101331E+02  0.38557425430E+02  0.40659125315E+02  0.00000000000E+00 0. -1.
         11    1    3    3    0    0  0.24196408633E+01 -0.43714986008E+01 -0.28269398590E+01  0.57407535352E+01  0.51100000000E-03 0. -1.
        -11    1    3    3    0    0  0.46626262671E+01  0.64486573885E+00 -0.15004711473E+02  0.15725689243E+02  0.51100000000E-03 0.  1.
         12    1    3    3    0    0 -0.14587017119E+02  0.14222734193E+02 -0.20725774098E+02  0.29062431907E+02  0.00000000000E+00 0. -1.
</event>
<event>
 7    1  0.4520156E-012  0.5052878E+02  0.7816164E-02  0.1300439E+00
        -11   -1    0    0    0    0  0.00000000000E+00  0.00000000000E+00  0.45593999997E+02  0.45594000000E+02  0.51100000000E-03 0. -1.
         11   -1    0    0    0    0 -0.00000000000E+00 -0.00000000000E+00 -0.45593999997E+02  0.45594000000E+02  0.51100000000E-03 0.  1.
    9900012    2    1    2    0    0  0.50883450594E+01  0.39619152218E+02 -0.75897286824E+01  0.50528776454E+02  0.29999746508E+02 0.  0.
         12    1    1    2    0    0 -0.50883450594E+01 -0.39619152218E+02  0.75897286824E+01  0.40659223546E+02  0.00000000000E+00 0. -1.
         11    1    3    3    0    0  0.21599893261E+01  0.99082231735E+01  0.16463046166E+01  0.10273692593E+02  0.51100000000E-03 0. -1.
        -11    1    3    3    0    0  0.13357037564E+02  0.17482166011E+02 -0.59766358397E+00  0.22008947793E+02  0.51100000000E-03 0.  1.
        -12    1    3    3    0    0 -0.10428681831E+02  0.12228763033E+02 -0.86383697150E+01  0.18246136067E+02  0.00000000000E+00 0.  1.
</event>
<event>
 7    1  0.4520156E-012  0.5052886E+02  0.7816164E-02  0.1300439E+00
        -11   -1    0    0    0    0  0.00000000000E+00  0.00000000000E+00  0.45593999997E+02  0.45594000000E+02  0.51100000000E-03 0. -1.
         11   -1    0    0    0    0 -0.00000000000E+00 -0.00000000000E+00 -0.45593999997E+02  0.45594000000E+02  0.51100000000E-03 0.  1.
    9900012    2    1    2    0    0  0.95681311396E+01  0.17188404513E+02 -0.35583355660E+02  0.50528861012E+02  0.30000003533E+02 0.  0.
         12    1    1    2    0    0 -0.95681311396E+01 -0.17188404513E+02  0.35583355660E+02  0.40659138988E+02  0.00000000000E+00 0. -1.
         11    1    3    3    0    0  0.75051183257E+01  0.71439123008E+01 -0.88858501719E+01  0.13649931047E+02  0.51100000000E-03 0. -1.
        -11    1    3    3    0    0  0.64830033935E+01  0.13739475543E+02 -0.77098776893E+01  0.17036570531E+02  0.51100000000E-03 0.  1.
        -12    1    3    3    0    0 -0.44199905796E+01 -0.36949833304E+01 -0.18987627798E+02  0.19842359435E+02  0.00000000000E+00 0.  1.
</event>
<event>
 7    1  0.5380224E-012  0.5052886E+02  0.7816164E-02  0.1300439E+00
        -11   -1    0    0    0    0  0.00000000000E+00  0.00000000000E+00  0.45593999997E+02  0.45594000000E+02  0.51100000000E-03 0. -1.
         11   -1    0    0    0    0 -0.00000000000E+00 -0.00000000000E+00 -0.45593999997E+02  0.45594000000E+02  0.51100000000E-03 0.  1.
    9900012    2    1    2    0    0  0.21801616920E+02  0.13478145730E+02  0.31562556465E+02  0.50528857323E+02  0.29999992319E+02 0.  0.
        -12    1    1    2    0    0 -0.21801616920E+02 -0.13478145730E+02 -0.31562556465E+02  0.40659142677E+02  0.00000000000E+00 0.  1.
         11    1    3    3    0    0  0.52967473005E+01  0.34966836521E+01  0.62648273563E+00  0.63776805664E+01  0.51100000000E-03 0. -1.
        -11    1    3    3    0    0  0.10045419861E+00 -0.14161921350E+01 -0.38136367768E+01  0.40693386361E+01  0.51100000000E-03 0.  1.
         12    1    3    3    0    0  0.16404415421E+02  0.11397654213E+02  0.34749710506E+02  0.40081838120E+02  0.00000000000E+00 0. -1.
</event>
<event>
 7    1  0.4520156E-012  0.5052879E+02  0.7816164E-02  0.1300439E+00
        -11   -1    0    0    0    0  0.00000000000E+00  0.00000000000E+00  0.45593999997E+02  0.45594000000E+02  0.51100000000E-03 0. -1.
         11   -1    0    0    0    0 -0.00000000000E+00 -0.00000000000E+00 -0.45593999997E+02  0.45594000000E+02  0.51100000000E-03 0.  1.
    9900012    2    1    2    0    0 -0.17121356469E+02  0.39686355592E+01 -0.36664428227E+02  0.50528791784E+02  0.29999793105E+02 0.  0.
         12    1    1    2    0    0  0.17121356469E+02 -0.39686355592E+01  0.36664428227E+02  0.40659208216E+02  0.00000000000E+00 0. -1.
         11    1    3    3    0    0  0.12711990871E+01  0.54135571577E+01 -0.15953737187E+02  0.16895096292E+02  0.51100000000E-03 0. -1.
        -11    1    3    3    0    0 -0.12299632264E+02  0.13919785870E+01 -0.23337998067E+02  0.26417431977E+02  0.51100000000E-03 0.  1.
        -12    1    3    3    0    0 -0.60929232917E+01 -0.28369001855E+01  0.26273070269E+01  0.72162635148E+01  0.00000000000E+00 0.  1.
</event>
<event>
 7    1  0.4520156E-012  0.5052886E+02  0.7816164E-02  0.1300439E+00
        -11   -1    0    0    0    0  0.00000000000E+00  0.00000000000E+00  0.45593999997E+02  0.45594000000E+02  0.51100000000E-03 0.  1.
         11   -1    0    0    0    0 -0.00000000000E+00 -0.00000000000E+00 -0.45593999997E+02  0.45594000000E+02  0.51100000000E-03 0. -1.
    9900012    2    1    2    0    0 -0.63783015594E+01 -0.39482180658E+02  0.73239663447E+01  0.50528858305E+02  0.29999995305E+02 0.  0.
        -12    1    1    2    0    0  0.63783015594E+01  0.39482180658E+02 -0.73239663447E+01  0.40659141695E+02  0.00000000000E+00 0.  1.
         11    1    3    3    0    0  0.96666588931E+01 -0.16376328143E+02  0.91454189576E+01  0.21101353174E+02  0.51100000000E-03 0.  1.
        -11    1    3    3    0    0 -0.34940526008E+01 -0.10162755034E+02  0.21659287843E+01  0.10962720521E+02  0.51100000000E-03 0. -1.
        -12    1    3    3    0    0 -0.12550907852E+02 -0.12943097481E+02 -0.39873813972E+01  0.18464784610E+02  0.00000000000E+00 0.  1.
</event>
<event>
 7    1  0.4520156E-012  0.5052886E+02  0.7816164E-02  0.1300439E+00
        -11   -1    0    0    0    0  0.00000000000E+00  0.00000000000E+00  0.45593999997E+02  0.45594000000E+02  0.51100000000E-03 0. -1.
         11   -1    0    0    0    0 -0.00000000000E+00 -0.00000000000E+00 -0.45593999997E+02  0.45594000000E+02  0.51100000000E-03 0.  1.
    9900012    2    1    2    0    0  0.15378483436E+02  0.27320053940E+02  0.25889817275E+02  0.50528859101E+02  0.29999997725E+02 0.  0.
        -12    1    1    2    0    0 -0.15378483436E+02 -0.27320053940E+02 -0.25889817275E+02  0.40659140899E+02  0.00000000000E+00 0.  1.
         11    1    3    3    0    0  0.76417845613E+01  0.22968616242E+02  0.30942467045E+02  0.39286008584E+02  0.51100000000E-03 0. -1.
        -11    1    3    3    0    0  0.16631559761E+01  0.27552975100E+01 -0.57776389278E-01  0.32188647908E+01  0.51100000000E-03 0.  1.
         12    1    3    3    0    0  0.60735428989E+01  0.15961401880E+01 -0.49948733812E+01  0.80239857265E+01  0.00000000000E+00 0. -1.
</event>
<event>
 7    1  0.4520156E-012  0.5052885E+02  0.7816164E-02  0.1300439E+00
        -11   -1    0    0    0    0  0.00000000000E+00  0.00000000000E+00  0.45593999997E+02  0.45594000000E+02  0.51100000000E-03 0.  1.
         11   -1    0    0    0    0 -0.00000000000E+00 -0.00000000000E+00 -0.45593999997E+02  0.45594000000E+02  0.51100000000E-03 0. -1.
    9900012    2    1    2    0    0 -0.24606418715E+02 -0.28396027144E+02  0.15535640279E+02  0.50528851971E+02  0.29999976053E+02 0.  0.
        -12    1    1    2    0    0  0.24606418715E+02  0.28396027144E+02 -0.15535640279E+02  0.40659148029E+02  0.00000000000E+00 0.  1.
         11    1    3    3    0    0 -0.34358835159E+01 -0.10388888292E+02 -0.80858033888E+00  0.10972151015E+02  0.51100000000E-03 0. -1.
        -11    1    3    3    0    0 -0.15084526740E+02 -0.18461194895E+02  0.19473103123E+01  0.23919671437E+02  0.51100000000E-03 0.  1.
        -12    1    3    3    0    0 -0.60860084589E+01  0.45405604299E+00  0.14396910306E+02  0.15637029520E+02  0.00000000000E+00 0.  1.
</event>
<event>
 7    1  0.4520156E-012  0.5052887E+02  0.7816164E-02  0.1300439E+00
        -11   -1    0    0    0    0  0.00000000000E+00  0.00000000000E+00  0.45593999997E+02  0.45594000000E+02  0.51100000000E-03 0. -1.
         11   -1    0    0    0    0 -0.00000000000E+00 -0.00000000000E+00 -0.45593999997E+02  0.45594000000E+02  0.51100000000E-03 0.  1.
    9900012    2    1    2    0    0  0.92749844487E+01 -0.25540292424E+02  0.30246202522E+02  0.50528872604E+02  0.30000038766E+02 0.  0.
        -12    1    1    2    0    0 -0.92749844487E+01  0.25540292424E+02 -0.30246202522E+02  0.40659127396E+02  0.00000000000E+00 0.  1.
         11    1    3    3    0    0 -0.18617416730E+01 -0.16190586087E+01  0.40254491307E+01  0.47214059135E+01  0.51100000000E-03 0. -1.
        -11    1    3    3    0    0 -0.87725636831E+01 -0.51135563385E+01  0.77335056778E+01  0.12763755025E+02  0.51100000000E-03 0.  1.
         12    1    3    3    0    0  0.19909289805E+02 -0.18807677477E+02  0.18487247714E+02  0.33043711665E+02  0.00000000000E+00 0. -1.
</event>
<event>
 7    1  0.4520156E-012  0.5052888E+02  0.7816164E-02  0.1300439E+00
        -11   -1    0    0    0    0  0.00000000000E+00  0.00000000000E+00  0.45593999997E+02  0.45594000000E+02  0.51100000000E-03 0. -1.
         11   -1    0    0    0    0 -0.00000000000E+00 -0.00000000000E+00 -0.45593999997E+02  0.45594000000E+02  0.51100000000E-03 0.  1.
    9900012    2    1    2    0    0  0.17674983500E+02  0.21414097635E+02  0.29701771876E+02  0.50528882058E+02  0.30000067503E+02 0.  0.
        -12    1    1    2    0    0 -0.17674983500E+02 -0.21414097635E+02 -0.29701771876E+02  0.40659117942E+02  0.00000000000E+00 0.  1.
         11    1    3    3    0    0  0.12873418311E+02  0.26626669296E+02  0.24689163961E+02  0.38526085114E+02  0.51100000000E-03 0. -1.
        -11    1    3    3    0    0 -0.23366054121E+01 -0.96938677069E+00  0.17728952572E+01  0.30891088387E+01  0.51100000000E-03 0.  1.
        -12    1    3    3    0    0  0.71381706007E+01 -0.42431848902E+01  0.32397126577E+01  0.89136881054E+01  0.00000000000E+00 0.  1.
</event>
<event>
 7    1  0.4520156E-012  0.5052885E+02  0.7816164E-02  0.1300439E+00
        -11   -1    0    0    0    0  0.00000000000E+00  0.00000000000E+00  0.45593999997E+02  0.45594000000E+02  0.51100000000E-03 0. -1.
         11   -1    0    0    0    0 -0.00000000000E+00 -0.00000000000E+00 -0.45593999997E+02  0.45594000000E+02  0.51100000000E-03 0.  1.
    9900012    2    1    2    0    0 -0.30998658475E+02  0.23756477849E+02  0.11308392930E+02  0.50528845832E+02  0.29999957390E+02 0.  0.
        -12    1    1    2    0    0  0.30998658475E+02 -0.23756477849E+02 -0.11308392930E+02  0.40659154168E+02  0.00000000000E+00 0.  1.
         11    1    3    3    0    0  0.78976098065E+00  0.71210733283E+00 -0.33648413609E+01  0.35288775701E+01  0.51100000000E-03 0. -1.
        -11    1    3    3    0    0 -0.26109127844E-01  0.29619192393E+01 -0.40482121472E+01  0.50161408589E+01  0.51100000000E-03 0.  1.
         12    1    3    3    0    0 -0.31762310328E+02  0.20082451277E+02  0.18721446438E+02  0.41983827403E+02  0.00000000000E+00 0. -1.
</event>
<event>
 7    1  0.4520156E-012  0.5052887E+02  0.7816164E-02  0.1300439E+00
        -11   -1    0    0    0    0  0.00000000000E+00  0.00000000000E+00  0.45593999997E+02  0.45594000000E+02  0.51100000000E-03 0. -1.
         11   -1    0    0    0    0 -0.00000000000E+00 -0.00000000000E+00 -0.45593999997E+02  0.45594000000E+02  0.51100000000E-03 0.  1.
    9900012    2    1    2    0    0  0.89136525335E+01 -0.38322473312E+02  0.10251824847E+02  0.50528867263E+02  0.30000022531E+02 0.  0.
        -12    1    1    2    0    0 -0.89136525335E+01  0.38322473312E+02 -0.10251824847E+02  0.40659132737E+02  0.00000000000E+00 0.  1.
         11    1    3    3    0    0 -0.43226734019E+00 -0.10824992919E+01 -0.33769733798E+01  0.35724794246E+01  0.51100000000E-03 0. -1.
        -11    1    3    3    0    0  0.46839487957E+01  0.57083943115E-01 -0.33028053810E+01  0.57315930197E+01  0.51100000000E-03 0.  1.
         12    1    3    3    0    0  0.46619710781E+01 -0.37297057964E+02  0.16931603608E+02  0.41224794818E+02  0.00000000000E+00 0. -1.
</event>
<event>
 7    1  0.4520156E-012  0.5052886E+02  0.7816164E-02  0.1300439E+00
        -11   -1    0    0    0    0  0.00000000000E+00  0.00000000000E+00  0.45593999997E+02  0.45594000000E+02  0.51100000000E-03 0. -1.
         11   -1    0    0    0    0 -0.00000000000E+00 -0.00000000000E+00 -0.45593999997E+02  0.45594000000E+02  0.51100000000E-03 0.  1.
    9900012    2    1    2    0    0 -0.24255825674E+02 -0.14440645657E+02  0.29262406097E+02  0.50528859125E+02  0.29999997796E+02 0.  0.
        -12    1    1    2    0    0  0.24255825674E+02  0.14440645657E+02 -0.29262406097E+02  0.40659140875E+02  0.00000000000E+00 0.  1.
         11    1    3    3    0    0 -0.10294311911E+02  0.52406767920E+01  0.99254282108E+01  0.15229959829E+02  0.51100000000E-03 0. -1.
        -11    1    3    3    0    0  0.18443195452E+01  0.14920742618E+01  0.42643581653E+01  0.48798105507E+01  0.51100000000E-03 0.  1.
         12    1    3    3    0    0 -0.15805833307E+02 -0.21173396711E+02  0.15072619721E+02  0.30419088745E+02  0.00000000000E+00 0. -1.
</event>
<event>
 7    1  0.4520156E-012  0.5052886E+02  0.7816164E-02  0.1300439E+00
        -11   -1    0    0    0    0  0.00000000000E+00  0.00000000000E+00  0.45593999997E+02  0.45594000000E+02  0.51100000000E-03 0.  1.
         11   -1    0    0    0    0 -0.00000000000E+00 -0.00000000000E+00 -0.45593999997E+02  0.45594000000E+02  0.51100000000E-03 0. -1.
    9900012    2    1    2    0    0  0.12366647012E+02 -0.35496425167E+02 -0.15499529254E+02  0.50528861236E+02  0.30000004212E+02 0.  0.
        -12    1    1    2    0    0 -0.12366647012E+02  0.35496425167E+02  0.15499529254E+02  0.40659138764E+02  0.00000000000E+00 0.  1.
         11    1    3    3    0    0  0.11730980478E+02 -0.24471361026E+02 -0.34715624075E+01  0.27359005085E+02  0.51100000000E-03 0.  1.
        -11    1    3    3    0    0  0.79593626057E+01 -0.77997372853E+01 -0.98579734174E+01  0.14878407004E+02  0.51100000000E-03 0. -1.
        -12    1    3    3    0    0 -0.73236960716E+01 -0.32253268561E+01 -0.21699934293E+01  0.82914491472E+01  0.00000000000E+00 0.  1.
</event>
<event>
 7    1  0.4520156E-012  0.5052886E+02  0.7816164E-02  0.1300439E+00
        -11   -1    0    0    0    0  0.00000000000E+00  0.00000000000E+00  0.45593999997E+02  0.45594000000E+02  0.51100000000E-03 0. -1.
         11   -1    0    0    0    0 -0.00000000000E+00 -0.00000000000E+00 -0.45593999997E+02  0.45594000000E+02  0.51100000000E-03 0.  1.
    9900012    2    1    2    0    0  0.30368125545E+02  0.22069560888E+02  0.15616554664E+02  0.50528863923E+02  0.30000012382E+02 0.  0.
        -12    1    1    2    0    0 -0.30368125545E+02 -0.22069560888E+02 -0.15616554664E+02  0.40659136077E+02  0.00000000000E+00 0.  1.
         11    1    3    3    0    0  0.45686101945E+01  0.10630119246E+02  0.14502019355E+02  0.18552094220E+02  0.51100000000E-03 0. -1.
        -11    1    3    3    0    0  0.16330980154E+02  0.17351295488E+01 -0.49086946076E+01  0.17140795499E+02  0.51100000000E-03 0.  1.
         12    1    3    3    0    0  0.94685351970E+01  0.97043120930E+01  0.60232299166E+01  0.14835974205E+02  0.00000000000E+00 0. -1.
</event>
<event>
 7    1  0.4520156E-012  0.5052885E+02  0.7816164E-02  0.1300439E+00
        -11   -1    0    0    0    0  0.00000000000E+00  0.00000000000E+00  0.45593999997E+02  0.45594000000E+02  0.51100000000E-03 0. -1.
         11   -1    0    0    0    0 -0.00000000000E+00 -0.00000000000E+00 -0.45593999997E+02  0.45594000000E+02  0.51100000000E-03 0.  1.
    9900012    2    1    2    0    0  0.27691984262E+02  0.13673352041E+02 -0.26445412189E+02  0.50528851285E+02  0.29999973966E+02 0.  0.
         12    1    1    2    0    0 -0.27691984262E+02 -0.13673352041E+02  0.26445412189E+02  0.40659148715E+02  0.00000000000E+00 0. -1.
         11    1    3    3    0    0  0.72421233349E+01  0.16053254451E+02 -0.13833109186E+02  0.22394424281E+02  0.51100000000E-03 0. -1.
        -11    1    3    3    0    0  0.40208218005E+01  0.53847395653E+01 -0.16772275181E+01  0.69264363525E+01  0.51100000000E-03 0.  1.
         12    1    3    3    0    0  0.16429039126E+02 -0.77646419749E+01 -0.10935075484E+02  0.21207990651E+02  0.00000000000E+00 0. -1.
</event>
<event>
 7    1  0.4520156E-012  0.5052886E+02  0.7816164E-02  0.1300439E+00
        -11   -1    0    0    0    0  0.00000000000E+00  0.00000000000E+00  0.45593999997E+02  0.45594000000E+02  0.51100000000E-03 0. -1.
         11   -1    0    0    0    0 -0.00000000000E+00 -0.00000000000E+00 -0.45593999997E+02  0.45594000000E+02  0.51100000000E-03 0.  1.
    9900012    2    1    2    0    0  0.13863646350E+01  0.17307344625E+02 -0.36765461102E+02  0.50528864312E+02  0.30000013562E+02 0.  0.
         12    1    1    2    0    0 -0.13863646350E+01 -0.17307344625E+02  0.36765461102E+02  0.40659135688E+02  0.00000000000E+00 0. -1.
         11    1    3    3    0    0  0.36970256624E+00 -0.28462914859E+01 -0.73641443792E+01  0.79037129192E+01  0.51100000000E-03 0.  1.
        -11    1    3    3    0    0  0.40723482664E+01  0.32281017162E+01  0.29576773727E+01  0.59793408329E+01  0.51100000000E-03 0. -1.
        -12    1    3    3    0    0 -0.30556861976E+01  0.16925534395E+02 -0.32358994095E+02  0.36645810560E+02  0.00000000000E+00 0.  1.
</event>
<event>
 7    1  0.4520156E-012  0.5052886E+02  0.7816164E-02  0.1300439E+00
        -11   -1    0    0    0    0  0.00000000000E+00  0.00000000000E+00  0.45593999997E+02  0.45594000000E+02  0.51100000000E-03 0. -1.
         11   -1    0    0    0    0 -0.00000000000E+00 -0.00000000000E+00 -0.45593999997E+02  0.45594000000E+02  0.51100000000E-03 0.  1.
    9900012    2    1    2    0    0 -0.17302637266E+02 -0.12606430971E+02 -0.34566783197E+02  0.50528857624E+02  0.29999993232E+02 0.  0.
         12    1    1    2    0    0  0.17302637266E+02  0.12606430971E+02  0.34566783197E+02  0.40659142376E+02  0.00000000000E+00 0. -1.
         11    1    3    3    0    0 -0.93727321264E+01  0.10077168249E+01 -0.11881906624E+01  0.95013366440E+01  0.51100000000E-03 0. -1.
        -11    1    3    3    0    0 -0.90860615035E+01 -0.54955292922E+00 -0.67108379371E+01  0.11309017117E+02  0.51100000000E-03 0.  1.
        -12    1    3    3    0    0  0.11561563636E+01 -0.13064594866E+02 -0.26667754598E+02  0.29718503863E+02  0.00000000000E+00 0.  1.
</event>
<event>
 7    1  0.4520156E-012  0.5052885E+02  0.7816164E-02  0.1300439E+00
        -11   -1    0    0    0    0  0.00000000000E+00  0.00000000000E+00  0.45593999997E+02  0.45594000000E+02  0.51100000000E-03 0. -1.
         11   -1    0    0    0    0 -0.00000000000E+00 -0.00000000000E+00 -0.45593999997E+02  0.45594000000E+02  0.51100000000E-03 0.  1.
    9900012    2    1    2    0    0 -0.13020485380E+01 -0.34329825399E+02  0.21747060333E+02  0.50528845121E+02  0.29999955230E+02 0.  0.
        -12    1    1    2    0    0  0.13020485380E+01  0.34329825399E+02 -0.21747060333E+02  0.40659154879E+02  0.00000000000E+00 0.  1.
         11    1    3    3    0    0  0.16056624085E+01 -0.93049635685E+01 -0.90498606243E+00  0.94857524117E+01  0.51100000000E-03 0. -1.
        -11    1    3    3    0    0 -0.31689853462E+00 -0.34120065422E+01 -0.48691154401E+01  0.59540321426E+01  0.51100000000E-03 0.  1.
         12    1    3    3    0    0 -0.25908124119E+01 -0.21612855288E+02  0.27521161836E+02  0.35089060567E+02  0.00000000000E+00 0. -1.
</event>
<event>
 7    1  0.4520156E-012  0.5052887E+02  0.7816164E-02  0.1300439E+00
        -11   -1    0    0    0    0  0.00000000000E+00  0.00000000000E+00  0.45593999997E+02  0.45594000000E+02  0.51100000000E-03 0. -1.
         11   -1    0    0    0    0 -0.00000000000E+00 -0.00000000000E+00 -0.45593999997E+02  0.45594000000E+02  0.51100000000E-03 0.  1.
    9900012    2    1    2    0    0  0.37194281394E+01 -0.50176315907E+00 -0.40485543336E+02  0.50528866572E+02  0.30000020432E+02 0.  0.
         12    1    1    2    0    0 -0.37194281394E+01  0.50176315907E+00  0.40485543336E+02  0.40659133428E+02  0.00000000000E+00 0. -1.
         11    1    3    3    0    0 -0.68743251568E+00 -0.13879991554E+02 -0.22157937522E+02  0.26155323062E+02  0.51100000000E-03 0. -1.
        -11    1    3    3    0    0  0.44780096030E+01  0.96532717450E+01 -0.17615914308E+02  0.20580540871E+02  0.51100000000E-03 0.  1.
        -12    1    3    3    0    0 -0.71148947971E-01  0.37249566499E+01 -0.71169150581E+00  0.37930026385E+01  0.00000000000E+00 0.  1.
</event>
<event>
 7    1  0.4520156E-012  0.5052886E+02  0.7816164E-02  0.1300439E+00
        -11   -1    0    0    0    0  0.00000000000E+00  0.00000000000E+00  0.45593999997E+02  0.45594000000E+02  0.51100000000E-03 0. -1.
         11   -1    0    0    0    0 -0.00000000000E+00 -0.00000000000E+00 -0.45593999997E+02  0.45594000000E+02  0.51100000000E-03 0.  1.
    9900012    2    1    2    0    0  0.18911341922E+02  0.22108276017E+02 -0.28403359971E+02  0.50528861060E+02  0.30000003677E+02 0.  0.
         12    1    1    2    0    0 -0.18911341922E+02 -0.22108276017E+02  0.28403359971E+02  0.40659138940E+02  0.00000000000E+00 0. -1.
         11    1    3    3    0    0 -0.55345510351E+01  0.81918890933E+01 -0.12842548938E+02  0.16207077638E+02  0.51100000000E-03 0.  1.
        -11    1    3    3    0    0  0.14028760702E+01  0.60264709240E+01 -0.39370677862E+01  0.73339563730E+01  0.51100000000E-03 0. -1.
         12    1    3    3    0    0  0.23043016887E+02  0.78899159994E+01 -0.11623743246E+02  0.26987827049E+02  0.00000000000E+00 0. -1.
</event>
<event>
 7    1  0.4520156E-012  0.5052888E+02  0.7816164E-02  0.1300439E+00
        -11   -1    0    0    0    0  0.00000000000E+00  0.00000000000E+00  0.45593999997E+02  0.45594000000E+02  0.51100000000E-03 0. -1.
         11   -1    0    0    0    0 -0.00000000000E+00 -0.00000000000E+00 -0.45593999997E+02  0.45594000000E+02  0.51100000000E-03 0.  1.
    9900012    2    1    2    0    0  0.39913958152E-01 -0.30684826968E+02  0.26675900663E+02  0.50528882014E+02  0.30000067370E+02 0.  0.
        -12    1    1    2    0    0 -0.39913958152E-01  0.30684826968E+02 -0.26675900663E+02  0.40659117986E+02  0.00000000000E+00 0.  1.
         11    1    3    3    0    0 -0.54564574011E+01 -0.97252167579E+01  0.60855678123E+01  0.12703814554E+02  0.51100000000E-03 0. -1.
        -11    1    3    3    0    0 -0.68338300682E+01 -0.10367655276E+02  0.11293693131E+01  0.12468559846E+02  0.51100000000E-03 0.  1.
         12    1    3    3    0    0  0.12330201428E+02 -0.10591954934E+02  0.19460963538E+02  0.25356507614E+02  0.00000000000E+00 0. -1.
</event>
<event>
 7    1  0.4520156E-012  0.5052886E+02  0.7816164E-02  0.1300439E+00
        -11   -1    0    0    0    0  0.00000000000E+00  0.00000000000E+00  0.45593999997E+02  0.45594000000E+02  0.51100000000E-03 0. -1.
         11   -1    0    0    0    0 -0.00000000000E+00 -0.00000000000E+00 -0.45593999997E+02  0.45594000000E+02  0.51100000000E-03 0.  1.
    9900012    2    1    2    0    0  0.14569585869E+02  0.10053788621E+02 -0.36603468813E+02  0.50528862931E+02  0.30000009365E+02 0.  0.
         12    1    1    2    0    0 -0.14569585869E+02 -0.10053788621E+02  0.36603468813E+02  0.40659137069E+02  0.00000000000E+00 0. -1.
         11    1    3    3    0    0  0.17940328741E+01  0.18662138997E+01 -0.12523152525E+01  0.28756915734E+01  0.51100000000E-03 0.  1.
        -11    1    3    3    0    0  0.19731858112E+02  0.92178520771E+01 -0.15886858267E+02  0.26957508923E+02  0.51100000000E-03 0. -1.
         12    1    3    3    0    0 -0.69563051179E+01 -0.10302773555E+01 -0.19464295294E+02  0.20695662434E+02  0.00000000000E+00 0. -1.
</event>
<event>
 7    1  0.4520156E-012  0.5052884E+02  0.7816164E-02  0.1300439E+00
        -11   -1    0    0    0    0  0.00000000000E+00  0.00000000000E+00  0.45593999997E+02  0.45594000000E+02  0.51100000000E-03 0. -1.
         11   -1    0    0    0    0 -0.00000000000E+00 -0.00000000000E+00 -0.45593999997E+02  0.45594000000E+02  0.51100000000E-03 0.  1.
    9900012    2    1    2    0    0  0.67031138213E+01  0.28726071016E+02  0.27983001441E+02  0.50528840385E+02  0.29999940836E+02 0.  0.
        -12    1    1    2    0    0 -0.67031138213E+01 -0.28726071016E+02 -0.27983001441E+02  0.40659159615E+02  0.00000000000E+00 0.  1.
         11    1    3    3    0    0  0.33892495977E+01  0.76462073053E+01  0.60823851263E-01  0.83639224526E+01  0.51100000000E-03 0. -1.
        -11    1    3    3    0    0  0.78445339324E+01  0.11319741396E+02  0.17699097598E+01  0.13885454213E+02  0.51100000000E-03 0.  1.
         12    1    3    3    0    0 -0.45306697088E+01  0.97601223141E+01  0.26152267830E+02  0.28279463719E+02  0.00000000000E+00 0. -1.
</event>
<event>
 7    1  0.4520156E-012  0.5052885E+02  0.7816164E-02  0.1300439E+00
        -11   -1    0    0    0    0  0.00000000000E+00  0.00000000000E+00  0.45593999997E+02  0.45594000000E+02  0.51100000000E-03 0. -1.
         11   -1    0    0    0    0 -0.00000000000E+00 -0.00000000000E+00 -0.45593999997E+02  0.45594000000E+02  0.51100000000E-03 0.  1.
    9900012    2    1    2    0    0 -0.15439031898E+02  0.15046978059E+02 -0.34473053988E+02  0.50528847206E+02  0.29999961567E+02 0.  0.
         12    1    1    2    0    0  0.15439031898E+02 -0.15046978059E+02  0.34473053988E+02  0.40659152794E+02  0.00000000000E+00 0. -1.
         11    1    3    3    0    0 -0.61092682485E+01  0.14917507702E+02 -0.28247179969E+01  0.16365641649E+02  0.51100000000E-03 0. -1.
        -11    1    3    3    0    0 -0.40609816975E+01  0.41248115329E+00 -0.30847871434E+01  0.51164074340E+01  0.51100000000E-03 0.  1.
        -12    1    3    3    0    0 -0.52687819520E+01 -0.28301079634E+00 -0.28563548848E+02  0.29046798122E+02  0.00000000000E+00 0.  1.
</event>
<event>
 7    1  0.4520156E-012  0.5052886E+02  0.7816164E-02  0.1300439E+00
        -11   -1    0    0    0    0  0.00000000000E+00  0.00000000000E+00  0.45593999997E+02  0.45594000000E+02  0.51100000000E-03 0.  1.
         11   -1    0    0    0    0 -0.00000000000E+00 -0.00000000000E+00 -0.45593999997E+02  0.45594000000E+02  0.51100000000E-03 0. -1.
    9900012    2    1    2    0    0  0.30443859993E+02 -0.24544141109E+01 -0.26838645062E+02  0.50528860454E+02  0.30000001835E+02 0.  0.
         12    1    1    2    0    0 -0.30443859993E+02  0.24544141109E+01  0.26838645062E+02  0.40659139546E+02  0.00000000000E+00 0. -1.
         11    1    3    3    0    0  0.62160342900E+01 -0.12023478452E+02 -0.43932340404E+01  0.14230376733E+02  0.51100000000E-03 0. -1.
        -11    1    3    3    0    0  0.28913705721E+01  0.86421279011E+00  0.12310615250E+01  0.32592023980E+01  0.51100000000E-03 0.  1.
         12    1    3    3    0    0  0.21336455131E+02  0.87048515508E+01 -0.23676472546E+02  0.33039281322E+02  0.00000000000E+00 0. -1.
</event>
<event>
 7    1  0.4520156E-012  0.5052886E+02  0.7816164E-02  0.1300439E+00
        -11   -1    0    0    0    0  0.00000000000E+00  0.00000000000E+00  0.45593999997E+02  0.45594000000E+02  0.51100000000E-03 0. -1.
         11   -1    0    0    0    0 -0.00000000000E+00 -0.00000000000E+00 -0.45593999997E+02  0.45594000000E+02  0.51100000000E-03 0.  1.
    9900012    2    1    2    0    0 -0.26091705912E+02  0.28602683487E+02 -0.12420749091E+02  0.50528860461E+02  0.30000001859E+02 0.  0.
         12    1    1    2    0    0  0.26091705912E+02 -0.28602683487E+02  0.12420749091E+02  0.40659139539E+02  0.00000000000E+00 0. -1.
         11    1    3    3    0    0 -0.55357772980E+00 -0.19537283669E+01  0.23555939597E+01  0.31100363339E+01  0.51100000000E-03 0. -1.
        -11    1    3    3    0    0  0.15142740352E+00  0.21625511976E+01 -0.83075256881E+01  0.85857172828E+01  0.51100000000E-03 0.  1.
        -12    1    3    3    0    0 -0.25689555585E+02  0.28393860656E+02 -0.64688173622E+01  0.38833106845E+02  0.00000000000E+00 0.  1.
</event>
<event>
 7    1  0.4520156E-012  0.5052886E+02  0.7816164E-02  0.1300439E+00
        -11   -1    0    0    0    0  0.00000000000E+00  0.00000000000E+00  0.45593999997E+02  0.45594000000E+02  0.51100000000E-03 0. -1.
         11   -1    0    0    0    0 -0.00000000000E+00 -0.00000000000E+00 -0.45593999997E+02  0.45594000000E+02  0.51100000000E-03 0.  1.
    9900012    2    1    2    0    0 -0.23400548605E+02 -0.22585296826E+02  0.24402552313E+02  0.50528857521E+02  0.29999992920E+02 0.  0.
        -12    1    1    2    0    0  0.23400548605E+02  0.22585296826E+02 -0.24402552313E+02  0.40659142479E+02  0.00000000000E+00 0.  1.
         11    1    3    3    0    0 -0.25059727685E+01 -0.15372166011E+01  0.13052638817E+02  0.13379623117E+02  0.51100000000E-03 0. -1.
        -11    1    3    3    0    0 -0.39983836662E+01 -0.15558553394E+02 -0.64137506581E-02  0.16064112085E+02  0.51100000000E-03 0.  1.
         12    1    3    3    0    0 -0.16896192171E+02 -0.54895268308E+01  0.11356327246E+02  0.21085122319E+02  0.00000000000E+00 0. -1.
</event>
<event>
 7    1  0.4520156E-012  0.5052886E+02  0.7816164E-02  0.1300439E+00
        -11   -1    0    0    0    0  0.00000000000E+00  0.00000000000E+00  0.45593999997E+02  0.45594000000E+02  0.51100000000E-03 0.  1.
         11   -1    0    0    0    0 -0.00000000000E+00 -0.00000000000E+00 -0.45593999997E+02  0.45594000000E+02  0.51100000000E-03 0. -1.
    9900012    2    1    2    0    0  0.41999827450E+01  0.29815199417E+02 -0.27323613523E+02  0.50528858011E+02  0.29999994410E+02 0.  0.
         12    1    1    2    0    0 -0.41999827450E+01 -0.29815199417E+02  0.27323613523E+02  0.40659141989E+02  0.00000000000E+00 0. -1.
         11    1    3    3    0    0 -0.19600917218E+01 -0.48435806779E+01 -0.50104471429E+01  0.72392550842E+01  0.51100000000E-03 0. -1.
        -11    1    3    3    0    0 -0.31597424162E+01  0.48368117642E+01 -0.45077987381E+01  0.73279580992E+01  0.51100000000E-03 0.  1.
         12    1    3    3    0    0  0.93198168830E+01  0.29821968330E+02 -0.17805367642E+02  0.35961644828E+02  0.00000000000E+00 0. -1.
</event>
<event>
 7    1  0.4520156E-012  0.5052884E+02  0.7816164E-02  0.1300439E+00
        -11   -1    0    0    0    0  0.00000000000E+00  0.00000000000E+00  0.45593999997E+02  0.45594000000E+02  0.51100000000E-03 0. -1.
         11   -1    0    0    0    0 -0.00000000000E+00 -0.00000000000E+00 -0.45593999997E+02  0.45594000000E+02  0.51100000000E-03 0.  1.
    9900012    2    1    2    0    0  0.16692030809E+02  0.23448860514E+01  0.37000605493E+02  0.50528841253E+02  0.29999943473E+02 0.  0.
        -12    1    1    2    0    0 -0.16692030809E+02 -0.23448860514E+01 -0.37000605493E+02  0.40659158747E+02  0.00000000000E+00 0.  1.
         11    1    3    3    0    0  0.71353517200E+01  0.59888950005E+01  0.10514420970E+02  0.14047532029E+02  0.51100000000E-03 0. -1.
        -11    1    3    3    0    0 -0.76717688985E-01  0.15677630086E+01 -0.38878852030E+01  0.41927816623E+01  0.51100000000E-03 0.  1.
        -12    1    3    3    0    0  0.96333967777E+01 -0.52117719576E+01  0.30374069726E+02  0.32288527562E+02  0.00000000000E+00 0.  1.
</event>
<event>
 7    1  0.4520156E-012  0.5052885E+02  0.7816164E-02  0.1300439E+00
        -11   -1    0    0    0    0  0.00000000000E+00  0.00000000000E+00  0.45593999997E+02  0.45594000000E+02  0.51100000000E-03 0. -1.
         11   -1    0    0    0    0 -0.00000000000E+00 -0.00000000000E+00 -0.45593999997E+02  0.45594000000E+02  0.51100000000E-03 0.  1.
    9900012    2    1    2    0    0  0.81744646601E+01 -0.26499078238E+02  0.29734548586E+02  0.50528850974E+02  0.29999973020E+02 0.  0.
        -12    1    1    2    0    0 -0.81744646601E+01  0.26499078238E+02 -0.29734548586E+02  0.40659149026E+02  0.00000000000E+00 0.  1.
         11    1    3    3    0    0  0.10628289160E+02 -0.18242406944E+02  0.18064526457E+02  0.27786202655E+02  0.51100000000E-03 0. -1.
        -11    1    3    3    0    0  0.63963707832E+01 -0.77139944240E+01  0.33027312939E+01  0.10551175453E+02  0.51100000000E-03 0.  1.
         12    1    3    3    0    0 -0.88501952833E+01 -0.54267686916E+00  0.83672908354E+01  0.12191472867E+02  0.00000000000E+00 0. -1.
</event>
<event>
 7    1  0.4520156E-012  0.5052886E+02  0.7816164E-02  0.1300439E+00
        -11   -1    0    0    0    0  0.00000000000E+00  0.00000000000E+00  0.45593999997E+02  0.45594000000E+02  0.51100000000E-03 0. -1.
         11   -1    0    0    0    0 -0.00000000000E+00 -0.00000000000E+00 -0.45593999997E+02  0.45594000000E+02  0.51100000000E-03 0.  1.
    9900012    2    1    2    0    0  0.17820514887E+02 -0.10963082043E+02  0.34862670374E+02  0.50528859523E+02  0.29999999006E+02 0.  0.
        -12    1    1    2    0    0 -0.17820514887E+02  0.10963082043E+02 -0.34862670374E+02  0.40659140477E+02  0.00000000000E+00 0.  1.
         11    1    3    3    0    0  0.90258213805E+01 -0.11694140101E+02  0.22861665144E+02  0.27219002512E+02  0.51100000000E-03 0. -1.
        -11    1    3    3    0    0  0.53106998241E+01 -0.80645097329E+01  0.94515343841E+01  0.13511896696E+02  0.51100000000E-03 0.  1.
         12    1    3    3    0    0  0.34839936823E+01  0.87955677908E+01  0.25494708457E+01  0.97979603149E+01  0.00000000000E+00 0. -1.
</event>
<event>
 7    1  0.4520156E-012  0.5052886E+02  0.7816164E-02  0.1300439E+00
        -11   -1    0    0    0    0  0.00000000000E+00  0.00000000000E+00  0.45593999997E+02  0.45594000000E+02  0.51100000000E-03 0. -1.
         11   -1    0    0    0    0 -0.00000000000E+00 -0.00000000000E+00 -0.45593999997E+02  0.45594000000E+02  0.51100000000E-03 0.  1.
    9900012    2    1    2    0    0 -0.31776741618E+01  0.13891365945E+02  0.38080148654E+02  0.50528863482E+02  0.30000011040E+02 0.  0.
        -12    1    1    2    0    0  0.31776741618E+01 -0.13891365945E+02 -0.38080148654E+02  0.40659136518E+02  0.00000000000E+00 0.  1.
         11    1    3    3    0    0  0.14658590793E+01  0.50839479204E+01  0.19669758715E+01  0.56448439870E+01  0.51100000000E-03 0. -1.
        -11    1    3    3    0    0 -0.74797416486E+01 -0.69756453539E+01  0.10446254185E+02  0.14619520853E+02  0.51100000000E-03 0.  1.
         12    1    3    3    0    0  0.28362084076E+01  0.15783063378E+02  0.25666918598E+02  0.30264498642E+02  0.00000000000E+00 0. -1.
</event>
<event>
 7    1  0.4520156E-012  0.5052886E+02  0.7816164E-02  0.1300439E+00
        -11   -1    0    0    0    0  0.00000000000E+00  0.00000000000E+00  0.45593999997E+02  0.45594000000E+02  0.51100000000E-03 0. -1.
         11   -1    0    0    0    0 -0.00000000000E+00 -0.00000000000E+00 -0.45593999997E+02  0.45594000000E+02  0.51100000000E-03 0.  1.
    9900012    2    1    2    0    0  0.61308297420E+01  0.28788234592E+02  0.28050248971E+02  0.50528855991E+02  0.29999988271E+02 0.  0.
        -12    1    1    2    0    0 -0.61308297420E+01 -0.28788234592E+02 -0.28050248971E+02  0.40659144009E+02  0.00000000000E+00 0.  1.
         11    1    3    3    0    0  0.12085411779E+02  0.29638322850E+01  0.18344588915E+02  0.22166763914E+02  0.51100000000E-03 0. -1.
        -11    1    3    3    0    0 -0.16518356854E+01  0.64045155382E+01  0.11683286755E+01  0.67165000235E+01  0.51100000000E-03 0.  1.
        -12    1    3    3    0    0 -0.43027463517E+01  0.19419886768E+02  0.85373313798E+01  0.21645592054E+02  0.00000000000E+00 0.  1.
</event>
<event>
 7    1  0.4520156E-012  0.5052886E+02  0.7816164E-02  0.1300439E+00
        -11   -1    0    0    0    0  0.00000000000E+00  0.00000000000E+00  0.45593999997E+02  0.45594000000E+02  0.51100000000E-03 0. -1.
         11   -1    0    0    0    0 -0.00000000000E+00 -0.00000000000E+00 -0.45593999997E+02  0.45594000000E+02  0.51100000000E-03 0.  1.
    9900012    2    1    2    0    0 -0.69261702460E+01  0.37276719296E+02 -0.14684678362E+02  0.50528863089E+02  0.30000009844E+02 0.  0.
         12    1    1    2    0    0  0.69261702460E+01 -0.37276719296E+02  0.14684678362E+02  0.40659136911E+02  0.00000000000E+00 0. -1.
         11    1    3    3    0    0  0.22422635878E+01  0.21375025604E+02 -0.56615095698E+01  0.22225484392E+02  0.51100000000E-03 0. -1.
        -11    1    3    3    0    0  0.31200461295E+01  0.13283133341E+02 -0.16725857497E+01  0.13746776442E+02  0.51100000000E-03 0.  1.
         12    1    3    3    0    0 -0.12288479963E+02  0.26185603512E+01 -0.73505830430E+01  0.14556602254E+02  0.00000000000E+00 0. -1.
</event>
<event>
 7    1  0.4520156E-012  0.5052890E+02  0.7816164E-02  0.1300439E+00
        -11   -1    0    0    0    0  0.00000000000E+00  0.00000000000E+00  0.45593999997E+02  0.45594000000E+02  0.51100000000E-03 0. -1.
         11   -1    0    0    0    0 -0.00000000000E+00 -0.00000000000E+00 -0.45593999997E+02  0.45594000000E+02  0.51100000000E-03 0.  1.
    9900012    2    1    2    0    0  0.17326318102E+02  0.31414514321E+02  0.19133459215E+02  0.50528901749E+02  0.30000127357E+02 0.  0.
        -12    1    1    2    0    0 -0.17326318102E+02 -0.31414514321E+02 -0.19133459215E+02  0.40659098251E+02  0.00000000000E+00 0.  1.
         11    1    3    3    0    0  0.10268613549E+02  0.13775010386E+02 -0.21409841357E+01  0.17314131473E+02  0.51100000000E-03 0. -1.
        -11    1    3    3    0    0  0.10299418884E+02  0.63961863549E+01  0.48717870388E+01  0.13066121783E+02  0.51100000000E-03 0.  1.
         12    1    3    3    0    0 -0.32417143304E+01  0.11243317581E+02  0.16402656312E+02  0.20148648494E+02  0.00000000000E+00 0. -1.
</event>
<event>
 7    1  0.4520156E-012  0.5052886E+02  0.7816164E-02  0.1300439E+00
        -11   -1    0    0    0    0  0.00000000000E+00  0.00000000000E+00  0.45593999997E+02  0.45594000000E+02  0.51100000000E-03 0. -1.
         11   -1    0    0    0    0 -0.00000000000E+00 -0.00000000000E+00 -0.45593999997E+02  0.45594000000E+02  0.51100000000E-03 0.  1.
    9900012    2    1    2    0    0 -0.33447876611E+02  0.46650306251E+01  0.22641611994E+02  0.50528861370E+02  0.30000004619E+02 0.  0.
        -12    1    1    2    0    0  0.33447876611E+02 -0.46650306251E+01 -0.22641611994E+02  0.40659138630E+02  0.00000000000E+00 0.  1.
         11    1    3    3    0    0  0.58901032364E-01  0.34212668608E+01  0.92900142779E+00  0.35456424211E+01  0.51100000000E-03 0. -1.
        -11    1    3    3    0    0  0.32640722773E-01  0.51516937813E+01 -0.22054512550E+01  0.56040190696E+01  0.51100000000E-03 0.  1.
         12    1    3    3    0    0 -0.33539418366E+02 -0.39079300171E+01  0.23918061821E+02  0.41379199879E+02  0.00000000000E+00 0. -1.
</event>
<event>
 7    1  0.4520156E-012  0.5052886E+02  0.7816164E-02  0.1300439E+00
        -11   -1    0    0    0    0  0.00000000000E+00  0.00000000000E+00  0.45593999997E+02  0.45594000000E+02  0.51100000000E-03 0. -1.
         11   -1    0    0    0    0 -0.00000000000E+00 -0.00000000000E+00 -0.45593999997E+02  0.45594000000E+02  0.51100000000E-03 0.  1.
    9900012    2    1    2    0    0 -0.13655589684E+02 -0.13207932851E+01 -0.38274618142E+02  0.50528855660E+02  0.29999987265E+02 0.  0.
         12    1    1    2    0    0  0.13655589684E+02  0.13207932851E+01  0.38274618142E+02  0.40659144340E+02  0.00000000000E+00 0. -1.
         11    1    3    3    0    0 -0.57770704657E+01 -0.94287928373E+01 -0.68166000732E+01  0.12990100629E+02  0.51100000000E-03 0. -1.
        -11    1    3    3    0    0 -0.10858342459E+01 -0.50918592249E+01 -0.51017772232E+01  0.72893207826E+01  0.51100000000E-03 0.  1.
        -12    1    3    3    0    0 -0.67926849728E+01  0.13199858777E+02 -0.26356240845E+02  0.30249434249E+02  0.00000000000E+00 0.  1.
</event>
<event>
 7    1  0.4520156E-012  0.5052886E+02  0.7816164E-02  0.1300439E+00
        -11   -1    0    0    0    0  0.00000000000E+00  0.00000000000E+00  0.45593999997E+02  0.45594000000E+02  0.51100000000E-03 0. -1.
         11   -1    0    0    0    0 -0.00000000000E+00 -0.00000000000E+00 -0.45593999997E+02  0.45594000000E+02  0.51100000000E-03 0.  1.
    9900012    2    1    2    0    0  0.23957384002E+02 -0.62327445496E+00  0.32845409075E+02  0.50528860602E+02  0.30000002286E+02 0.  0.
        -12    1    1    2    0    0 -0.23957384002E+02  0.62327445496E+00 -0.32845409075E+02  0.40659139398E+02  0.00000000000E+00 0.  1.
         11    1    3    3    0    0  0.11641338219E+02 -0.63929509122E+01  0.79294031549E+01  0.15468225870E+02  0.51100000000E-03 0. -1.
        -11    1    3    3    0    0  0.16318477375E+02  0.12217578069E+01  0.10551931685E+02  0.19471226426E+02  0.51100000000E-03 0.  1.
         12    1    3    3    0    0 -0.40024315927E+01  0.45479186504E+01  0.14364074235E+02  0.15589408306E+02  0.00000000000E+00 0. -1.
</event>
<event>
 7    1  0.4520156E-012  0.5052886E+02  0.7816164E-02  0.1300439E+00
        -11   -1    0    0    0    0  0.00000000000E+00  0.00000000000E+00  0.45593999997E+02  0.45594000000E+02  0.51100000000E-03 0.  1.
         11   -1    0    0    0    0 -0.00000000000E+00 -0.00000000000E+00 -0.45593999997E+02  0.45594000000E+02  0.51100000000E-03 0. -1.
    9900012    2    1    2    0    0 -0.21830467883E+02 -0.32928271231E+02  0.96086035076E+01  0.50528860368E+02  0.30000001576E+02 0.  0.
        -12    1    1    2    0    0  0.21830467883E+02  0.32928271231E+02 -0.96086035076E+01  0.40659139632E+02  0.00000000000E+00 0.  1.
         11    1    3    3    0    0 -0.69862072838E+01 -0.10296669555E+02  0.12370992218E+02  0.17546223094E+02  0.51100000000E-03 0. -1.
        -11    1    3    3    0    0 -0.78094175717E+01 -0.13979592532E+02  0.76315973141E+01  0.17738581905E+02  0.51100000000E-03 0.  1.
        -12    1    3    3    0    0 -0.70348430270E+01 -0.86520091437E+01 -0.10393986025E+02  0.15244055370E+02  0.00000000000E+00 0.  1.
</event>
<event>
 7    1  0.4520156E-012  0.5052886E+02  0.7816164E-02  0.1300439E+00
        -11   -1    0    0    0    0  0.00000000000E+00  0.00000000000E+00  0.45593999997E+02  0.45594000000E+02  0.51100000000E-03 0.  1.
         11   -1    0    0    0    0 -0.00000000000E+00 -0.00000000000E+00 -0.45593999997E+02  0.45594000000E+02  0.51100000000E-03 0. -1.
    9900012    2    1    2    0    0  0.26701857053E+02 -0.30523902407E+02  0.29099031760E+01  0.50528864191E+02  0.30000013196E+02 0.  0.
        -12    1    1    2    0    0 -0.26701857053E+02  0.30523902407E+02 -0.29099031760E+01  0.40659135809E+02  0.00000000000E+00 0.  1.
         11    1    3    3    0    0  0.51636572127E+01 -0.10894483632E+02 -0.11381067899E+02  0.16579560796E+02  0.51100000000E-03 0. -1.
        -11    1    3    3    0    0  0.45727869439E+01 -0.36684758662E+01 -0.11884139762E+01  0.59816739843E+01  0.51100000000E-03 0.  1.
        -12    1    3    3    0    0  0.16965412897E+02 -0.15960942909E+02  0.15479385051E+02  0.27967629411E+02  0.00000000000E+00 0.  1.
</event>
<event>
 7    1  0.4520156E-012  0.5052886E+02  0.7816164E-02  0.1300439E+00
        -11   -1    0    0    0    0  0.00000000000E+00  0.00000000000E+00  0.45593999997E+02  0.45594000000E+02  0.51100000000E-03 0. -1.
         11   -1    0    0    0    0 -0.00000000000E+00 -0.00000000000E+00 -0.45593999997E+02  0.45594000000E+02  0.51100000000E-03 0.  1.
    9900012    2    1    2    0    0 -0.11594708150E+02 -0.21528808598E+02  0.32484439377E+02  0.50528860088E+02  0.30000000724E+02 0.  0.
        -12    1    1    2    0    0  0.11594708150E+02  0.21528808598E+02 -0.32484439377E+02  0.40659139912E+02  0.00000000000E+00 0.  1.
         11    1    3    3    0    0  0.14795746261E+01 -0.12093943194E+02  0.14984067025E+02  0.19312557260E+02  0.51100000000E-03 0. -1.
        -11    1    3    3    0    0  0.54864597264E+01 -0.24977720948E+01  0.43790329435E+01  0.74509083706E+01  0.51100000000E-03 0.  1.
        -12    1    3    3    0    0 -0.18560742503E+02 -0.69370933098E+01  0.13121339408E+02  0.23765394457E+02  0.00000000000E+00 0.  1.
</event>
<event>
 7    1  0.4520156E-012  0.5052885E+02  0.7816164E-02  0.1300439E+00
        -11   -1    0    0    0    0  0.00000000000E+00  0.00000000000E+00  0.45593999997E+02  0.45594000000E+02  0.51100000000E-03 0.  1.
         11   -1    0    0    0    0 -0.00000000000E+00 -0.00000000000E+00 -0.45593999997E+02  0.45594000000E+02  0.51100000000E-03 0. -1.
    9900012    2    1    2    0    0 -0.24361109853E+00 -0.38527194888E+02  0.12990851704E+02  0.50528851948E+02  0.29999975982E+02 0.  0.
        -12    1    1    2    0    0  0.24361109853E+00  0.38527194888E+02 -0.12990851704E+02  0.40659148052E+02  0.00000000000E+00 0.  1.
         11    1    3    3    0    0 -0.78695054564E+01 -0.10843854873E+02 -0.35324665959E+01  0.13856284681E+02  0.51100000000E-03 0. -1.
        -11    1    3    3    0    0 -0.37928202363E+01 -0.41576718696E+01 -0.20128420611E+00  0.56313618524E+01  0.51100000000E-03 0.  1.
        -12    1    3    3    0    0  0.11418714594E+02 -0.23525668145E+02  0.16724602506E+02  0.31041205415E+02  0.00000000000E+00 0.  1.
</event>
<event>
 7    1  0.4520156E-012  0.5052886E+02  0.7816164E-02  0.1300439E+00
        -11   -1    0    0    0    0  0.00000000000E+00  0.00000000000E+00  0.45593999997E+02  0.45594000000E+02  0.51100000000E-03 0. -1.
         11   -1    0    0    0    0 -0.00000000000E+00 -0.00000000000E+00 -0.45593999997E+02  0.45594000000E+02  0.51100000000E-03 0.  1.
    9900012    2    1    2    0    0  0.10446140656E+02 -0.25326908238E+02 -0.30043156280E+02  0.50528863576E+02  0.30000011325E+02 0.  0.
         12    1    1    2    0    0 -0.10446140656E+02  0.25326908238E+02  0.30043156280E+02  0.40659136424E+02  0.00000000000E+00 0. -1.
         11    1    3    3    0    0 -0.21194560352E+01 -0.47584363981E+00 -0.56378945290E+01  0.60418851393E+01  0.51100000000E-03 0. -1.
        -11    1    3    3    0    0 -0.48830666008E+01 -0.12067312962E+01  0.15673751002E+01  0.52685106828E+01  0.51100000000E-03 0.  1.
        -12    1    3    3    0    0  0.17448663292E+02 -0.23644333302E+02 -0.25972636851E+02  0.39218467754E+02  0.00000000000E+00 0.  1.
</event>
<event>
 7    1  0.4520156E-012  0.5052886E+02  0.7816164E-02  0.1300439E+00
        -11   -1    0    0    0    0  0.00000000000E+00  0.00000000000E+00  0.45593999997E+02  0.45594000000E+02  0.51100000000E-03 0. -1.
         11   -1    0    0    0    0 -0.00000000000E+00 -0.00000000000E+00 -0.45593999997E+02  0.45594000000E+02  0.51100000000E-03 0.  1.
    9900012    2    1    2    0    0  0.21301368904E+02 -0.24685805543E+02 -0.24290500906E+02  0.50528859001E+02  0.29999997419E+02 0.  0.
         12    1    1    2    0    0 -0.21301368904E+02  0.24685805543E+02  0.24290500906E+02  0.40659140999E+02  0.00000000000E+00 0. -1.
         11    1    3    3    0    0  0.19697498623E+01 -0.64694797393E+01  0.86766257714E+00  0.68181317988E+01  0.51100000000E-03 0. -1.
        -11    1    3    3    0    0  0.19018509224E+02 -0.20403859334E+02 -0.11994096597E+02  0.30362468975E+02  0.51100000000E-03 0.  1.
        -12    1    3    3    0    0  0.31310981803E+00  0.21875335299E+01 -0.13164066887E+02  0.13348258227E+02  0.00000000000E+00 0.  1.
</event>
<event>
 7    1  0.4520156E-012  0.5052887E+02  0.7816164E-02  0.1300439E+00
        -11   -1    0    0    0    0  0.00000000000E+00  0.00000000000E+00  0.45593999997E+02  0.45594000000E+02  0.51100000000E-03 0. -1.
         11   -1    0    0    0    0 -0.00000000000E+00 -0.00000000000E+00 -0.45593999997E+02  0.45594000000E+02  0.51100000000E-03 0.  1.
    9900012    2    1    2    0    0 -0.53150932740E+01  0.88873953769E+01  0.39318301254E+02  0.50528870317E+02  0.30000031815E+02 0.  0.
        -12    1    1    2    0    0  0.53150932740E+01 -0.88873953769E+01 -0.39318301254E+02  0.40659129683E+02  0.00000000000E+00 0.  1.
         11    1    3    3    0    0 -0.35249987235E+01  0.37214836825E+01  0.70135444374E+01  0.86870514351E+01  0.51100000000E-03 0. -1.
        -11    1    3    3    0    0 -0.97395965978E+01 -0.40983736481E+01  0.26079119083E+02  0.28138529828E+02  0.51100000000E-03 0.  1.
        -12    1    3    3    0    0  0.79495020472E+01  0.92642853426E+01  0.62256377335E+01  0.13703289054E+02  0.00000000000E+00 0.  1.
</event>
<event>
 7    1  0.4520156E-012  0.5052886E+02  0.7816164E-02  0.1300439E+00
        -11   -1    0    0    0    0  0.00000000000E+00  0.00000000000E+00  0.45593999997E+02  0.45594000000E+02  0.51100000000E-03 0.  1.
         11   -1    0    0    0    0 -0.00000000000E+00 -0.00000000000E+00 -0.45593999997E+02  0.45594000000E+02  0.51100000000E-03 0. -1.
    9900012    2    1    2    0    0 -0.30144137768E+02 -0.14500089987E+02 -0.23113727221E+02  0.50528855426E+02  0.29999986554E+02 0.  0.
         12    1    1    2    0    0  0.30144137768E+02  0.14500089987E+02  0.23113727221E+02  0.40659144574E+02  0.00000000000E+00 0. -1.
         11    1    3    3    0    0  0.28755446142E+01 -0.38574773724E+01 -0.82067119568E+01  0.95130967571E+01  0.51100000000E-03 0. -1.
        -11    1    3    3    0    0 -0.26666323623E+01 -0.57977220306E+01 -0.65892373210E+01  0.91729252496E+01  0.51100000000E-03 0.  1.
        -12    1    3    3    0    0 -0.30353050020E+02 -0.48448905841E+01 -0.83177779435E+01  0.31842833420E+02  0.00000000000E+00 0.  1.
</event>
<event>
 7    1  0.4520156E-012  0.5052885E+02  0.7816164E-02  0.1300439E+00
        -11   -1    0    0    0    0  0.00000000000E+00  0.00000000000E+00  0.45593999997E+02  0.45594000000E+02  0.51100000000E-03 0. -1.
         11   -1    0    0    0    0 -0.00000000000E+00 -0.00000000000E+00 -0.45593999997E+02  0.45594000000E+02  0.51100000000E-03 0.  1.
    9900012    2    1    2    0    0  0.17193634265E+02  0.30951519185E+02  0.19988709521E+02  0.50528854566E+02  0.29999983940E+02 0.  0.
        -12    1    1    2    0    0 -0.17193634265E+02 -0.30951519185E+02 -0.19988709521E+02  0.40659145434E+02  0.00000000000E+00 0.  1.
         11    1    3    3    0    0  0.29740717277E+01  0.12178756173E+02  0.18645426578E+02  0.22468180547E+02  0.51100000000E-03 0. -1.
        -11    1    3    3    0    0 -0.15513859833E+00 -0.69395521558E+00  0.36810918387E+01  0.37491437972E+01  0.51100000000E-03 0.  1.
        -12    1    3    3    0    0  0.14374701136E+02  0.19466718227E+02 -0.23378088962E+01  0.24311530222E+02  0.00000000000E+00 0.  1.
</event>
<event>
 7    1  0.4520156E-012  0.5052887E+02  0.7816164E-02  0.1300439E+00
        -11   -1    0    0    0    0  0.00000000000E+00  0.00000000000E+00  0.45593999997E+02  0.45594000000E+02  0.51100000000E-03 0. -1.
         11   -1    0    0    0    0 -0.00000000000E+00 -0.00000000000E+00 -0.45593999997E+02  0.45594000000E+02  0.51100000000E-03 0.  1.
    9900012    2    1    2    0    0 -0.46650928187E+01  0.29785911220E+02 -0.27280055780E+02  0.50528867673E+02  0.30000023779E+02 0.  0.
         12    1    1    2    0    0  0.46650928187E+01 -0.29785911220E+02  0.27280055780E+02  0.40659132327E+02  0.00000000000E+00 0. -1.
         11    1    3    3    0    0 -0.70738038772E+01  0.14614766202E+02 -0.30293783935E+01  0.16516877009E+02  0.51100000000E-03 0. -1.
        -11    1    3    3    0    0 -0.36749886505E+01 -0.23081769185E+01 -0.13034198688E+01  0.45312388906E+01  0.51100000000E-03 0.  1.
        -12    1    3    3    0    0  0.60836997089E+01  0.17479321937E+02 -0.22947257518E+02  0.29480751773E+02  0.00000000000E+00 0.  1.
</event>
<event>
 7    1  0.4520156E-012  0.5052887E+02  0.7816164E-02  0.1300439E+00
        -11   -1    0    0    0    0  0.00000000000E+00  0.00000000000E+00  0.45593999997E+02  0.45594000000E+02  0.51100000000E-03 0. -1.
         11   -1    0    0    0    0 -0.00000000000E+00 -0.00000000000E+00 -0.45593999997E+02  0.45594000000E+02  0.51100000000E-03 0.  1.
    9900012    2    1    2    0    0 -0.97699063179E+01  0.28986138670E+02 -0.26786513373E+02  0.50528873065E+02  0.30000040169E+02 0.  0.
         12    1    1    2    0    0  0.97699063179E+01 -0.28986138670E+02  0.26786513373E+02  0.40659126935E+02  0.00000000000E+00 0. -1.
         11    1    3    3    0    0 -0.91997088482E+01  0.71427675792E+01 -0.15274818659E+02  0.19208692223E+02  0.51100000000E-03 0. -1.
        -11    1    3    3    0    0  0.26647081837E+00  0.35472575611E+00 -0.97315964198E+01  0.97417044811E+01  0.51100000000E-03 0.  1.
         12    1    3    3    0    0 -0.83666828807E+00  0.21488645334E+02 -0.17800982934E+01  0.21578476361E+02  0.00000000000E+00 0. -1.
</event>
<event>
 7    1  0.4520156E-012  0.5052884E+02  0.7816164E-02  0.1300439E+00
        -11   -1    0    0    0    0  0.00000000000E+00  0.00000000000E+00  0.45593999997E+02  0.45594000000E+02  0.51100000000E-03 0. -1.
         11   -1    0    0    0    0 -0.00000000000E+00 -0.00000000000E+00 -0.45593999997E+02  0.45594000000E+02  0.51100000000E-03 0.  1.
    9900012    2    1    2    0    0 -0.85619435876E+01  0.37519059933E+02  0.13121750385E+02  0.50528842735E+02  0.29999947979E+02 0.  0.
        -12    1    1    2    0    0  0.85619435876E+01 -0.37519059933E+02 -0.13121750385E+02  0.40659157265E+02  0.00000000000E+00 0.  1.
         11    1    3    3    0    0  0.17172482325E+01  0.10747000729E+02  0.80537786342E+01  0.13539214036E+02  0.51100000000E-03 0. -1.
        -11    1    3    3    0    0 -0.74952077803E+01  0.10295477509E+02  0.13255378329E+02  0.18381513858E+02  0.51100000000E-03 0.  1.
         12    1    3    3    0    0 -0.27839840398E+01  0.16476581695E+02 -0.81874065774E+01  0.18608114841E+02  0.00000000000E+00 0. -1.
</event>
<event>
 7    1  0.4520156E-012  0.5052886E+02  0.7816164E-02  0.1300439E+00
        -11   -1    0    0    0    0  0.00000000000E+00  0.00000000000E+00  0.45593999997E+02  0.45594000000E+02  0.51100000000E-03 0. -1.
         11   -1    0    0    0    0 -0.00000000000E+00 -0.00000000000E+00 -0.45593999997E+02  0.45594000000E+02  0.51100000000E-03 0.  1.
    9900012    2    1    2    0    0 -0.26352358214E+02 -0.68477283334E+01 -0.30196475732E+02  0.50528864330E+02  0.30000013618E+02 0.  0.
         12    1    1    2    0    0  0.26352358214E+02  0.68477283334E+01  0.30196475732E+02  0.40659135670E+02  0.00000000000E+00 0. -1.
         11    1    3    3    0    0  0.28433886066E+01 -0.71764652857E+01 -0.62924920182E+01  0.99590144505E+01  0.51100000000E-03 0. -1.
        -11    1    3    3    0    0 -0.15972834461E+02  0.50587720501E+01 -0.59588534455E+01  0.17782872378E+02  0.51100000000E-03 0.  1.
        -12    1    3    3    0    0 -0.13222912360E+02 -0.47300350978E+01 -0.17945130269E+02  0.22786977502E+02  0.00000000000E+00 0.  1.
</event>
<event>
 7    1  0.4520156E-012  0.5052885E+02  0.7816164E-02  0.1300439E+00
        -11   -1    0    0    0    0  0.00000000000E+00  0.00000000000E+00  0.45593999997E+02  0.45594000000E+02  0.51100000000E-03 0. -1.
         11   -1    0    0    0    0 -0.00000000000E+00 -0.00000000000E+00 -0.45593999997E+02  0.45594000000E+02  0.51100000000E-03 0.  1.
    9900012    2    1    2    0    0  0.26619110250E+02  0.45021096726E+01 -0.30402635088E+02  0.50528852907E+02  0.29999978897E+02 0.  0.
         12    1    1    2    0    0 -0.26619110250E+02 -0.45021096726E+01  0.30402635088E+02  0.40659147093E+02  0.00000000000E+00 0. -1.
         11    1    3    3    0    0  0.59480480610E+01  0.11089055923E+02 -0.27686995276E+00  0.12586623624E+02  0.51100000000E-03 0. -1.
        -11    1    3    3    0    0  0.19895995463E+01 -0.70100800633E+00 -0.85308075732E+01  0.87877526531E+01  0.51100000000E-03 0.  1.
        -12    1    3    3    0    0  0.18681462643E+02 -0.58859382445E+01 -0.21594957562E+02  0.29154476631E+02  0.00000000000E+00 0.  1.
</event>
<event>
 7    1  0.4520156E-012  0.5052887E+02  0.7816164E-02  0.1300439E+00
        -11   -1    0    0    0    0  0.00000000000E+00  0.00000000000E+00  0.45593999997E+02  0.45594000000E+02  0.51100000000E-03 0.  1.
         11   -1    0    0    0    0 -0.00000000000E+00 -0.00000000000E+00 -0.45593999997E+02  0.45594000000E+02  0.51100000000E-03 0. -1.
    9900012    2    1    2    0    0 -0.38334893378E+02 -0.13223658007E+02 -0.29556155211E+01  0.50528870097E+02  0.30000031146E+02 0.  0.
         12    1    1    2    0    0  0.38334893378E+02  0.13223658007E+02  0.29556155211E+01  0.40659129903E+02  0.00000000000E+00 0. -1.
         11    1    3    3    0    0 -0.57457978636E+01  0.13744397807E+01  0.26928765296E+01  0.64926775728E+01  0.51100000000E-03 0. -1.
        -11    1    3    3    0    0 -0.30474710529E+02 -0.10841344186E+02  0.48311946507E+01  0.32704482377E+02  0.51100000000E-03 0.  1.
        -12    1    3    3    0    0 -0.21143849859E+01 -0.37567536009E+01 -0.10479686701E+02  0.11331710146E+02  0.00000000000E+00 0.  1.
</event>
<event>
 7    1  0.4520156E-012  0.5052888E+02  0.7816164E-02  0.1300439E+00
        -11   -1    0    0    0    0  0.00000000000E+00  0.00000000000E+00  0.45593999997E+02  0.45594000000E+02  0.51100000000E-03 0. -1.
         11   -1    0    0    0    0 -0.00000000000E+00 -0.00000000000E+00 -0.45593999997E+02  0.45594000000E+02  0.51100000000E-03 0.  1.
    9900012    2    1    2    0    0 -0.19938007253E+02 -0.28415785594E+02  0.21170327361E+02  0.50528883375E+02  0.30000071507E+02 0.  0.
        -12    1    1    2    0    0  0.19938007253E+02  0.28415785594E+02 -0.21170327361E+02  0.40659116625E+02  0.00000000000E+00 0.  1.
         11    1    3    3    0    0 -0.60780928173E-01 -0.17867682818E+02  0.64821539708E+01  0.19007264505E+02  0.51100000000E-03 0. -1.
        -11    1    3    3    0    0 -0.16163672258E+01 -0.47442766996E+01 -0.26597829986E+01  0.56740858534E+01  0.51100000000E-03 0.  1.
         12    1    3    3    0    0 -0.18260859099E+02 -0.58038260763E+01  0.17347956389E+02  0.25847533016E+02  0.00000000000E+00 0. -1.
</event>
<event>
 7    1  0.4520156E-012  0.5052884E+02  0.7816164E-02  0.1300439E+00
        -11   -1    0    0    0    0  0.00000000000E+00  0.00000000000E+00  0.45593999997E+02  0.45594000000E+02  0.51100000000E-03 0. -1.
         11   -1    0    0    0    0 -0.00000000000E+00 -0.00000000000E+00 -0.45593999997E+02  0.45594000000E+02  0.51100000000E-03 0.  1.
    9900012    2    1    2    0    0  0.26389311844E+01  0.36968792445E+01  0.40404660631E+02  0.50528837752E+02  0.29999932832E+02 0.  0.
        -12    1    1    2    0    0 -0.26389311844E+01 -0.36968792445E+01 -0.40404660631E+02  0.40659162248E+02  0.00000000000E+00 0.  1.
         11    1    3    3    0    0  0.48110953050E+01  0.20784146052E+01  0.16041292463E+02  0.16875707673E+02  0.51100000000E-03 0. -1.
        -11    1    3    3    0    0  0.66722854246E+01 -0.73367276676E+01  0.14931779233E+02  0.17924982482E+02  0.51100000000E-03 0.  1.
         12    1    3    3    0    0 -0.88444495451E+01  0.89551923068E+01  0.94315889355E+01  0.15728147598E+02  0.00000000000E+00 0. -1.
</event>
<event>
 7    1  0.4520156E-012  0.5052885E+02  0.7816164E-02  0.1300439E+00
        -11   -1    0    0    0    0  0.00000000000E+00  0.00000000000E+00  0.45593999997E+02  0.45594000000E+02  0.51100000000E-03 0. -1.
         11   -1    0    0    0    0 -0.00000000000E+00 -0.00000000000E+00 -0.45593999997E+02  0.45594000000E+02  0.51100000000E-03 0.  1.
    9900012    2    1    2    0    0  0.14584551936E+02  0.17005436388E+02  0.33930409603E+02  0.50528847061E+02  0.29999961126E+02 0.  0.
        -12    1    1    2    0    0 -0.14584551936E+02 -0.17005436388E+02 -0.33930409603E+02  0.40659152939E+02  0.00000000000E+00 0.  1.
         11    1    3    3    0    0  0.76257588301E+01 -0.45217025507E+01  0.18770355694E+01  0.90620778237E+01  0.51100000000E-03 0. -1.
        -11    1    3    3    0    0  0.11801714190E+01 -0.16724985532E+01  0.10065685902E+01  0.22810604061E+01  0.51100000000E-03 0.  1.
         12    1    3    3    0    0  0.57786216867E+01  0.23199637492E+02  0.31046805443E+02  0.39185708831E+02  0.00000000000E+00 0. -1.
</event>
<event>
 7    1  0.4520156E-012  0.5052886E+02  0.7816164E-02  0.1300439E+00
        -11   -1    0    0    0    0  0.00000000000E+00  0.00000000000E+00  0.45593999997E+02  0.45594000000E+02  0.51100000000E-03 0. -1.
         11   -1    0    0    0    0 -0.00000000000E+00 -0.00000000000E+00 -0.45593999997E+02  0.45594000000E+02  0.51100000000E-03 0.  1.
    9900012    2    1    2    0    0  0.17121831059E+02  0.18671006531E+02 -0.31802546862E+02  0.50528861168E+02  0.30000004005E+02 0.  0.
         12    1    1    2    0    0 -0.17121831059E+02 -0.18671006531E+02  0.31802546862E+02  0.40659138832E+02  0.00000000000E+00 0. -1.
         11    1    3    3    0    0  0.50184255487E+01 -0.33811038410E+01  0.53713940405E+00  0.60749466806E+01  0.51100000000E-03 0. -1.
        -11    1    3    3    0    0  0.16267956031E+02  0.18823291929E+02 -0.23866014085E+02  0.34475343958E+02  0.51100000000E-03 0.  1.
         12    1    3    3    0    0 -0.41645505205E+01  0.32288184432E+01 -0.84736721805E+01  0.99785705288E+01  0.00000000000E+00 0. -1.
</event>
<event>
 7    1  0.4520156E-012  0.5052886E+02  0.7816164E-02  0.1300439E+00
        -11   -1    0    0    0    0  0.00000000000E+00  0.00000000000E+00  0.45593999997E+02  0.45594000000E+02  0.51100000000E-03 0. -1.
         11   -1    0    0    0    0 -0.00000000000E+00 -0.00000000000E+00 -0.45593999997E+02  0.45594000000E+02  0.51100000000E-03 0.  1.
    9900012    2    1    2    0    0  0.34873521386E+02 -0.54284700064E+01 -0.20187487147E+02  0.50528863046E+02  0.30000009716E+02 0.  0.
         12    1    1    2    0    0 -0.34873521386E+02  0.54284700064E+01  0.20187487147E+02  0.40659136954E+02  0.00000000000E+00 0. -1.
         11    1    3    3    0    0  0.22287733144E+01 -0.33519541144E+01 -0.14393889291E+01  0.42749114169E+01  0.51100000000E-03 0. -1.
        -11    1    3    3    0    0  0.12167940828E+02 -0.22803246369E+01  0.63080324893E+01  0.13894241203E+02  0.51100000000E-03 0.  1.
        -12    1    3    3    0    0  0.20476807244E+02  0.20380874490E+00 -0.25056130707E+02  0.32359710427E+02  0.00000000000E+00 0.  1.
</event>
<event>
 7    1  0.4520156E-012  0.5052885E+02  0.7816164E-02  0.1300439E+00
        -11   -1    0    0    0    0  0.00000000000E+00  0.00000000000E+00  0.45593999997E+02  0.45594000000E+02  0.51100000000E-03 0. -1.
         11   -1    0    0    0    0 -0.00000000000E+00 -0.00000000000E+00 -0.45593999997E+02  0.45594000000E+02  0.51100000000E-03 0.  1.
    9900012    2    1    2    0    0 -0.98487598990E+01 -0.34181386628E+02 -0.19692659668E+02  0.50528854557E+02  0.29999983912E+02 0.  0.
         12    1    1    2    0    0  0.98487598990E+01  0.34181386628E+02  0.19692659668E+02  0.40659145443E+02  0.00000000000E+00 0. -1.
         11    1    3    3    0    0 -0.22264251154E+01 -0.21447237370E+02 -0.10715799552E+02  0.24078399447E+02  0.51100000000E-03 0. -1.
        -11    1    3    3    0    0 -0.56857803404E+01 -0.13318953068E+02  0.25869407290E+01  0.14711045901E+02  0.51100000000E-03 0.  1.
         12    1    3    3    0    0 -0.19365544432E+01  0.58480381017E+00 -0.11563800845E+02  0.11739409210E+02  0.00000000000E+00 0. -1.
</event>
<event>
 7    1  0.4520156E-012  0.5052883E+02  0.7816164E-02  0.1300439E+00
        -11   -1    0    0    0    0  0.00000000000E+00  0.00000000000E+00  0.45593999997E+02  0.45594000000E+02  0.51100000000E-03 0.  1.
         11   -1    0    0    0    0 -0.00000000000E+00 -0.00000000000E+00 -0.45593999997E+02  0.45594000000E+02  0.51100000000E-03 0. -1.
    9900012    2    1    2    0    0  0.34779382061E+02 -0.14086568560E+02  0.15656666815E+02  0.50528830725E+02  0.29999911472E+02 0.  0.
        -12    1    1    2    0    0 -0.34779382061E+02  0.14086568560E+02 -0.15656666815E+02  0.40659169275E+02  0.00000000000E+00 0.  1.
         11    1    3    3    0    0  0.63105798526E+01 -0.45376462011E+01  0.11112936646E+02  0.13561379439E+02  0.51100000000E-03 0.  1.
        -11    1    3    3    0    0  0.15896967385E+02 -0.73949144238E+01  0.12857657803E+02  0.21742072022E+02  0.51100000000E-03 0. -1.
        -12    1    3    3    0    0  0.12571834824E+02 -0.21540079355E+01 -0.83139276344E+01  0.15225379264E+02  0.00000000000E+00 0.  1.
</event>
<event>
 7    1  0.4520156E-012  0.5052886E+02  0.7816164E-02  0.1300439E+00
        -11   -1    0    0    0    0  0.00000000000E+00  0.00000000000E+00  0.45593999997E+02  0.45594000000E+02  0.51100000000E-03 0. -1.
         11   -1    0    0    0    0 -0.00000000000E+00 -0.00000000000E+00 -0.45593999997E+02  0.45594000000E+02  0.51100000000E-03 0.  1.
    9900012    2    1    2    0    0 -0.49369524434E+00  0.34000064130E+02 -0.22291639505E+02  0.50528864647E+02  0.30000014580E+02 0.  0.
         12    1    1    2    0    0  0.49369524434E+00 -0.34000064130E+02  0.22291639505E+02  0.40659135353E+02  0.00000000000E+00 0. -1.
         11    1    3    3    0    0  0.31620638443E+01  0.12795391128E+00 -0.17520245152E+01  0.36172655586E+01  0.51100000000E-03 0. -1.
        -11    1    3    3    0    0 -0.10969850498E+02  0.15224686658E+02 -0.19183302423E+02  0.26835196961E+02  0.51100000000E-03 0.  1.
         12    1    3    3    0    0  0.73140914096E+01  0.18647423561E+02 -0.13563125671E+01  0.20076402127E+02  0.00000000000E+00 0. -1.
</event>
<event>
 7    1  0.4520156E-012  0.5052885E+02  0.7816164E-02  0.1300439E+00
        -11   -1    0    0    0    0  0.00000000000E+00  0.00000000000E+00  0.45593999997E+02  0.45594000000E+02  0.51100000000E-03 0. -1.
         11   -1    0    0    0    0 -0.00000000000E+00 -0.00000000000E+00 -0.45593999997E+02  0.45594000000E+02  0.51100000000E-03 0.  1.
    9900012    2    1    2    0    0 -0.26618448438E+02  0.25746891000E+02 -0.16784575013E+02  0.50528854021E+02  0.29999982281E+02 0.  0.
         12    1    1    2    0    0  0.26618448438E+02 -0.25746891000E+02  0.16784575013E+02  0.40659145979E+02  0.00000000000E+00 0. -1.
         11    1    3    3    0    0 -0.14763324640E+02  0.11113804899E+02 -0.32094929573E+00  0.18481759182E+02  0.51100000000E-03 0. -1.
        -11    1    3    3    0    0 -0.11727029350E+02  0.66191695210E+01  0.29620708373E+00  0.13469386082E+02  0.51100000000E-03 0.  1.
         12    1    3    3    0    0 -0.12809444804E+00  0.80139165804E+01 -0.16759832801E+02  0.18577708757E+02  0.00000000000E+00 0. -1.
</event>
<event>
 7    1  0.4520156E-012  0.5052886E+02  0.7816164E-02  0.1300439E+00
        -11   -1    0    0    0    0  0.00000000000E+00  0.00000000000E+00  0.45593999997E+02  0.45594000000E+02  0.51100000000E-03 0. -1.
         11   -1    0    0    0    0 -0.00000000000E+00 -0.00000000000E+00 -0.45593999997E+02  0.45594000000E+02  0.51100000000E-03 0.  1.
    9900012    2    1    2    0    0 -0.30954982148E+01 -0.35433175033E+02  0.19699594798E+02  0.50528855428E+02  0.29999986559E+02 0.  0.
        -12    1    1    2    0    0  0.30954982148E+01  0.35433175033E+02 -0.19699594798E+02  0.40659144572E+02  0.00000000000E+00 0.  1.
         11    1    3    3    0    0 -0.60099141597E+01 -0.16323880317E+02  0.85922074985E+01  0.19401396001E+02  0.51100000000E-03 0. -1.
        -11    1    3    3    0    0 -0.94346310483E+01 -0.75606107713E+01  0.34966939866E+01  0.12585784336E+02  0.51100000000E-03 0.  1.
        -12    1    3    3    0    0  0.12349046993E+02 -0.11548683945E+02  0.76106933124E+01  0.18541675091E+02  0.00000000000E+00 0.  1.
</event>
<event>
 7    1  0.4520156E-012  0.5052892E+02  0.7816164E-02  0.1300439E+00
        -11   -1    0    0    0    0  0.00000000000E+00  0.00000000000E+00  0.45593999997E+02  0.45594000000E+02  0.51100000000E-03 0. -1.
         11   -1    0    0    0    0 -0.00000000000E+00 -0.00000000000E+00 -0.45593999997E+02  0.45594000000E+02  0.51100000000E-03 0.  1.
    9900012    2    1    2    0    0  0.23304652248E+02  0.23876206644E+02  0.23237487295E+02  0.50528918900E+02  0.30000179487E+02 0.  0.
        -12    1    1    2    0    0 -0.23304652248E+02 -0.23876206644E+02 -0.23237487295E+02  0.40659081100E+02  0.00000000000E+00 0.  1.
         11    1    3    3    0    0 -0.18472440354E+01  0.57702772204E-01  0.41752608936E-01  0.18486166931E+01  0.51100000000E-03 0. -1.
        -11    1    3    3    0    0  0.10745135996E+02  0.11748960625E+02 -0.32367367343E+01  0.16247230173E+02  0.51100000000E-03 0.  1.
         12    1    3    3    0    0  0.14406760288E+02  0.12069543247E+02  0.26432471420E+02  0.32433072034E+02  0.00000000000E+00 0. -1.
</event>
<event>
 7    1  0.4520156E-012  0.5052887E+02  0.7816164E-02  0.1300439E+00
        -11   -1    0    0    0    0  0.00000000000E+00  0.00000000000E+00  0.45593999997E+02  0.45594000000E+02  0.51100000000E-03 0. -1.
         11   -1    0    0    0    0 -0.00000000000E+00 -0.00000000000E+00 -0.45593999997E+02  0.45594000000E+02  0.51100000000E-03 0.  1.
    9900012    2    1    2    0    0  0.12881747766E+02 -0.15323585591E+02  0.35389444622E+02  0.50528874438E+02  0.30000044341E+02 0.  0.
        -12    1    1    2    0    0 -0.12881747766E+02  0.15323585591E+02 -0.35389444622E+02  0.40659125562E+02  0.00000000000E+00 0.  1.
         11    1    3    3    0    0 -0.48435502247E+01 -0.12500557013E+02  0.14286009574E+02  0.19591170823E+02  0.51100000000E-03 0. -1.
        -11    1    3    3    0    0  0.46910775777E+00 -0.43542915035E+01  0.83390014802E+01  0.94190690906E+01  0.51100000000E-03 0.  1.
        -12    1    3    3    0    0  0.17256190232E+02  0.15312629256E+01  0.12764433567E+02  0.21518634524E+02  0.00000000000E+00 0.  1.
</event>
<event>
 7    1  0.4520156E-012  0.5052885E+02  0.7816164E-02  0.1300439E+00
        -11   -1    0    0    0    0  0.00000000000E+00  0.00000000000E+00  0.45593999997E+02  0.45594000000E+02  0.51100000000E-03 0. -1.
         11   -1    0    0    0    0 -0.00000000000E+00 -0.00000000000E+00 -0.45593999997E+02  0.45594000000E+02  0.51100000000E-03 0.  1.
    9900012    2    1    2    0    0 -0.86121919382E+01 -0.31615095014E+02  0.24072440224E+02  0.50528850217E+02  0.29999970719E+02 0.  0.
        -12    1    1    2    0    0  0.86121919382E+01  0.31615095014E+02 -0.24072440224E+02  0.40659149783E+02  0.00000000000E+00 0.  1.
         11    1    3    3    0    0 -0.45333747307E+01 -0.10017123939E+02  0.15357280935E+02  0.18887570951E+02  0.51100000000E-03 0. -1.
        -11    1    3    3    0    0 -0.33549739939E+01 -0.22807379220E+02  0.13457863653E+02  0.26693566486E+02  0.51100000000E-03 0.  1.
        -12    1    3    3    0    0 -0.72384321362E+00  0.12094081450E+01 -0.47427043639E+01  0.49477127789E+01  0.00000000000E+00 0.  1.
</event>
<event>
 7    1  0.4520156E-012  0.5052886E+02  0.7816164E-02  0.1300439E+00
        -11   -1    0    0    0    0  0.00000000000E+00  0.00000000000E+00  0.45593999997E+02  0.45594000000E+02  0.51100000000E-03 0. -1.
         11   -1    0    0    0    0 -0.00000000000E+00 -0.00000000000E+00 -0.45593999997E+02  0.45594000000E+02  0.51100000000E-03 0.  1.
    9900012    2    1    2    0    0  0.35521034986E+01  0.13817915219E+02  0.38073786649E+02  0.50528862649E+02  0.30000008509E+02 0.  0.
        -12    1    1    2    0    0 -0.35521034986E+01 -0.13817915219E+02 -0.38073786649E+02  0.40659137351E+02  0.00000000000E+00 0.  1.
         11    1    3    3    0    0 -0.25200240427E+01  0.52301293754E+01  0.15454924278E+02  0.16509374887E+02  0.51100000000E-03 0. -1.
        -11    1    3    3    0    0 -0.26910828548E+01 -0.45155935340E+01  0.16143345153E+02  0.16977635433E+02  0.51100000000E-03 0.  1.
        -12    1    3    3    0    0  0.87632103960E+01  0.13103379378E+02  0.64755172175E+01  0.17041852329E+02  0.00000000000E+00 0.  1.
</event>
<event>
 7    1  0.4520156E-012  0.5052887E+02  0.7816164E-02  0.1300439E+00
        -11   -1    0    0    0    0  0.00000000000E+00  0.00000000000E+00  0.45593999997E+02  0.45594000000E+02  0.51100000000E-03 0. -1.
         11   -1    0    0    0    0 -0.00000000000E+00 -0.00000000000E+00 -0.45593999997E+02  0.45594000000E+02  0.51100000000E-03 0.  1.
    9900012    2    1    2    0    0  0.23602282790E+02  0.51042563893E+01 -0.32711524408E+02  0.50528867997E+02  0.30000024763E+02 0.  0.
         12    1    1    2    0    0 -0.23602282790E+02 -0.51042563893E+01  0.32711524408E+02  0.40659132003E+02  0.00000000000E+00 0. -1.
         11    1    3    3    0    0  0.16889404361E+02  0.12293783636E+02 -0.10893533365E+02  0.23559672434E+02  0.51100000000E-03 0. -1.
        -11    1    3    3    0    0  0.66713358282E+01  0.17370710110E+01 -0.86586422965E+01  0.11067801232E+02  0.51100000000E-03 0.  1.
         12    1    3    3    0    0  0.41542600267E-01 -0.89265982573E+01 -0.13159348746E+02  0.15901394331E+02  0.00000000000E+00 0. -1.
</event>
<event>
 7    1  0.4520156E-012  0.5052892E+02  0.7816164E-02  0.1300439E+00
        -11   -1    0    0    0    0  0.00000000000E+00  0.00000000000E+00  0.45593999997E+02  0.45594000000E+02  0.51100000000E-03 0. -1.
         11   -1    0    0    0    0 -0.00000000000E+00 -0.00000000000E+00 -0.45593999997E+02  0.45594000000E+02  0.51100000000E-03 0.  1.
    9900012    2    1    2    0    0  0.15334529387E+02  0.16732278850E+02  0.33734907514E+02  0.50528918210E+02  0.30000177390E+02 0.  0.
        -12    1    1    2    0    0 -0.15334529387E+02 -0.16732278850E+02 -0.33734907514E+02  0.40659081790E+02  0.00000000000E+00 0.  1.
         11    1    3    3    0    0  0.46720631490E+01 -0.24114617659E+01  0.10522829606E+02  0.11763216614E+02  0.51100000000E-03 0. -1.
        -11    1    3    3    0    0  0.85981881880E+01  0.13183517711E+02  0.27112211120E+02  0.31349736385E+02  0.51100000000E-03 0.  1.
        -12    1    3    3    0    0  0.20642780504E+01  0.59602229046E+01 -0.39001332120E+01  0.74159652111E+01  0.00000000000E+00 0.  1.
</event>
<event>
 7    1  0.4520156E-012  0.5052886E+02  0.7816164E-02  0.1300439E+00
        -11   -1    0    0    0    0  0.00000000000E+00  0.00000000000E+00  0.45593999997E+02  0.45594000000E+02  0.51100000000E-03 0. -1.
         11   -1    0    0    0    0 -0.00000000000E+00 -0.00000000000E+00 -0.45593999997E+02  0.45594000000E+02  0.51100000000E-03 0.  1.
    9900012    2    1    2    0    0  0.21826625927E+02 -0.28213067998E+02 -0.19513753635E+02  0.50528863436E+02  0.30000010899E+02 0.  0.
         12    1    1    2    0    0 -0.21826625927E+02  0.28213067998E+02  0.19513753635E+02  0.40659136564E+02  0.00000000000E+00 0. -1.
         11    1    3    3    0    0 -0.72493957245E-01 -0.11070180496E+01  0.64196360200E+00  0.12817417303E+01  0.51100000000E-03 0. -1.
        -11    1    3    3    0    0  0.18626811705E+02 -0.33107506393E+02 -0.15805165893E+02  0.41144481562E+02  0.51100000000E-03 0.  1.
         12    1    3    3    0    0  0.32723081793E+01  0.60014564453E+01 -0.43505513448E+01  0.81026401431E+01  0.00000000000E+00 0. -1.
</event>
<event>
 7    1  0.4520156E-012  0.5052885E+02  0.7816164E-02  0.1300439E+00
        -11   -1    0    0    0    0  0.00000000000E+00  0.00000000000E+00  0.45593999997E+02  0.45594000000E+02  0.51100000000E-03 0. -1.
         11   -1    0    0    0    0 -0.00000000000E+00 -0.00000000000E+00 -0.45593999997E+02  0.45594000000E+02  0.51100000000E-03 0.  1.
    9900012    2    1    2    0    0 -0.14024664948E+02 -0.15719123345E+02  0.34776204805E+02  0.50528849908E+02  0.29999969779E+02 0.  0.
        -12    1    1    2    0    0  0.14024664948E+02  0.15719123345E+02 -0.34776204805E+02  0.40659150092E+02  0.00000000000E+00 0.  1.
         11    1    3    3    0    0 -0.16154795987E+02 -0.37144113445E+01  0.23980312452E+02  0.29151838203E+02  0.51100000000E-03 0. -1.
        -11    1    3    3    0    0  0.17505852101E+01  0.29515290410E+01  0.26962362705E+01  0.43641451105E+01  0.51100000000E-03 0.  1.
        -12    1    3    3    0    0  0.37954582954E+00 -0.14956241041E+02  0.80996560821E+01  0.17012866595E+02  0.00000000000E+00 0.  1.
</event>
<event>
 7    1  0.4520156E-012  0.5052886E+02  0.7816164E-02  0.1300439E+00
        -11   -1    0    0    0    0  0.00000000000E+00  0.00000000000E+00  0.45593999997E+02  0.45594000000E+02  0.51100000000E-03 0. -1.
         11   -1    0    0    0    0 -0.00000000000E+00 -0.00000000000E+00 -0.45593999997E+02  0.45594000000E+02  0.51100000000E-03 0.  1.
    9900012    2    1    2    0    0 -0.19114988799E+02  0.20050749046E+02  0.29761557144E+02  0.50528860587E+02  0.30000002241E+02 0.  0.
        -12    1    1    2    0    0  0.19114988799E+02 -0.20050749046E+02 -0.29761557144E+02  0.40659139413E+02  0.00000000000E+00 0.  1.
         11    1    3    3    0    0 -0.13372943117E+02  0.13235305698E+02  0.27371232081E+02  0.33214353379E+02  0.51100000000E-03 0. -1.
        -11    1    3    3    0    0  0.68337988801E+00  0.81578546744E+01  0.56880690747E+01  0.99685370551E+01  0.51100000000E-03 0.  1.
        -12    1    3    3    0    0 -0.64254255704E+01 -0.13424113260E+01 -0.32977440109E+01  0.73459701531E+01  0.00000000000E+00 0.  1.
</event>
<event>
 7    1  0.4520156E-012  0.5052888E+02  0.7816164E-02  0.1300439E+00
        -11   -1    0    0    0    0  0.00000000000E+00  0.00000000000E+00  0.45593999997E+02  0.45594000000E+02  0.51100000000E-03 0. -1.
         11   -1    0    0    0    0 -0.00000000000E+00 -0.00000000000E+00 -0.45593999997E+02  0.45594000000E+02  0.51100000000E-03 0.  1.
    9900012    2    1    2    0    0  0.15286380778E+01 -0.89812952882E+01  0.39625294799E+02  0.50528875719E+02  0.30000048234E+02 0.  0.
        -12    1    1    2    0    0 -0.15286380778E+01  0.89812952882E+01 -0.39625294799E+02  0.40659124281E+02  0.00000000000E+00 0.  1.
         11    1    3    3    0    0  0.10271510336E+02 -0.41931087983E+01  0.49810605361E+01  0.12161293118E+02  0.51100000000E-03 0. -1.
        -11    1    3    3    0    0  0.32293159307E+01  0.68071737847E+00  0.61242443157E+01  0.69568833704E+01  0.51100000000E-03 0.  1.
        -12    1    3    3    0    0 -0.11972188189E+02 -0.54689038684E+01  0.28519989947E+02  0.31410699230E+02  0.00000000000E+00 0.  1.
</event>
<event>
 7    1  0.4520156E-012  0.5052887E+02  0.7816164E-02  0.1300439E+00
        -11   -1    0    0    0    0  0.00000000000E+00  0.00000000000E+00  0.45593999997E+02  0.45594000000E+02  0.51100000000E-03 0.  1.
         11   -1    0    0    0    0 -0.00000000000E+00 -0.00000000000E+00 -0.45593999997E+02  0.45594000000E+02  0.51100000000E-03 0. -1.
    9900012    2    1    2    0    0  0.28332515763E+02 -0.29093210686E+02 -0.20047149027E+01  0.50528865241E+02  0.30000016388E+02 0.  0.
        -12    1    1    2    0    0 -0.28332515763E+02  0.29093210686E+02  0.20047149027E+01  0.40659134759E+02  0.00000000000E+00 0.  1.
         11    1    3    3    0    0  0.77780577999E+01 -0.10330761251E+02 -0.38784542013E+01  0.13500563633E+02  0.51100000000E-03 0. -1.
        -11    1    3    3    0    0  0.11399574697E+02 -0.18225358323E+02 -0.85588721316E+01  0.23138026746E+02  0.51100000000E-03 0.  1.
         12    1    3    3    0    0  0.91548832663E+01 -0.53709111156E+00  0.10432611430E+02  0.13890274862E+02  0.00000000000E+00 0. -1.
</event>
<event>
 7    1  0.4520156E-012  0.5052886E+02  0.7816164E-02  0.1300439E+00
        -11   -1    0    0    0    0  0.00000000000E+00  0.00000000000E+00  0.45593999997E+02  0.45594000000E+02  0.51100000000E-03 0. -1.
         11   -1    0    0    0    0 -0.00000000000E+00 -0.00000000000E+00 -0.45593999997E+02  0.45594000000E+02  0.51100000000E-03 0.  1.
    9900012    2    1    2    0    0 -0.18216722817E+01  0.23312369838E+00  0.40617640359E+02  0.50528861483E+02  0.30000004965E+02 0.  0.
        -12    1    1    2    0    0  0.18216722817E+01 -0.23312369838E+00 -0.40617640359E+02  0.40659138517E+02  0.00000000000E+00 0.  1.
         11    1    3    3    0    0  0.29204279364E+01  0.24713522173E+01  0.64091338319E+01  0.74641461568E+01  0.51100000000E-03 0. -1.
        -11    1    3    3    0    0  0.40155223856E+01 -0.69967070291E+01  0.31804962907E+02  0.32812101351E+02  0.51100000000E-03 0.  1.
        -12    1    3    3    0    0 -0.87576226038E+01  0.47584785103E+01  0.24035436207E+01  0.10252613976E+02  0.00000000000E+00 0.  1.
</event>
<event>
 7    1  0.4520156E-012  0.5052888E+02  0.7816164E-02  0.1300439E+00
        -11   -1    0    0    0    0  0.00000000000E+00  0.00000000000E+00  0.45593999997E+02  0.45594000000E+02  0.51100000000E-03 0. -1.
         11   -1    0    0    0    0 -0.00000000000E+00 -0.00000000000E+00 -0.45593999997E+02  0.45594000000E+02  0.51100000000E-03 0.  1.
    9900012    2    1    2    0    0 -0.22562351013E+02  0.46834946585E+01 -0.33498793231E+02  0.50528881055E+02  0.30000064454E+02 0.  0.
         12    1    1    2    0    0  0.22562351013E+02 -0.46834946585E+01  0.33498793231E+02  0.40659118945E+02  0.00000000000E+00 0. -1.
         11    1    3    3    0    0  0.13127944109E+01 -0.57257168227E+01 -0.11821320574E+02  0.13200412216E+02  0.51100000000E-03 0. -1.
        -11    1    3    3    0    0 -0.54712934729E+01  0.80366956616E+01 -0.14446190123E+02  0.17413096759E+02  0.51100000000E-03 0.  1.
         12    1    3    3    0    0 -0.18403851951E+02  0.23725158196E+01 -0.72312825342E+01  0.19915372079E+02  0.00000000000E+00 0. -1.
</event>
<event>
 7    1  0.4520156E-012  0.5052886E+02  0.7816164E-02  0.1300439E+00
        -11   -1    0    0    0    0  0.00000000000E+00  0.00000000000E+00  0.45593999997E+02  0.45594000000E+02  0.51100000000E-03 0. -1.
         11   -1    0    0    0    0 -0.00000000000E+00 -0.00000000000E+00 -0.45593999997E+02  0.45594000000E+02  0.51100000000E-03 0.  1.
    9900012    2    1    2    0    0  0.14196464385E+02 -0.18320926815E+02  0.33406134836E+02  0.50528858285E+02  0.29999995242E+02 0.  0.
        -12    1    1    2    0    0 -0.14196464385E+02  0.18320926815E+02 -0.33406134836E+02  0.40659141715E+02  0.00000000000E+00 0.  1.
         11    1    3    3    0    0 -0.12624029129E+01 -0.34810482413E+01  0.25165424328E+02  0.25436390071E+02  0.51100000000E-03 0. -1.
        -11    1    3    3    0    0 -0.19508945831E+00 -0.11579905704E+01  0.36051124728E+01  0.37915482670E+01  0.51100000000E-03 0.  1.
        -12    1    3    3    0    0  0.15653956756E+02 -0.13681888003E+02  0.46355980350E+01  0.21300919947E+02  0.00000000000E+00 0.  1.
</event>
<event>
 7    1  0.4520156E-012  0.5052885E+02  0.7816164E-02  0.1300439E+00
        -11   -1    0    0    0    0  0.00000000000E+00  0.00000000000E+00  0.45593999997E+02  0.45594000000E+02  0.51100000000E-03 0. -1.
         11   -1    0    0    0    0 -0.00000000000E+00 -0.00000000000E+00 -0.45593999997E+02  0.45594000000E+02  0.51100000000E-03 0.  1.
    9900012    2    1    2    0    0  0.98063100462E+01  0.22818598501E+02  0.32191830934E+02  0.50528854249E+02  0.29999982975E+02 0.  0.
        -12    1    1    2    0    0 -0.98063100462E+01 -0.22818598501E+02 -0.32191830934E+02  0.40659145751E+02  0.00000000000E+00 0.  1.
         11    1    3    3    0    0  0.82758010554E+01  0.52644130335E+01  0.90287691680E+01  0.13331226524E+02  0.51100000000E-03 0. -1.
        -11    1    3    3    0    0  0.76167116076E+01  0.13706465227E+02  0.25230502855E+02  0.29706224252E+02  0.51100000000E-03 0.  1.
        -12    1    3    3    0    0 -0.60862026167E+01  0.38477202407E+01 -0.20674410882E+01  0.74914034730E+01  0.00000000000E+00 0.  1.
</event>
<event>
 7    1  0.4520156E-012  0.5052886E+02  0.7816164E-02  0.1300439E+00
        -11   -1    0    0    0    0  0.00000000000E+00  0.00000000000E+00  0.45593999997E+02  0.45594000000E+02  0.51100000000E-03 0. -1.
         11   -1    0    0    0    0 -0.00000000000E+00 -0.00000000000E+00 -0.45593999997E+02  0.45594000000E+02  0.51100000000E-03 0.  1.
    9900012    2    1    2    0    0  0.25869383106E+02 -0.31304923913E+02 -0.19854766063E+01  0.50528863747E+02  0.30000011845E+02 0.  0.
        -12    1    1    2    0    0 -0.25869383106E+02  0.31304923913E+02  0.19854766063E+01  0.40659136253E+02  0.00000000000E+00 0.  1.
         11    1    3    3    0    0  0.99256521834E+01  0.75935348712E+00  0.18319900850E+01  0.10121826758E+02  0.51100000000E-03 0. -1.
        -11    1    3    3    0    0  0.16682420266E+01 -0.50586256881E+01 -0.79631281826E+01  0.95804037506E+01  0.51100000000E-03 0.  1.
         12    1    3    3    0    0  0.14275488896E+02 -0.27005651712E+02  0.41456614912E+01  0.30826633239E+02  0.00000000000E+00 0. -1.
</event>
<event>
 7    1  0.4520156E-012  0.5052888E+02  0.7816164E-02  0.1300439E+00
        -11   -1    0    0    0    0  0.00000000000E+00  0.00000000000E+00  0.45593999997E+02  0.45594000000E+02  0.51100000000E-03 0. -1.
         11   -1    0    0    0    0 -0.00000000000E+00 -0.00000000000E+00 -0.45593999997E+02  0.45594000000E+02  0.51100000000E-03 0.  1.
    9900012    2    1    2    0    0 -0.28612112693E+02  0.14837722498E+02 -0.24786140208E+02  0.50528883580E+02  0.30000072130E+02 0.  0.
         12    1    1    2    0    0  0.28612112693E+02 -0.14837722498E+02  0.24786140208E+02  0.40659116420E+02  0.00000000000E+00 0. -1.
         11    1    3    3    0    0 -0.90871644812E+01 -0.44724114064E+01 -0.18147922606E+02  0.20782832273E+02  0.51100000000E-03 0.  1.
        -11    1    3    3    0    0 -0.15856691789E+02  0.10617746622E+02 -0.69413098362E+01  0.20306476807E+02  0.51100000000E-03 0. -1.
        -12    1    3    3    0    0 -0.36682564226E+01  0.86923872823E+01  0.30309223463E+00  0.94395745004E+01  0.00000000000E+00 0.  1.
</event>
<event>
 7    1  0.4520156E-012  0.5052887E+02  0.7816164E-02  0.1300439E+00
        -11   -1    0    0    0    0  0.00000000000E+00  0.00000000000E+00  0.45593999997E+02  0.45594000000E+02  0.51100000000E-03 0. -1.
         11   -1    0    0    0    0 -0.00000000000E+00 -0.00000000000E+00 -0.45593999997E+02  0.45594000000E+02  0.51100000000E-03 0.  1.
    9900012    2    1    2    0    0  0.84082294550E+01  0.22544264535E+02  0.32775338556E+02  0.50528868142E+02  0.30000025204E+02 0.  0.
        -12    1    1    2    0    0 -0.84082294550E+01 -0.22544264535E+02 -0.32775338556E+02  0.40659131858E+02  0.00000000000E+00 0.  1.
         11    1    3    3    0    0  0.39428337989E+01  0.28018586096E+01  0.20435898251E+02  0.21000530651E+02  0.51100000000E-03 0. -1.
        -11    1    3    3    0    0  0.79427697993E+01  0.96702872834E+01  0.13962693329E+02  0.18749902760E+02  0.51100000000E-03 0.  1.
        -12    1    3    3    0    0 -0.34773741432E+01  0.10072118642E+02 -0.16232530242E+01  0.10778434731E+02  0.00000000000E+00 0.  1.
</event>
<event>
 7    1  0.4520156E-012  0.5052886E+02  0.7816164E-02  0.1300439E+00
        -11   -1    0    0    0    0  0.00000000000E+00  0.00000000000E+00  0.45593999997E+02  0.45594000000E+02  0.51100000000E-03 0. -1.
         11   -1    0    0    0    0 -0.00000000000E+00 -0.00000000000E+00 -0.45593999997E+02  0.45594000000E+02  0.51100000000E-03 0.  1.
    9900012    2    1    2    0    0 -0.30648284565E+01 -0.10534321011E+02  0.39151001906E+02  0.50528855360E+02  0.29999986351E+02 0.  0.
        -12    1    1    2    0    0  0.30648284565E+01  0.10534321011E+02 -0.39151001906E+02  0.40659144640E+02  0.00000000000E+00 0.  1.
         11    1    3    3    0    0 -0.89016641509E+01  0.12252371581E+01  0.29819337456E+02  0.31143758882E+02  0.51100000000E-03 0. -1.
        -11    1    3    3    0    0  0.82775725097E+01 -0.47079141990E+01  0.49675915888E+01  0.10740560005E+02  0.51100000000E-03 0.  1.
        -12    1    3    3    0    0 -0.24407368153E+01 -0.70516439703E+01  0.43640728615E+01  0.86445364726E+01  0.00000000000E+00 0.  1.
</event>
<event>
 7    1  0.4520156E-012  0.5052884E+02  0.7816164E-02  0.1300439E+00
        -11   -1    0    0    0    0  0.00000000000E+00  0.00000000000E+00  0.45593999997E+02  0.45594000000E+02  0.51100000000E-03 0. -1.
         11   -1    0    0    0    0 -0.00000000000E+00 -0.00000000000E+00 -0.45593999997E+02  0.45594000000E+02  0.51100000000E-03 0.  1.
    9900012    2    1    2    0    0  0.33161926743E+02  0.12816852156E+02 -0.19727704596E+02  0.50528838509E+02  0.29999935131E+02 0.  0.
         12    1    1    2    0    0 -0.33161926743E+02 -0.12816852156E+02  0.19727704596E+02  0.40659161491E+02  0.00000000000E+00 0. -1.
         11    1    3    3    0    0 -0.24790617381E+01  0.14932170595E+01 -0.37188408733E+01  0.47122417160E+01  0.51100000000E-03 0. -1.
        -11    1    3    3    0    0  0.32830551054E+02  0.11555971898E+02 -0.20588388517E+02  0.40438438533E+02  0.51100000000E-03 0.  1.
         12    1    3    3    0    0  0.28104374281E+01 -0.23233680077E+00  0.45795247943E+01  0.53781582598E+01  0.00000000000E+00 0. -1.
</event>
<event>
 7    1  0.4520156E-012  0.5052881E+02  0.7816164E-02  0.1300439E+00
        -11   -1    0    0    0    0  0.00000000000E+00  0.00000000000E+00  0.45593999997E+02  0.45594000000E+02  0.51100000000E-03 0. -1.
         11   -1    0    0    0    0 -0.00000000000E+00 -0.00000000000E+00 -0.45593999997E+02  0.45594000000E+02  0.51100000000E-03 0.  1.
    9900012    2    1    2    0    0  0.21164939058E+02 -0.17258993750E+02  0.30122123214E+02  0.50528808942E+02  0.29999845259E+02 0.  0.
        -12    1    1    2    0    0 -0.21164939058E+02  0.17258993750E+02 -0.30122123214E+02  0.40659191058E+02  0.00000000000E+00 0.  1.
         11    1    3    3    0    0 -0.49757718198E+01  0.11184335224E+01  0.13430102303E+01  0.52737913768E+01  0.51100000000E-03 0. -1.
        -11    1    3    3    0    0 -0.10339095494E+01 -0.39846981692E+01  0.25917146838E+01  0.48645424984E+01  0.51100000000E-03 0.  1.
         12    1    3    3    0    0  0.27174620427E+02 -0.14392729104E+02  0.26187398300E+02  0.40390475067E+02  0.00000000000E+00 0. -1.
</event>
<event>
 7    1  0.4520156E-012  0.5052889E+02  0.7816164E-02  0.1300439E+00
        -11   -1    0    0    0    0  0.00000000000E+00  0.00000000000E+00  0.45593999997E+02  0.45594000000E+02  0.51100000000E-03 0. -1.
         11   -1    0    0    0    0 -0.00000000000E+00 -0.00000000000E+00 -0.45593999997E+02  0.45594000000E+02  0.51100000000E-03 0.  1.
    9900012    2    1    2    0    0  0.27445413792E+02  0.73439918269E+01 -0.29085702669E+02  0.50528892116E+02  0.30000098074E+02 0.  0.
         12    1    1    2    0    0 -0.27445413792E+02 -0.73439918269E+01  0.29085702669E+02  0.40659107884E+02  0.00000000000E+00 0. -1.
         11    1    3    3    0    0  0.52346204589E+00 -0.55654041783E+01 -0.27900153491E+01  0.62475532883E+01  0.51100000000E-03 0. -1.
        -11    1    3    3    0    0 -0.10379582943E+01  0.16430853179E+01  0.21052497678E+01  0.28651638049E+01  0.51100000000E-03 0.  1.
        -12    1    3    3    0    0  0.27959910041E+02  0.11266310687E+02 -0.28400937088E+02  0.41416175022E+02  0.00000000000E+00 0.  1.
</event>
<event>
 7    1  0.4520156E-012  0.5052886E+02  0.7816164E-02  0.1300439E+00
        -11   -1    0    0    0    0  0.00000000000E+00  0.00000000000E+00  0.45593999997E+02  0.45594000000E+02  0.51100000000E-03 0. -1.
         11   -1    0    0    0    0 -0.00000000000E+00 -0.00000000000E+00 -0.45593999997E+02  0.45594000000E+02  0.51100000000E-03 0.  1.
    9900012    2    1    2    0    0 -0.14374455551E+02 -0.13231599926E+02 -0.35657612392E+02  0.50528861661E+02  0.30000005504E+02 0.  0.
         12    1    1    2    0    0  0.14374455551E+02  0.13231599926E+02  0.35657612392E+02  0.40659138339E+02  0.00000000000E+00 0. -1.
         11    1    3    3    0    0 -0.12881296809E+02 -0.20642121217E+01 -0.30178011163E+02  0.32877060957E+02  0.51100000000E-03 0. -1.
        -11    1    3    3    0    0 -0.35182074683E+01 -0.41993793895E+01 -0.82342973079E+01  0.98902084641E+01  0.51100000000E-03 0.  1.
         12    1    3    3    0    0  0.20250487269E+01 -0.69680084147E+01  0.27546960784E+01  0.77615922399E+01  0.00000000000E+00 0. -1.
</event>
<event>
 7    1  0.4520156E-012  0.5052887E+02  0.7816164E-02  0.1300439E+00
        -11   -1    0    0    0    0  0.00000000000E+00  0.00000000000E+00  0.45593999997E+02  0.45594000000E+02  0.51100000000E-03 0. -1.
         11   -1    0    0    0    0 -0.00000000000E+00 -0.00000000000E+00 -0.45593999997E+02  0.45594000000E+02  0.51100000000E-03 0.  1.
    9900012    2    1    2    0    0 -0.32512478956E+01 -0.28607073945E+02 -0.28709404280E+02  0.50528865889E+02  0.30000018355E+02 0.  0.
         12    1    1    2    0    0  0.32512478956E+01  0.28607073945E+02  0.28709404280E+02  0.40659134111E+02  0.00000000000E+00 0. -1.
         11    1    3    3    0    0 -0.44955535022E+01 -0.96026151473E+00 -0.16740863975E+02  0.17360548101E+02  0.51100000000E-03 0. -1.
        -11    1    3    3    0    0 -0.61539197144E+01 -0.94295538765E+01 -0.47941004067E+01  0.12238080451E+02  0.51100000000E-03 0.  1.
         12    1    3    3    0    0  0.73982253210E+01 -0.18217258554E+02 -0.71744398982E+01  0.20930237337E+02  0.00000000000E+00 0. -1.
</event>
<event>
 7    1  0.4520156E-012  0.5052887E+02  0.7816164E-02  0.1300439E+00
        -11   -1    0    0    0    0  0.00000000000E+00  0.00000000000E+00  0.45593999997E+02  0.45594000000E+02  0.51100000000E-03 0. -1.
         11   -1    0    0    0    0 -0.00000000000E+00 -0.00000000000E+00 -0.45593999997E+02  0.45594000000E+02  0.51100000000E-03 0.  1.
    9900012    2    1    2    0    0  0.20653187180E+02 -0.29833468423E+02  0.18345973384E+02  0.50528871649E+02  0.30000035865E+02 0.  0.
        -12    1    1    2    0    0 -0.20653187180E+02  0.29833468423E+02 -0.18345973384E+02  0.40659128351E+02  0.00000000000E+00 0.  1.
         11    1    3    3    0    0  0.12815282774E+02 -0.81697543442E+01  0.39188159777E+01  0.15695014417E+02  0.51100000000E-03 0. -1.
        -11    1    3    3    0    0  0.37861487336E+01 -0.19555301494E+02  0.22970443249E+00  0.19919776684E+02  0.51100000000E-03 0.  1.
         12    1    3    3    0    0  0.40517556722E+01 -0.21084125848E+01  0.14197452973E+02  0.14914080548E+02  0.00000000000E+00 0. -1.
</event>
<event>
 7    1  0.4520156E-012  0.5052880E+02  0.7816164E-02  0.1300439E+00
        -11   -1    0    0    0    0  0.00000000000E+00  0.00000000000E+00  0.45593999997E+02  0.45594000000E+02  0.51100000000E-03 0. -1.
         11   -1    0    0    0    0 -0.00000000000E+00 -0.00000000000E+00 -0.45593999997E+02  0.45594000000E+02  0.51100000000E-03 0.  1.
    9900012    2    1    2    0    0 -0.21180550704E+02 -0.13091603441E+02  0.32142884956E+02  0.50528796096E+02  0.29999806214E+02 0.  0.
        -12    1    1    2    0    0  0.21180550704E+02  0.13091603441E+02 -0.32142884956E+02  0.40659203904E+02  0.00000000000E+00 0.  1.
         11    1    3    3    0    0 -0.81826109627E+01 -0.65267657227E+01  0.11778779019E+02  0.15757329355E+02  0.51100000000E-03 0. -1.
        -11    1    3    3    0    0 -0.11657110070E+02 -0.12731115522E+01 -0.18721520174E+01  0.11874930806E+02  0.51100000000E-03 0.  1.
         12    1    3    3    0    0 -0.13408296716E+01 -0.52917261662E+01  0.22236257954E+02  0.22896535935E+02  0.00000000000E+00 0. -1.
</event>
<event>
 7    1  0.4520156E-012  0.5052883E+02  0.7816164E-02  0.1300439E+00
        -11   -1    0    0    0    0  0.00000000000E+00  0.00000000000E+00  0.45593999997E+02  0.45594000000E+02  0.51100000000E-03 0. -1.
         11   -1    0    0    0    0 -0.00000000000E+00 -0.00000000000E+00 -0.45593999997E+02  0.45594000000E+02  0.51100000000E-03 0.  1.
    9900012    2    1    2    0    0 -0.38709848133E+02 -0.52173396098E+01  0.11291377897E+02  0.50528828957E+02  0.29999906098E+02 0.  0.
        -12    1    1    2    0    0  0.38709848133E+02  0.52173396098E+01 -0.11291377897E+02  0.40659171043E+02  0.00000000000E+00 0.  1.
         11    1    3    3    0    0 -0.19738556245E+02  0.99763473237E+01  0.68200057691E+00  0.22126979767E+02  0.51100000000E-03 0. -1.
        -11    1    3    3    0    0 -0.58549703382E+00  0.13614268783E+01  0.12873956671E+01  0.19630786501E+01  0.51100000000E-03 0.  1.
        -12    1    3    3    0    0 -0.18385794854E+02 -0.16555113812E+02  0.93219816529E+01  0.26438770540E+02  0.00000000000E+00 0.  1.
</event>
<event>
 7    1  0.4520156E-012  0.5052885E+02  0.7816164E-02  0.1300439E+00
        -11   -1    0    0    0    0  0.00000000000E+00  0.00000000000E+00  0.45593999997E+02  0.45594000000E+02  0.51100000000E-03 0. -1.
         11   -1    0    0    0    0 -0.00000000000E+00 -0.00000000000E+00 -0.45593999997E+02  0.45594000000E+02  0.51100000000E-03 0.  1.
    9900012    2    1    2    0    0 -0.11640661726E+02 -0.32439254289E+02  0.21572116932E+02  0.50528850314E+02  0.29999971015E+02 0.  0.
        -12    1    1    2    0    0  0.11640661726E+02  0.32439254289E+02 -0.21572116932E+02  0.40659149686E+02  0.00000000000E+00 0.  1.
         11    1    3    3    0    0 -0.93279804899E+01 -0.17283035825E+02  0.12853483961E+02  0.23471825611E+02  0.51100000000E-03 0. -1.
        -11    1    3    3    0    0 -0.21270030601E+01 -0.19769828355E+02  0.10011511275E+02  0.22262089154E+02  0.51100000000E-03 0.  1.
         12    1    3    3    0    0 -0.18567817585E+00  0.46136098911E+01 -0.12928783036E+01  0.47949355491E+01  0.00000000000E+00 0. -1.
</event>
<event>
 7    1  0.4520156E-012  0.5052886E+02  0.7816164E-02  0.1300439E+00
        -11   -1    0    0    0    0  0.00000000000E+00  0.00000000000E+00  0.45593999997E+02  0.45594000000E+02  0.51100000000E-03 0. -1.
         11   -1    0    0    0    0 -0.00000000000E+00 -0.00000000000E+00 -0.45593999997E+02  0.45594000000E+02  0.51100000000E-03 0.  1.
    9900012    2    1    2    0    0 -0.40255178012E+01  0.19452255741E+02 -0.35476336527E+02  0.50528862032E+02  0.30000006632E+02 0.  0.
         12    1    1    2    0    0  0.40255178012E+01 -0.19452255741E+02  0.35476336527E+02  0.40659137968E+02  0.00000000000E+00 0. -1.
         11    1    3    3    0    0  0.54046388186E+01  0.94576211035E+01 -0.74679336325E+01  0.13207071996E+02  0.51100000000E-03 0. -1.
        -11    1    3    3    0    0  0.56688550155E+01  0.42823668273E+01 -0.14971176179E+02  0.16571381937E+02  0.51100000000E-03 0.  1.
         12    1    3    3    0    0 -0.15099011635E+02  0.57122678097E+01 -0.13037226715E+02  0.20750408100E+02  0.00000000000E+00 0. -1.
</event>
<event>
 7    1  0.4520156E-012  0.5052887E+02  0.7816164E-02  0.1300439E+00
        -11   -1    0    0    0    0  0.00000000000E+00  0.00000000000E+00  0.45593999997E+02  0.45594000000E+02  0.51100000000E-03 0. -1.
         11   -1    0    0    0    0 -0.00000000000E+00 -0.00000000000E+00 -0.45593999997E+02  0.45594000000E+02  0.51100000000E-03 0.  1.
    9900012    2    1    2    0    0 -0.25166467920E+02 -0.18457989711E+01 -0.31881134772E+02  0.50528870204E+02  0.30000031473E+02 0.  0.
         12    1    1    2    0    0  0.25166467920E+02  0.18457989711E+01  0.31881134772E+02  0.40659129796E+02  0.00000000000E+00 0. -1.
         11    1    3    3    0    0 -0.18612637588E+02 -0.35656289852E+01 -0.29310944265E+02  0.34903802688E+02  0.51100000000E-03 0. -1.
        -11    1    3    3    0    0 -0.63483266045E+01  0.34480300619E+01 -0.74901447479E+01  0.10406364908E+02  0.51100000000E-03 0.  1.
         12    1    3    3    0    0 -0.20550372674E+00 -0.17282000479E+01  0.49199542411E+01  0.52187026091E+01  0.00000000000E+00 0. -1.
</event>
<event>
 7    1  0.4520156E-012  0.5052885E+02  0.7816164E-02  0.1300439E+00
        -11   -1    0    0    0    0  0.00000000000E+00  0.00000000000E+00  0.45593999997E+02  0.45594000000E+02  0.51100000000E-03 0. -1.
         11   -1    0    0    0    0 -0.00000000000E+00 -0.00000000000E+00 -0.45593999997E+02  0.45594000000E+02  0.51100000000E-03 0.  1.
    9900012    2    1    2    0    0  0.10677617597E+02  0.23669092787E+01  0.39160604312E+02  0.50528847191E+02  0.29999961521E+02 0.  0.
        -12    1    1    2    0    0 -0.10677617597E+02 -0.23669092787E+01 -0.39160604312E+02  0.40659152809E+02  0.00000000000E+00 0.  1.
         11    1    3    3    0    0 -0.79006408000E+00 -0.92788377990E+01  0.24907641666E+02  0.26591570954E+02  0.51100000000E-03 0. -1.
        -11    1    3    3    0    0  0.41571626886E+01  0.39357795058E+01  0.11676742835E+02  0.13004564023E+02  0.51100000000E-03 0.  1.
        -12    1    3    3    0    0  0.73105189888E+01  0.77099675720E+01  0.25762198108E+01  0.10932712214E+02  0.00000000000E+00 0.  1.
</event>
<event>
 7    1  0.4520156E-012  0.5052885E+02  0.7816164E-02  0.1300439E+00
        -11   -1    0    0    0    0  0.00000000000E+00  0.00000000000E+00  0.45593999997E+02  0.45594000000E+02  0.51100000000E-03 0. -1.
         11   -1    0    0    0    0 -0.00000000000E+00 -0.00000000000E+00 -0.45593999997E+02  0.45594000000E+02  0.51100000000E-03 0.  1.
    9900012    2    1    2    0    0 -0.38293115862E+02 -0.73275029029E+01  0.11537392522E+02  0.50528850384E+02  0.29999971229E+02 0.  0.
        -12    1    1    2    0    0  0.38293115862E+02  0.73275029029E+01 -0.11537392522E+02  0.40659149616E+02  0.00000000000E+00 0.  1.
         11    1    3    3    0    0 -0.69702602522E+01 -0.11229929880E+02  0.57990507982E+01  0.14433462631E+02  0.51100000000E-03 0. -1.
        -11    1    3    3    0    0 -0.52661482931E+01 -0.51736977852E+00 -0.52675965279E+01  0.74664290511E+01  0.51100000000E-03 0.  1.
         12    1    3    3    0    0 -0.26056707317E+02  0.44197967559E+01  0.11005938252E+02  0.28628958702E+02  0.00000000000E+00 0. -1.
</event>
<event>
 7    1  0.4520156E-012  0.5052887E+02  0.7816164E-02  0.1300439E+00
        -11   -1    0    0    0    0  0.00000000000E+00  0.00000000000E+00  0.45593999997E+02  0.45594000000E+02  0.51100000000E-03 0.  1.
         11   -1    0    0    0    0 -0.00000000000E+00 -0.00000000000E+00 -0.45593999997E+02  0.45594000000E+02  0.51100000000E-03 0. -1.
    9900012    2    1    2    0    0 -0.34596007375E+02  0.20833681423E+02  0.47158051179E+01  0.50528870326E+02  0.30000031842E+02 0.  0.
         12    1    1    2    0    0  0.34596007375E+02 -0.20833681423E+02 -0.47158051179E+01  0.40659129674E+02  0.00000000000E+00 0. -1.
         11    1    3    3    0    0 -0.89091416754E+01  0.11457384624E+02  0.11749509118E+02  0.18673388353E+02  0.51100000000E-03 0. -1.
        -11    1    3    3    0    0 -0.39685681408E+01  0.70325686358E+01  0.18324496480E+01  0.82803639219E+01  0.51100000000E-03 0.  1.
         12    1    3    3    0    0 -0.21718297559E+02  0.23437281631E+01 -0.88661536479E+01  0.23575118050E+02  0.00000000000E+00 0. -1.
</event>
<event>
 7    1  0.4520156E-012  0.5052886E+02  0.7816164E-02  0.1300439E+00
        -11   -1    0    0    0    0  0.00000000000E+00  0.00000000000E+00  0.45593999997E+02  0.45594000000E+02  0.51100000000E-03 0.  1.
         11   -1    0    0    0    0 -0.00000000000E+00 -0.00000000000E+00 -0.45593999997E+02  0.45594000000E+02  0.51100000000E-03 0. -1.
    9900012    2    1    2    0    0 -0.35096288606E+02 -0.16417074598E+02  0.12324597218E+02  0.50528861927E+02  0.30000006314E+02 0.  0.
        -12    1    1    2    0    0  0.35096288606E+02  0.16417074598E+02 -0.12324597218E+02  0.40659138073E+02  0.00000000000E+00 0.  1.
         11    1    3    3    0    0 -0.15109037524E+02 -0.95268513057E+01  0.36467143425E+01  0.18230261558E+02  0.51100000000E-03 0. -1.
        -11    1    3    3    0    0 -0.18883888514E+02 -0.12626804454E+02  0.11170339221E+01  0.22743904703E+02  0.51100000000E-03 0.  1.
         12    1    3    3    0    0 -0.11033625675E+01  0.57365811613E+01  0.75608489529E+01  0.95546956657E+01  0.00000000000E+00 0. -1.
</event>
<event>
 7    1  0.4520156E-012  0.5052886E+02  0.7816164E-02  0.1300439E+00
        -11   -1    0    0    0    0  0.00000000000E+00  0.00000000000E+00  0.45593999997E+02  0.45594000000E+02  0.51100000000E-03 0. -1.
         11   -1    0    0    0    0 -0.00000000000E+00 -0.00000000000E+00 -0.45593999997E+02  0.45594000000E+02  0.51100000000E-03 0.  1.
    9900012    2    1    2    0    0  0.14385344501E+02 -0.53506149303E+01 -0.37651011592E+02  0.50528857234E+02  0.29999992049E+02 0.  0.
         12    1    1    2    0    0 -0.14385344501E+02  0.53506149303E+01  0.37651011592E+02  0.40659142766E+02  0.00000000000E+00 0. -1.
         11    1    3    3    0    0  0.21568906020E+00  0.42550660822E+00  0.46059937059E+00  0.66312116965E+00  0.51100000000E-03 0. -1.
        -11    1    3    3    0    0  0.19687689120E+02  0.17261882652E+01 -0.14583317103E+02  0.24561310364E+02  0.51100000000E-03 0.  1.
         12    1    3    3    0    0 -0.55180336796E+01 -0.75023098037E+01 -0.23528293860E+02  0.25304425701E+02  0.00000000000E+00 0. -1.
</event>
<event>
 7    1  0.4520156E-012  0.5052886E+02  0.7816164E-02  0.1300439E+00
        -11   -1    0    0    0    0  0.00000000000E+00  0.00000000000E+00  0.45593999997E+02  0.45594000000E+02  0.51100000000E-03 0. -1.
         11   -1    0    0    0    0 -0.00000000000E+00 -0.00000000000E+00 -0.45593999997E+02  0.45594000000E+02  0.51100000000E-03 0.  1.
    9900012    2    1    2    0    0  0.16957142833E+02 -0.66507183219E+01 -0.36350916344E+02  0.50528857531E+02  0.29999992952E+02 0.  0.
         12    1    1    2    0    0 -0.16957142833E+02  0.66507183219E+01  0.36350916344E+02  0.40659142469E+02  0.00000000000E+00 0. -1.
         11    1    3    3    0    0 -0.23805591724E+01 -0.11831064702E+00 -0.76796011646E+01  0.80409784038E+01  0.51100000000E-03 0. -1.
        -11    1    3    3    0    0  0.54266766487E+00 -0.68397346089E+01 -0.21160974207E+02  0.22245522861E+02  0.51100000000E-03 0.  1.
        -12    1    3    3    0    0  0.18795034340E+02  0.30732693401E+00 -0.75103409721E+01  0.20242356266E+02  0.00000000000E+00 0.  1.
</event>
<event>
 7    1  0.4520156E-012  0.5052886E+02  0.7816164E-02  0.1300439E+00
        -11   -1    0    0    0    0  0.00000000000E+00  0.00000000000E+00  0.45593999997E+02  0.45594000000E+02  0.51100000000E-03 0. -1.
         11   -1    0    0    0    0 -0.00000000000E+00 -0.00000000000E+00 -0.45593999997E+02  0.45594000000E+02  0.51100000000E-03 0.  1.
    9900012    2    1    2    0    0 -0.16025389307E+01  0.10690006109E+02  0.39195935527E+02  0.50528859288E+02  0.29999998291E+02 0.  0.
        -12    1    1    2    0    0  0.16025389307E+01 -0.10690006109E+02 -0.39195935527E+02  0.40659140712E+02  0.00000000000E+00 0.  1.
         11    1    3    3    0    0 -0.28940721541E+01  0.52514690428E-01  0.26559997827E+01  0.39284534530E+01  0.51100000000E-03 0. -1.
        -11    1    3    3    0    0 -0.26535693591E+01 -0.62916083991E+01  0.82245666120E+00  0.68776596174E+01  0.51100000000E-03 0.  1.
         12    1    3    3    0    0  0.39451025826E+01  0.16929099818E+02  0.35717479083E+02  0.39722746218E+02  0.00000000000E+00 0. -1.
</event>
<event>
 7    1  0.4520156E-012  0.5052885E+02  0.7816164E-02  0.1300439E+00
        -11   -1    0    0    0    0  0.00000000000E+00  0.00000000000E+00  0.45593999997E+02  0.45594000000E+02  0.51100000000E-03 0. -1.
         11   -1    0    0    0    0 -0.00000000000E+00 -0.00000000000E+00 -0.45593999997E+02  0.45594000000E+02  0.51100000000E-03 0.  1.
    9900012    2    1    2    0    0  0.21286824282E+02  0.31275948757E+01  0.34500088102E+02  0.50528845843E+02  0.29999957425E+02 0.  0.
        -12    1    1    2    0    0 -0.21286824282E+02 -0.31275948757E+01 -0.34500088102E+02  0.40659154157E+02  0.00000000000E+00 0.  1.
         11    1    3    3    0    0 -0.28435057378E+01  0.44968244887E+01 -0.12203343865E+01  0.54585869636E+01  0.51100000000E-03 0. -1.
        -11    1    3    3    0    0  0.42512477554E+00 -0.36345870762E+01  0.43238651608E+01  0.56645180271E+01  0.51100000000E-03 0.  1.
        -12    1    3    3    0    0  0.23705205245E+02  0.22653574632E+01  0.31396557327E+02  0.39405740852E+02  0.00000000000E+00 0.  1.
</event>
<event>
 7    1  0.4520156E-012  0.5052888E+02  0.7816164E-02  0.1300439E+00
        -11   -1    0    0    0    0  0.00000000000E+00  0.00000000000E+00  0.45593999997E+02  0.45594000000E+02  0.51100000000E-03 0. -1.
         11   -1    0    0    0    0 -0.00000000000E+00 -0.00000000000E+00 -0.45593999997E+02  0.45594000000E+02  0.51100000000E-03 0.  1.
    9900012    2    1    2    0    0  0.31657255012E+02  0.97221875091E+01 -0.23589436032E+02  0.50528877812E+02  0.30000054596E+02 0.  0.
         12    1    1    2    0    0 -0.31657255012E+02 -0.97221875091E+01  0.23589436032E+02  0.40659122188E+02  0.00000000000E+00 0. -1.
         11    1    3    3    0    0  0.27605347119E+02 -0.42391648941E+00 -0.10907206173E+02  0.29685047440E+02  0.51100000000E-03 0. -1.
        -11    1    3    3    0    0  0.72777117859E+01  0.52696581657E+01 -0.11950249731E+02  0.14951349602E+02  0.51100000000E-03 0.  1.
         12    1    3    3    0    0 -0.32258038930E+01  0.48764458329E+01 -0.73198012764E+00  0.58924807700E+01  0.00000000000E+00 0. -1.
</event>
<event>
 7    1  0.4520156E-012  0.5052888E+02  0.7816164E-02  0.1300439E+00
        -11   -1    0    0    0    0  0.00000000000E+00  0.00000000000E+00  0.45593999997E+02  0.45594000000E+02  0.51100000000E-03 0. -1.
         11   -1    0    0    0    0 -0.00000000000E+00 -0.00000000000E+00 -0.45593999997E+02  0.45594000000E+02  0.51100000000E-03 0.  1.
    9900012    2    1    2    0    0  0.17041648200E+02 -0.31260684905E+02 -0.19634549150E+02  0.50528883994E+02  0.30000073388E+02 0.  0.
         12    1    1    2    0    0 -0.17041648200E+02  0.31260684905E+02  0.19634549150E+02  0.40659116006E+02  0.00000000000E+00 0. -1.
         11    1    3    3    0    0 -0.10225469475E+01 -0.97260640175E+01 -0.28661475828E+01  0.10191012009E+02  0.51100000000E-03 0. -1.
        -11    1    3    3    0    0  0.11968305333E+02 -0.20089248041E+02 -0.10395315410E+01  0.23407239169E+02  0.51100000000E-03 0.  1.
        -12    1    3    3    0    0  0.60958898144E+01 -0.14453728459E+01 -0.15728870026E+02  0.16930632817E+02  0.00000000000E+00 0.  1.
</event>
<event>
 7    1  0.4520156E-012  0.5052887E+02  0.7816164E-02  0.1300439E+00
        -11   -1    0    0    0    0  0.00000000000E+00  0.00000000000E+00  0.45593999997E+02  0.45594000000E+02  0.51100000000E-03 0. -1.
         11   -1    0    0    0    0 -0.00000000000E+00 -0.00000000000E+00 -0.45593999997E+02  0.45594000000E+02  0.51100000000E-03 0.  1.
    9900012    2    1    2    0    0  0.23250590909E+02  0.11259872810E+02  0.31397298475E+02  0.50528867387E+02  0.30000022909E+02 0.  0.
        -12    1    1    2    0    0 -0.23250590909E+02 -0.11259872810E+02 -0.31397298475E+02  0.40659132613E+02  0.00000000000E+00 0.  1.
         11    1    3    3    0    0  0.18187612460E+02  0.10494850990E+02  0.16044946741E+02  0.26426718685E+02  0.51100000000E-03 0. -1.
        -11    1    3    3    0    0  0.32767084188E+01  0.91692673275E+01  0.10113030778E+02  0.14038720496E+02  0.51100000000E-03 0.  1.
        -12    1    3    3    0    0  0.17862700298E+01 -0.84042455069E+01  0.52393209563E+01  0.10063428205E+02  0.00000000000E+00 0.  1.
</event>
<event>
 7    1  0.4520156E-012  0.5052886E+02  0.7816164E-02  0.1300439E+00
        -11   -1    0    0    0    0  0.00000000000E+00  0.00000000000E+00  0.45593999997E+02  0.45594000000E+02  0.51100000000E-03 0. -1.
         11   -1    0    0    0    0 -0.00000000000E+00 -0.00000000000E+00 -0.45593999997E+02  0.45594000000E+02  0.51100000000E-03 0.  1.
    9900012    2    1    2    0    0  0.56698812856E+01  0.23428266728E+02 -0.32743465077E+02  0.50528859073E+02  0.29999997638E+02 0.  0.
         12    1    1    2    0    0 -0.56698812856E+01 -0.23428266728E+02  0.32743465077E+02  0.40659140927E+02  0.00000000000E+00 0. -1.
         11    1    3    3    0    0 -0.43775144077E+00 -0.15939352863E+01 -0.14294761666E+00  0.16591233538E+01  0.51100000000E-03 0. -1.
        -11    1    3    3    0    0 -0.37357200220E+01  0.14297527666E+02 -0.19081926434E+01  0.14900204726E+02  0.51100000000E-03 0.  1.
        -12    1    3    3    0    0  0.98433527484E+01  0.10724674348E+02 -0.30692324817E+02  0.33969530993E+02  0.00000000000E+00 0.  1.
</event>
<event>
 7    1  0.4520156E-012  0.5052886E+02  0.7816164E-02  0.1300439E+00
        -11   -1    0    0    0    0  0.00000000000E+00  0.00000000000E+00  0.45593999997E+02  0.45594000000E+02  0.51100000000E-03 0. -1.
         11   -1    0    0    0    0 -0.00000000000E+00 -0.00000000000E+00 -0.45593999997E+02  0.45594000000E+02  0.51100000000E-03 0.  1.
    9900012    2    1    2    0    0 -0.94524478225E+01  0.72175270774E+01 -0.38880895896E+02  0.50528861634E+02  0.30000005424E+02 0.  0.
         12    1    1    2    0    0  0.94524478225E+01 -0.72175270774E+01  0.38880895896E+02  0.40659138366E+02  0.00000000000E+00 0. -1.
         11    1    3    3    0    0  0.58707891953E+01  0.22008119064E+01  0.72720492455E+00  0.63117799460E+01  0.51100000000E-03 0. -1.
        -11    1    3    3    0    0  0.94723372207E+00  0.31232855212E+01 -0.60279991902E+01  0.68548478224E+01  0.51100000000E-03 0.  1.
        -12    1    3    3    0    0 -0.16270470740E+02  0.18934296498E+01 -0.33580101631E+02  0.37362233866E+02  0.00000000000E+00 0.  1.
</event>
<event>
 7    1  0.4520156E-012  0.5052886E+02  0.7816164E-02  0.1300439E+00
        -11   -1    0    0    0    0  0.00000000000E+00  0.00000000000E+00  0.45593999997E+02  0.45594000000E+02  0.51100000000E-03 0. -1.
         11   -1    0    0    0    0 -0.00000000000E+00 -0.00000000000E+00 -0.45593999997E+02  0.45594000000E+02  0.51100000000E-03 0.  1.
    9900012    2    1    2    0    0 -0.26869416703E+02  0.33934394547E+01  0.30326307831E+02  0.50528856724E+02  0.29999990497E+02 0.  0.
        -12    1    1    2    0    0  0.26869416703E+02 -0.33934394547E+01 -0.30326307831E+02  0.40659143276E+02  0.00000000000E+00 0.  1.
         11    1    3    3    0    0 -0.15686066828E+01  0.24248528139E+01  0.13823946200E+01  0.32017890687E+01  0.51100000000E-03 0. -1.
        -11    1    3    3    0    0 -0.52745298628E+01  0.12860875432E+02  0.82085953220E+01  0.16143228289E+02  0.51100000000E-03 0.  1.
         12    1    3    3    0    0 -0.20026280157E+02 -0.11892288792E+02  0.20735317889E+02  0.31183839366E+02  0.00000000000E+00 0. -1.
</event>
<event>
 7    1  0.4520156E-012  0.5052886E+02  0.7816164E-02  0.1300439E+00
        -11   -1    0    0    0    0  0.00000000000E+00  0.00000000000E+00  0.45593999997E+02  0.45594000000E+02  0.51100000000E-03 0. -1.
         11   -1    0    0    0    0 -0.00000000000E+00 -0.00000000000E+00 -0.45593999997E+02  0.45594000000E+02  0.51100000000E-03 0.  1.
    9900012    2    1    2    0    0  0.82015120854E+01  0.11802179732E+02 -0.38034318388E+02  0.50528860533E+02  0.30000002077E+02 0.  0.
         12    1    1    2    0    0 -0.82015120854E+01 -0.11802179732E+02  0.38034318388E+02  0.40659139467E+02  0.00000000000E+00 0. -1.
         11    1    3    3    0    0 -0.36057587332E+01  0.10823339433E+02 -0.18279381898E+02  0.21547203423E+02  0.51100000000E-03 0. -1.
        -11    1    3    3    0    0  0.58345834292E+01  0.73902831565E+01 -0.17596486054E+02  0.19957328745E+02  0.51100000000E-03 0.  1.
         12    1    3    3    0    0  0.59726873894E+01 -0.64114428575E+01 -0.21584504370E+01  0.90243283659E+01  0.00000000000E+00 0. -1.
</event>
<event>
 7    1  0.4520156E-012  0.5052891E+02  0.7816164E-02  0.1300439E+00
        -11   -1    0    0    0    0  0.00000000000E+00  0.00000000000E+00  0.45593999997E+02  0.45594000000E+02  0.51100000000E-03 0. -1.
         11   -1    0    0    0    0 -0.00000000000E+00 -0.00000000000E+00 -0.45593999997E+02  0.45594000000E+02  0.51100000000E-03 0.  1.
    9900012    2    1    2    0    0 -0.19851838401E+01 -0.12142544340E+02 -0.38752792277E+02  0.50528914334E+02  0.30000165610E+02 0.  0.
         12    1    1    2    0    0  0.19851838401E+01  0.12142544340E+02  0.38752792277E+02  0.40659085666E+02  0.00000000000E+00 0. -1.
         11    1    3    3    0    0 -0.10806673315E+01  0.47010238792E+01 -0.11154941811E+02  0.12153196883E+02  0.51100000000E-03 0. -1.
        -11    1    3    3    0    0 -0.39951341046E+01  0.94943259726E+00 -0.16886619484E+02  0.17378735185E+02  0.51100000000E-03 0.  1.
        -12    1    3    3    0    0  0.30906175960E+01 -0.17793000816E+02 -0.10711230981E+02  0.20996982266E+02  0.00000000000E+00 0.  1.
</event>
<event>
 7    1  0.4520156E-012  0.5052886E+02  0.7816164E-02  0.1300439E+00
        -11   -1    0    0    0    0  0.00000000000E+00  0.00000000000E+00  0.45593999997E+02  0.45594000000E+02  0.51100000000E-03 0. -1.
         11   -1    0    0    0    0 -0.00000000000E+00 -0.00000000000E+00 -0.45593999997E+02  0.45594000000E+02  0.51100000000E-03 0.  1.
    9900012    2    1    2    0    0  0.95600780331E+01  0.13005643128E+02 -0.37317874906E+02  0.50528860405E+02  0.30000001686E+02 0.  0.
         12    1    1    2    0    0 -0.95600780331E+01 -0.13005643128E+02  0.37317874906E+02  0.40659139595E+02  0.00000000000E+00 0. -1.
         11    1    3    3    0    0 -0.35760069344E+01 -0.37030518159E+01 -0.30876685771E+01  0.60028423142E+01  0.51100000000E-03 0. -1.
        -11    1    3    3    0    0  0.35148810538E+01  0.96468139122E+01 -0.24170504575E+01  0.10547869010E+02  0.51100000000E-03 0.  1.
        -12    1    3    3    0    0  0.96212039137E+01  0.70618810315E+01 -0.31813155871E+02  0.33978149080E+02  0.00000000000E+00 0.  1.
</event>
<event>
 7    1  0.4520156E-012  0.5052886E+02  0.7816164E-02  0.1300439E+00
        -11   -1    0    0    0    0  0.00000000000E+00  0.00000000000E+00  0.45593999997E+02  0.45594000000E+02  0.51100000000E-03 0.  1.
         11   -1    0    0    0    0 -0.00000000000E+00 -0.00000000000E+00 -0.45593999997E+02  0.45594000000E+02  0.51100000000E-03 0. -1.
    9900012    2    1    2    0    0  0.13769452654E+02  0.38252148136E+02  0.58386372119E+00  0.50528861295E+02  0.30000004391E+02 0.  0.
         12    1    1    2    0    0 -0.13769452654E+02 -0.38252148136E+02 -0.58386372119E+00  0.40659138705E+02  0.00000000000E+00 0. -1.
         11    1    3    3    0    0 -0.30760562881E+01  0.10323691423E+02  0.63604583474E+01  0.12509842426E+02  0.51100000000E-03 0. -1.
        -11    1    3    3    0    0  0.63939093419E+01 -0.99098632711E+00 -0.30356489757E+01  0.71469780703E+01  0.51100000000E-03 0.  1.
         12    1    3    3    0    0  0.10451599600E+02  0.28919443040E+02 -0.27409456505E+01  0.30872040798E+02  0.00000000000E+00 0. -1.
</event>
<event>
 7    1  0.4520156E-012  0.5052884E+02  0.7816164E-02  0.1300439E+00
        -11   -1    0    0    0    0  0.00000000000E+00  0.00000000000E+00  0.45593999997E+02  0.45594000000E+02  0.51100000000E-03 0. -1.
         11   -1    0    0    0    0 -0.00000000000E+00 -0.00000000000E+00 -0.45593999997E+02  0.45594000000E+02  0.51100000000E-03 0.  1.
    9900012    2    1    2    0    0  0.35390654378E+02  0.26578002285E+01  0.19839473941E+02  0.50528843029E+02  0.29999948871E+02 0.  0.
        -12    1    1    2    0    0 -0.35390654378E+02 -0.26578002285E+01 -0.19839473941E+02  0.40659156971E+02  0.00000000000E+00 0.  1.
         11    1    3    3    0    0  0.12988158486E+02  0.11214978713E+02  0.91735884852E+01  0.19458230504E+02  0.51100000000E-03 0. -1.
        -11    1    3    3    0    0  0.16700566633E+02 -0.20808479142E+01  0.13928302903E+02  0.21845742741E+02  0.51100000000E-03 0.  1.
        -12    1    3    3    0    0  0.57019292586E+01 -0.64763305700E+01 -0.32624174476E+01  0.92248697836E+01  0.00000000000E+00 0.  1.
</event>
<event>
 7    1  0.4520156E-012  0.5052886E+02  0.7816164E-02  0.1300439E+00
        -11   -1    0    0    0    0  0.00000000000E+00  0.00000000000E+00  0.45593999997E+02  0.45594000000E+02  0.51100000000E-03 0. -1.
         11   -1    0    0    0    0 -0.00000000000E+00 -0.00000000000E+00 -0.45593999997E+02  0.45594000000E+02  0.51100000000E-03 0.  1.
    9900012    2    1    2    0    0  0.36658902627E+02 -0.17243167845E+02  0.34588536473E+01  0.50528860219E+02  0.30000001123E+02 0.  0.
        -12    1    1    2    0    0 -0.36658902627E+02  0.17243167845E+02 -0.34588536473E+01  0.40659139781E+02  0.00000000000E+00 0.  1.
         11    1    3    3    0    0  0.12054506522E+02 -0.70598355673E+01  0.40448933864E+01  0.14543506060E+02  0.51100000000E-03 0.  1.
        -11    1    3    3    0    0  0.23967778916E+02 -0.15468999941E+02 -0.51326337341E+01  0.28984277025E+02  0.51100000000E-03 0. -1.
        -12    1    3    3    0    0  0.63661718844E+00  0.52856676633E+01  0.45465939951E+01  0.70010771348E+01  0.00000000000E+00 0.  1.
</event>
<event>
 7    1  0.4520156E-012  0.5052886E+02  0.7816164E-02  0.1300439E+00
        -11   -1    0    0    0    0  0.00000000000E+00  0.00000000000E+00  0.45593999997E+02  0.45594000000E+02  0.51100000000E-03 0. -1.
         11   -1    0    0    0    0 -0.00000000000E+00 -0.00000000000E+00 -0.45593999997E+02  0.45594000000E+02  0.51100000000E-03 0.  1.
    9900012    2    1    2    0    0  0.92716179771E+01 -0.37383246936E+02 -0.13026736089E+02  0.50528857061E+02  0.29999991522E+02 0.  0.
         12    1    1    2    0    0 -0.92716179771E+01  0.37383246936E+02  0.13026736089E+02  0.40659142939E+02  0.00000000000E+00 0. -1.
         11    1    3    3    0    0  0.37187770078E+00 -0.54475026120E+01 -0.10109976286E+02  0.11490221864E+02  0.51100000000E-03 0.  1.
        -11    1    3    3    0    0  0.98180804080E+01 -0.83739771791E+01 -0.76319422486E+01  0.14992155930E+02  0.51100000000E-03 0. -1.
        -12    1    3    3    0    0 -0.91834013171E+00 -0.23561767145E+02  0.47151824458E+01  0.24046479266E+02  0.00000000000E+00 0.  1.
</event>
<event>
 7    1  0.4520156E-012  0.5052886E+02  0.7816164E-02  0.1300439E+00
        -11   -1    0    0    0    0  0.00000000000E+00  0.00000000000E+00  0.45593999997E+02  0.45594000000E+02  0.51100000000E-03 0. -1.
         11   -1    0    0    0    0 -0.00000000000E+00 -0.00000000000E+00 -0.45593999997E+02  0.45594000000E+02  0.51100000000E-03 0.  1.
    9900012    2    1    2    0    0  0.24233956479E+02 -0.25776046163E+01  0.32545921636E+02  0.50528859486E+02  0.29999998894E+02 0.  0.
        -12    1    1    2    0    0 -0.24233956479E+02  0.25776046163E+01 -0.32545921636E+02  0.40659140514E+02  0.00000000000E+00 0.  1.
         11    1    3    3    0    0  0.18119285656E+02 -0.12967025908E+02  0.11065229864E+02  0.24877531747E+02  0.51100000000E-03 0. -1.
        -11    1    3    3    0    0  0.66684132976E+01  0.43644252810E+01  0.12130036107E+02  0.14513914708E+02  0.51100000000E-03 0.  1.
        -12    1    3    3    0    0 -0.55374247484E+00  0.60249960111E+01  0.93506556656E+01  0.11137413032E+02  0.00000000000E+00 0.  1.
</event>
<event>
 7    1  0.4520156E-012  0.5052886E+02  0.7816164E-02  0.1300439E+00
        -11   -1    0    0    0    0  0.00000000000E+00  0.00000000000E+00  0.45593999997E+02  0.45594000000E+02  0.51100000000E-03 0. -1.
         11   -1    0    0    0    0 -0.00000000000E+00 -0.00000000000E+00 -0.45593999997E+02  0.45594000000E+02  0.51100000000E-03 0.  1.
    9900012    2    1    2    0    0 -0.29602112864E+02 -0.46424760622E+01 -0.27483232001E+02  0.50528859439E+02  0.29999998749E+02 0.  0.
         12    1    1    2    0    0  0.29602112864E+02  0.46424760622E+01  0.27483232001E+02  0.40659140561E+02  0.00000000000E+00 0. -1.
         11    1    3    3    0    0 -0.60991282548E+01 -0.11389302374E+02 -0.38116665592E+01  0.13470129036E+02  0.51100000000E-03 0.  1.
        -11    1    3    3    0    0 -0.71787352834E+01 -0.46925844158E+01 -0.73865224373E+01  0.11318803062E+02  0.51100000000E-03 0. -1.
         12    1    3    3    0    0 -0.16324249325E+02  0.11439410728E+02 -0.16285043004E+02  0.25739927340E+02  0.00000000000E+00 0. -1.
</event>
<event>
 7    1  0.4520156E-012  0.5052886E+02  0.7816164E-02  0.1300439E+00
        -11   -1    0    0    0    0  0.00000000000E+00  0.00000000000E+00  0.45593999997E+02  0.45594000000E+02  0.51100000000E-03 0.  1.
         11   -1    0    0    0    0 -0.00000000000E+00 -0.00000000000E+00 -0.45593999997E+02  0.45594000000E+02  0.51100000000E-03 0. -1.
    9900012    2    1    2    0    0 -0.22356283459E+02 -0.29276711791E+02  0.17211526083E+02  0.50528857197E+02  0.29999991935E+02 0.  0.
        -12    1    1    2    0    0  0.22356283459E+02  0.29276711791E+02 -0.17211526083E+02  0.40659142803E+02  0.00000000000E+00 0.  1.
         11    1    3    3    0    0 -0.12248126249E+01 -0.27101268889E+01 -0.78111416515E+00  0.30749135468E+01  0.51100000000E-03 0. -1.
        -11    1    3    3    0    0  0.44640546543E+01 -0.14395836821E+02  0.97007294917E+01  0.17924063565E+02  0.51100000000E-03 0.  1.
         12    1    3    3    0    0 -0.25595525488E+02 -0.12170748081E+02  0.82919107565E+01  0.29529880085E+02  0.00000000000E+00 0. -1.
</event>
<event>
 7    1  0.4520156E-012  0.5052887E+02  0.7816164E-02  0.1300439E+00
        -11   -1    0    0    0    0  0.00000000000E+00  0.00000000000E+00  0.45593999997E+02  0.45594000000E+02  0.51100000000E-03 0. -1.
         11   -1    0    0    0    0 -0.00000000000E+00 -0.00000000000E+00 -0.45593999997E+02  0.45594000000E+02  0.51100000000E-03 0.  1.
    9900012    2    1    2    0    0  0.75825871084E+01  0.23614687626E+02 -0.32218245560E+02  0.50528874999E+02  0.30000046046E+02 0.  0.
         12    1    1    2    0    0 -0.75825871084E+01 -0.23614687626E+02  0.32218245560E+02  0.40659125001E+02  0.00000000000E+00 0. -1.
         11    1    3    3    0    0 -0.19218031293E+01  0.19451620602E+01 -0.92889662976E+00  0.28878767145E+01  0.51100000000E-03 0. -1.
        -11    1    3    3    0    0 -0.17041255366E+01 -0.33691316832E+01 -0.15574872481E+02  0.16025970959E+02  0.51100000000E-03 0.  1.
         12    1    3    3    0    0  0.11208515774E+02  0.25038657249E+02 -0.15714476450E+02  0.31615027325E+02  0.00000000000E+00 0. -1.
</event>
<event>
 7    1  0.4520156E-012  0.5052887E+02  0.7816164E-02  0.1300439E+00
        -11   -1    0    0    0    0  0.00000000000E+00  0.00000000000E+00  0.45593999997E+02  0.45594000000E+02  0.51100000000E-03 0.  1.
         11   -1    0    0    0    0 -0.00000000000E+00 -0.00000000000E+00 -0.45593999997E+02  0.45594000000E+02  0.51100000000E-03 0. -1.
    9900012    2    1    2    0    0  0.10537038464E+02  0.38785211480E+02  0.61516560807E+01  0.50528872099E+02  0.30000037233E+02 0.  0.
         12    1    1    2    0    0 -0.10537038464E+02 -0.38785211480E+02 -0.61516560807E+01  0.40659127901E+02  0.00000000000E+00 0. -1.
         11    1    3    3    0    0  0.89578639851E+01  0.56815648292E+01  0.64271255124E-01  0.10607904465E+02  0.51100000000E-03 0. -1.
        -11    1    3    3    0    0  0.30217538216E+01  0.21990157692E+01  0.80966254906E+01  0.89175114862E+01  0.51100000000E-03 0.  1.
        -12    1    3    3    0    0 -0.14425793425E+01  0.30904630881E+02 -0.20092406651E+01  0.31003456148E+02  0.00000000000E+00 0.  1.
</event>
<event>
 7    1  0.4520156E-012  0.5052887E+02  0.7816164E-02  0.1300439E+00
        -11   -1    0    0    0    0  0.00000000000E+00  0.00000000000E+00  0.45593999997E+02  0.45594000000E+02  0.51100000000E-03 0. -1.
         11   -1    0    0    0    0 -0.00000000000E+00 -0.00000000000E+00 -0.45593999997E+02  0.45594000000E+02  0.51100000000E-03 0.  1.
    9900012    2    1    2    0    0  0.22018056435E+02 -0.91206703128E+01  0.32942127771E+02  0.50528865501E+02  0.30000017176E+02 0.  0.
        -12    1    1    2    0    0 -0.22018056435E+02  0.91206703128E+01 -0.32942127771E+02  0.40659134499E+02  0.00000000000E+00 0.  1.
         11    1    3    3    0    0  0.14944026292E+02 -0.61353400534E+01  0.29638048876E+02  0.33754707239E+02  0.51100000000E-03 0. -1.
        -11    1    3    3    0    0 -0.41207971606E+01 -0.31494545129E+01  0.36809520111E+00  0.51995699154E+01  0.51100000000E-03 0.  1.
        -12    1    3    3    0    0  0.11194827304E+02  0.16412425349E+00  0.29359836946E+01  0.11574588346E+02  0.00000000000E+00 0.  1.
</event>
<event>
 7    1  0.4520156E-012  0.5052886E+02  0.7816164E-02  0.1300439E+00
        -11   -1    0    0    0    0  0.00000000000E+00  0.00000000000E+00  0.45593999997E+02  0.45594000000E+02  0.51100000000E-03 0.  1.
         11   -1    0    0    0    0 -0.00000000000E+00 -0.00000000000E+00 -0.45593999997E+02  0.45594000000E+02  0.51100000000E-03 0. -1.
    9900012    2    1    2    0    0  0.28901505527E+02 -0.15529926042E+01 -0.28556208798E+02  0.50528857503E+02  0.29999992865E+02 0.  0.
         12    1    1    2    0    0 -0.28901505527E+02  0.15529926042E+01  0.28556208798E+02  0.40659142497E+02  0.00000000000E+00 0. -1.
         11    1    3    3    0    0  0.19296189658E+01  0.14792082073E+01 -0.39753962467E+01  0.46599637180E+01  0.51100000000E-03 0. -1.
        -11    1    3    3    0    0 -0.16354784972E+01 -0.31516978163E+01  0.40562152303E+01  0.53908136023E+01  0.51100000000E-03 0.  1.
        -12    1    3    3    0    0  0.28607365058E+02  0.11949700479E+00 -0.28637027781E+02  0.40478080182E+02  0.00000000000E+00 0.  1.
</event>
<event>
 7    1  0.4520156E-012  0.5052886E+02  0.7816164E-02  0.1300439E+00
        -11   -1    0    0    0    0  0.00000000000E+00  0.00000000000E+00  0.45593999997E+02  0.45594000000E+02  0.51100000000E-03 0. -1.
         11   -1    0    0    0    0 -0.00000000000E+00 -0.00000000000E+00 -0.45593999997E+02  0.45594000000E+02  0.51100000000E-03 0.  1.
    9900012    2    1    2    0    0  0.16983163393E+02 -0.45250094686E+01 -0.36664179663E+02  0.50528860561E+02  0.30000002162E+02 0.  0.
         12    1    1    2    0    0 -0.16983163393E+02  0.45250094686E+01  0.36664179663E+02  0.40659139439E+02  0.00000000000E+00 0. -1.
         11    1    3    3    0    0  0.16440079512E+02 -0.14836844238E+01 -0.18392242897E+02  0.24713399865E+02  0.51100000000E-03 0. -1.
        -11    1    3    3    0    0  0.83531813046E+01 -0.30568013400E+01 -0.44651230016E+01  0.99527381167E+01  0.51100000000E-03 0.  1.
         12    1    3    3    0    0 -0.78100974243E+01  0.15476295199E-01 -0.13806813765E+02  0.15862722579E+02  0.00000000000E+00 0. -1.
</event>
<event>
 7    1  0.4520156E-012  0.5052893E+02  0.7816164E-02  0.1300439E+00
        -11   -1    0    0    0    0  0.00000000000E+00  0.00000000000E+00  0.45593999997E+02  0.45594000000E+02  0.51100000000E-03 0. -1.
         11   -1    0    0    0    0 -0.00000000000E+00 -0.00000000000E+00 -0.45593999997E+02  0.45594000000E+02  0.51100000000E-03 0.  1.
    9900012    2    1    2    0    0  0.12929437484E+02  0.34562156417E+02 -0.17071810865E+02  0.50528932917E+02  0.30000222094E+02 0.  0.
         12    1    1    2    0    0 -0.12929437484E+02 -0.34562156417E+02  0.17071810865E+02  0.40659067083E+02  0.00000000000E+00 0. -1.
         11    1    3    3    0    0 -0.51607596572E+01  0.37074161634E+01 -0.82353125546E+01  0.10401862717E+02  0.51100000000E-03 0. -1.
        -11    1    3    3    0    0  0.29532357089E+01  0.53233791139E+01 -0.84859566566E+01  0.10443726681E+02  0.51100000000E-03 0.  1.
         12    1    3    3    0    0  0.15136961432E+02  0.25531361140E+02 -0.35054165391E+00  0.29683343519E+02  0.00000000000E+00 0. -1.
</event>
<event>
 7    1  0.4520156E-012  0.5052886E+02  0.7816164E-02  0.1300439E+00
        -11   -1    0    0    0    0  0.00000000000E+00  0.00000000000E+00  0.45593999997E+02  0.45594000000E+02  0.51100000000E-03 0. -1.
         11   -1    0    0    0    0 -0.00000000000E+00 -0.00000000000E+00 -0.45593999997E+02  0.45594000000E+02  0.51100000000E-03 0.  1.
    9900012    2    1    2    0    0 -0.27338362203E+00  0.31390843659E+02 -0.25840007978E+02  0.50528858144E+02  0.29999994813E+02 0.  0.
         12    1    1    2    0    0  0.27338362203E+00 -0.31390843659E+02  0.25840007978E+02  0.40659141856E+02  0.00000000000E+00 0. -1.
         11    1    3    3    0    0 -0.90662303833E+01  0.25239788791E+02 -0.18371293693E+02  0.32507659156E+02  0.51100000000E-03 0. -1.
        -11    1    3    3    0    0 -0.56716181813E+00  0.69738952125E+01 -0.29162597489E+01  0.75803336435E+01  0.51100000000E-03 0.  1.
        -12    1    3    3    0    0  0.93600085794E+01 -0.82284034434E+00 -0.45524545358E+01  0.10440865344E+02  0.00000000000E+00 0.  1.
</event>
<event>
 7    1  0.4520156E-012  0.5052886E+02  0.7816164E-02  0.1300439E+00
        -11   -1    0    0    0    0  0.00000000000E+00  0.00000000000E+00  0.45593999997E+02  0.45594000000E+02  0.51100000000E-03 0. -1.
         11   -1    0    0    0    0 -0.00000000000E+00 -0.00000000000E+00 -0.45593999997E+02  0.45594000000E+02  0.51100000000E-03 0.  1.
    9900012    2    1    2    0    0 -0.47013677762E+00 -0.23070782522E+02 -0.33476616638E+02  0.50528857162E+02  0.29999991831E+02 0.  0.
         12    1    1    2    0    0  0.47013677762E+00  0.23070782522E+02  0.33476616638E+02  0.40659142838E+02  0.00000000000E+00 0. -1.
         11    1    3    3    0    0 -0.37325904706E+01 -0.47393995062E+00 -0.40873071976E+01  0.55554415745E+01  0.51100000000E-03 0. -1.
        -11    1    3    3    0    0 -0.10821974076E+02 -0.93845706141E+01 -0.15994668547E+02  0.21471253124E+02  0.51100000000E-03 0.  1.
        -12    1    3    3    0    0  0.14084427769E+02 -0.13212271957E+02 -0.13394640893E+02  0.23502162464E+02  0.00000000000E+00 0.  1.
</event>
<event>
 7    1  0.4520156E-012  0.5052886E+02  0.7816164E-02  0.1300439E+00
        -11   -1    0    0    0    0  0.00000000000E+00  0.00000000000E+00  0.45593999997E+02  0.45594000000E+02  0.51100000000E-03 0. -1.
         11   -1    0    0    0    0 -0.00000000000E+00 -0.00000000000E+00 -0.45593999997E+02  0.45594000000E+02  0.51100000000E-03 0.  1.
    9900012    2    1    2    0    0 -0.25974578094E+01 -0.68063545301E+01  0.40001158262E+02  0.50528856977E+02  0.29999991267E+02 0.  0.
        -12    1    1    2    0    0  0.25974578094E+01  0.68063545301E+01 -0.40001158262E+02  0.40659143023E+02  0.00000000000E+00 0.  1.
         11    1    3    3    0    0 -0.39783734466E-02 -0.27128586490E+00  0.13858584782E+02  0.13861240358E+02  0.51100000000E-03 0. -1.
        -11    1    3    3    0    0  0.14161484719E+01  0.43830466500E+01  0.24490361487E+02  0.24919758837E+02  0.51100000000E-03 0.  1.
        -12    1    3    3    0    0 -0.40096279079E+01 -0.10918115315E+02  0.16522119926E+01  0.11747857782E+02  0.00000000000E+00 0.  1.
</event>
<event>
 7    1  0.4520156E-012  0.5052886E+02  0.7816164E-02  0.1300439E+00
        -11   -1    0    0    0    0  0.00000000000E+00  0.00000000000E+00  0.45593999997E+02  0.45594000000E+02  0.51100000000E-03 0. -1.
         11   -1    0    0    0    0 -0.00000000000E+00 -0.00000000000E+00 -0.45593999997E+02  0.45594000000E+02  0.51100000000E-03 0.  1.
    9900012    2    1    2    0    0 -0.25392274093E+02 -0.23642843006E+02  0.21199386630E+02  0.50528860775E+02  0.30000002812E+02 0.  0.
        -12    1    1    2    0    0  0.25392274093E+02  0.23642843006E+02 -0.21199386630E+02  0.40659139225E+02  0.00000000000E+00 0.  1.
         11    1    3    3    0    0 -0.21715190840E+01 -0.86947327028E+01  0.56434950077E+01  0.10590699130E+02  0.51100000000E-03 0. -1.
        -11    1    3    3    0    0 -0.14363486337E+01 -0.14890686261E+02  0.54235310331E+01  0.15912583821E+02  0.51100000000E-03 0.  1.
         12    1    3    3    0    0 -0.21784406375E+02 -0.57424041855E-01  0.10132360589E+02  0.24025577824E+02  0.00000000000E+00 0. -1.
</event>
<event>
 7    1  0.4520156E-012  0.5052886E+02  0.7816164E-02  0.1300439E+00
        -11   -1    0    0    0    0  0.00000000000E+00  0.00000000000E+00  0.45593999997E+02  0.45594000000E+02  0.51100000000E-03 0. -1.
         11   -1    0    0    0    0 -0.00000000000E+00 -0.00000000000E+00 -0.45593999997E+02  0.45594000000E+02  0.51100000000E-03 0.  1.
    9900012    2    1    2    0    0 -0.30953781194E+02 -0.73603547781E+01 -0.25315091707E+02  0.50528864978E+02  0.30000015586E+02 0.  0.
         12    1    1    2    0    0  0.30953781194E+02  0.73603547781E+01  0.25315091707E+02  0.40659135022E+02  0.00000000000E+00 0. -1.
         11    1    3    3    0    0 -0.25966311005E+02  0.14294496523E+00 -0.21780493997E+02  0.33891881912E+02  0.51100000000E-03 0. -1.
        -11    1    3    3    0    0 -0.88522196246E+01 -0.15719004101E+01 -0.32223202006E+01  0.95507073517E+01  0.51100000000E-03 0.  1.
         12    1    3    3    0    0  0.38647494364E+01 -0.59313993332E+01 -0.31227750892E+00  0.70862757143E+01  0.00000000000E+00 0. -1.
</event>
<event>
 7    1  0.4520156E-012  0.5052887E+02  0.7816164E-02  0.1300439E+00
        -11   -1    0    0    0    0  0.00000000000E+00  0.00000000000E+00  0.45593999997E+02  0.45594000000E+02  0.51100000000E-03 0. -1.
         11   -1    0    0    0    0 -0.00000000000E+00 -0.00000000000E+00 -0.45593999997E+02  0.45594000000E+02  0.51100000000E-03 0.  1.
    9900012    2    1    2    0    0  0.13247415718E+02 -0.20065863150E+02 -0.32787685167E+02  0.50528865900E+02  0.30000018391E+02 0.  0.
         12    1    1    2    0    0 -0.13247415718E+02  0.20065863150E+02  0.32787685167E+02  0.40659134100E+02  0.00000000000E+00 0. -1.
         11    1    3    3    0    0  0.70556646572E+01  0.54239599459E+01 -0.80136610574E+01  0.11975830203E+02  0.51100000000E-03 0. -1.
        -11    1    3    3    0    0 -0.36902526162E+01 -0.31529535802E+01 -0.61659727913E+01  0.78471842960E+01  0.51100000000E-03 0.  1.
         12    1    3    3    0    0  0.98820036769E+01 -0.22336869516E+02 -0.18608051318E+02  0.30705851401E+02  0.00000000000E+00 0. -1.
</event>
<event>
 7    1  0.4520156E-012  0.5052886E+02  0.7816164E-02  0.1300439E+00
        -11   -1    0    0    0    0  0.00000000000E+00  0.00000000000E+00  0.45593999997E+02  0.45594000000E+02  0.51100000000E-03 0. -1.
         11   -1    0    0    0    0 -0.00000000000E+00 -0.00000000000E+00 -0.45593999997E+02  0.45594000000E+02  0.51100000000E-03 0.  1.
    9900012    2    1    2    0    0 -0.32675770199E+00  0.31835991649E+02 -0.25288899109E+02  0.50528861384E+02  0.30000004662E+02 0.  0.
         12    1    1    2    0    0  0.32675770199E+00 -0.31835991649E+02  0.25288899109E+02  0.40659138616E+02  0.00000000000E+00 0. -1.
         11    1    3    3    0    0 -0.54429061123E+01  0.13564784384E+02  0.17573417555E+01  0.14721306078E+02  0.51100000000E-03 0. -1.
        -11    1    3    3    0    0 -0.97746955715E+00  0.17215364937E+02 -0.20796541648E+02  0.27015187977E+02  0.51100000000E-03 0.  1.
        -12    1    3    3    0    0  0.60936179675E+01  0.10558423280E+01 -0.62496992170E+01  0.87923673296E+01  0.00000000000E+00 0.  1.
</event>
<event>
 7    1  0.4520156E-012  0.5052885E+02  0.7816164E-02  0.1300439E+00
        -11   -1    0    0    0    0  0.00000000000E+00  0.00000000000E+00  0.45593999997E+02  0.45594000000E+02  0.51100000000E-03 0.  1.
         11   -1    0    0    0    0 -0.00000000000E+00 -0.00000000000E+00 -0.45593999997E+02  0.45594000000E+02  0.51100000000E-03 0. -1.
    9900012    2    1    2    0    0  0.37744818062E+02  0.62143359433E+01 -0.13779584010E+02  0.50528853461E+02  0.29999980580E+02 0.  0.
        -12    1    1    2    0    0 -0.37744818062E+02 -0.62143359433E+01  0.13779584010E+02  0.40659146539E+02  0.00000000000E+00 0.  1.
         11    1    3    3    0    0  0.21534606868E+02  0.40160226470E+01 -0.48154522822E+01  0.22428916866E+02  0.51100000000E-03 0.  1.
        -11    1    3    3    0    0  0.17851240040E+02  0.61613680049E+01 -0.12410493116E+02  0.22597556645E+02  0.51100000000E-03 0. -1.
        -12    1    3    3    0    0 -0.16410288453E+01 -0.39630547087E+01  0.34463613882E+01  0.55023799499E+01  0.00000000000E+00 0.  1.
</event>
<event>
 7    1  0.4520156E-012  0.5052885E+02  0.7816164E-02  0.1300439E+00
        -11   -1    0    0    0    0  0.00000000000E+00  0.00000000000E+00  0.45593999997E+02  0.45594000000E+02  0.51100000000E-03 0. -1.
         11   -1    0    0    0    0 -0.00000000000E+00 -0.00000000000E+00 -0.45593999997E+02  0.45594000000E+02  0.51100000000E-03 0.  1.
    9900012    2    1    2    0    0 -0.21805838446E+02 -0.15607493840E+02 -0.30562684938E+02  0.50528853859E+02  0.29999981791E+02 0.  0.
         12    1    1    2    0    0  0.21805838446E+02  0.15607493840E+02  0.30562684938E+02  0.40659146141E+02  0.00000000000E+00 0. -1.
         11    1    3    3    0    0  0.11695864063E+01  0.40993242295E+01 -0.65107024354E+01  0.77821358228E+01  0.51100000000E-03 0. -1.
        -11    1    3    3    0    0 -0.61858233586E+01 -0.13377119332E+02 -0.19114584690E+02  0.24136675007E+02  0.51100000000E-03 0.  1.
        -12    1    3    3    0    0 -0.16789601493E+02 -0.63296987370E+01 -0.49373978128E+01  0.18610043030E+02  0.00000000000E+00 0.  1.
</event>
<event>
 7    1  0.4520156E-012  0.5052885E+02  0.7816164E-02  0.1300439E+00
        -11   -1    0    0    0    0  0.00000000000E+00  0.00000000000E+00  0.45593999997E+02  0.45594000000E+02  0.51100000000E-03 0.  1.
         11   -1    0    0    0    0 -0.00000000000E+00 -0.00000000000E+00 -0.45593999997E+02  0.45594000000E+02  0.51100000000E-03 0. -1.
    9900012    2    1    2    0    0 -0.47504710534E+01 -0.37497893391E+02 -0.14983568820E+02  0.50528851969E+02  0.29999976045E+02 0.  0.
         12    1    1    2    0    0  0.47504710534E+01  0.37497893391E+02  0.14983568820E+02  0.40659148031E+02  0.00000000000E+00 0. -1.
         11    1    3    3    0    0 -0.14153518139E+01 -0.72594000221E+01 -0.88878026229E+01  0.11562661682E+02  0.51100000000E-03 0. -1.
        -11    1    3    3    0    0  0.65548982510E+01 -0.27830153653E+01 -0.66998005289E+01  0.97774839807E+01  0.51100000000E-03 0.  1.
        -12    1    3    3    0    0 -0.98900174904E+01 -0.27455478004E+02  0.60403433142E+00  0.29188706307E+02  0.00000000000E+00 0.  1.
</event>
<event>
 7    1  0.4520156E-012  0.5052884E+02  0.7816164E-02  0.1300439E+00
        -11   -1    0    0    0    0  0.00000000000E+00  0.00000000000E+00  0.45593999997E+02  0.45594000000E+02  0.51100000000E-03 0. -1.
         11   -1    0    0    0    0 -0.00000000000E+00 -0.00000000000E+00 -0.45593999997E+02  0.45594000000E+02  0.51100000000E-03 0.  1.
    9900012    2    1    2    0    0 -0.80028692633E+01 -0.38291025859E+02 -0.11086854589E+02  0.50528844544E+02  0.29999953475E+02 0.  0.
         12    1    1    2    0    0  0.80028692633E+01  0.38291025859E+02  0.11086854589E+02  0.40659155456E+02  0.00000000000E+00 0. -1.
         11    1    3    3    0    0 -0.10708708215E+01 -0.24939629473E+02 -0.51668305220E+01  0.25491724549E+02  0.51100000000E-03 0.  1.
        -11    1    3    3    0    0 -0.93465325949E+00 -0.16934994739E+02 -0.61647981588E+01  0.18046394657E+02  0.51100000000E-03 0. -1.
        -12    1    3    3    0    0 -0.59973451823E+01  0.35835983530E+01  0.24477409207E+00  0.69907253377E+01  0.00000000000E+00 0.  1.
</event>
<event>
 7    1  0.4520156E-012  0.5052887E+02  0.7816164E-02  0.1300439E+00
        -11   -1    0    0    0    0  0.00000000000E+00  0.00000000000E+00  0.45593999997E+02  0.45594000000E+02  0.51100000000E-03 0. -1.
         11   -1    0    0    0    0 -0.00000000000E+00 -0.00000000000E+00 -0.45593999997E+02  0.45594000000E+02  0.51100000000E-03 0.  1.
    9900012    2    1    2    0    0 -0.52230011457E+01 -0.16056025140E+01  0.40290283975E+02  0.50528872081E+02  0.30000037176E+02 0.  0.
        -12    1    1    2    0    0  0.52230011457E+01  0.16056025140E+01 -0.40290283975E+02  0.40659127919E+02  0.00000000000E+00 0.  1.
         11    1    3    3    0    0  0.47659635307E+01  0.62643080218E+01  0.27230857002E+02  0.28345644052E+02  0.51100000000E-03 0. -1.
        -11    1    3    3    0    0 -0.64821029189E+01  0.21435875473E+01  0.26615465311E+01  0.73277865705E+01  0.51100000000E-03 0.  1.
        -12    1    3    3    0    0 -0.35068617575E+01 -0.10013498083E+02  0.10397880441E+02  0.14855441458E+02  0.00000000000E+00 0.  1.
</event>
<event>
 7    1  0.4520156E-012  0.5052886E+02  0.7816164E-02  0.1300439E+00
        -11   -1    0    0    0    0  0.00000000000E+00  0.00000000000E+00  0.45593999997E+02  0.45594000000E+02  0.51100000000E-03 0.  1.
         11   -1    0    0    0    0 -0.00000000000E+00 -0.00000000000E+00 -0.45593999997E+02  0.45594000000E+02  0.51100000000E-03 0. -1.
    9900012    2    1    2    0    0  0.34513947859E+02 -0.11587054295E+02 -0.18102306980E+02  0.50528856600E+02  0.29999990121E+02 0.  0.
         12    1    1    2    0    0 -0.34513947859E+02  0.11587054295E+02  0.18102306980E+02  0.40659143400E+02  0.00000000000E+00 0. -1.
         11    1    3    3    0    0  0.16033018276E+02 -0.16907086021E+00 -0.87647298657E+01  0.18273115494E+02  0.51100000000E-03 0. -1.
        -11    1    3    3    0    0  0.17728516335E+02 -0.86621106204E+00 -0.11902064726E+02  0.21370768776E+02  0.51100000000E-03 0.  1.
         12    1    3    3    0    0  0.75241324735E+00 -0.10551772373E+02  0.25644876122E+01  0.10884972330E+02  0.00000000000E+00 0. -1.
</event>
<event>
 7    1  0.4520156E-012  0.5052885E+02  0.7816164E-02  0.1300439E+00
        -11   -1    0    0    0    0  0.00000000000E+00  0.00000000000E+00  0.45593999997E+02  0.45594000000E+02  0.51100000000E-03 0. -1.
         11   -1    0    0    0    0 -0.00000000000E+00 -0.00000000000E+00 -0.45593999997E+02  0.45594000000E+02  0.51100000000E-03 0.  1.
    9900012    2    1    2    0    0 -0.37220459445E+01 -0.78915257385E+01  0.39711920196E+02  0.50528850843E+02  0.29999972624E+02 0.  0.
        -12    1    1    2    0    0  0.37220459445E+01  0.78915257385E+01 -0.39711920196E+02  0.40659149157E+02  0.00000000000E+00 0.  1.
         11    1    3    3    0    0  0.10240276076E+01 -0.49103342395E+01  0.95541616604E+01  0.10790830375E+02  0.51100000000E-03 0. -1.
        -11    1    3    3    0    0  0.42586132369E+01 -0.74005278848E+01  0.63978366533E+00  0.85622966005E+01  0.51100000000E-03 0.  1.
        -12    1    3    3    0    0 -0.90046867890E+01  0.44193363858E+01  0.29517974870E+02  0.31175723868E+02  0.00000000000E+00 0.  1.
</event>
<event>
 7    1  0.4520156E-012  0.5052885E+02  0.7816164E-02  0.1300439E+00
        -11   -1    0    0    0    0  0.00000000000E+00  0.00000000000E+00  0.45593999997E+02  0.45594000000E+02  0.51100000000E-03 0. -1.
         11   -1    0    0    0    0 -0.00000000000E+00 -0.00000000000E+00 -0.45593999997E+02  0.45594000000E+02  0.51100000000E-03 0.  1.
    9900012    2    1    2    0    0  0.26913763095E+01  0.14542131669E+02  0.37874120589E+02  0.50528854530E+02  0.29999983830E+02 0.  0.
        -12    1    1    2    0    0 -0.26913763095E+01 -0.14542131669E+02 -0.37874120589E+02  0.40659145470E+02  0.00000000000E+00 0.  1.
         11    1    3    3    0    0 -0.24821888634E+01 -0.40834627104E+01  0.21209002364E+01  0.52282068948E+01  0.51100000000E-03 0. -1.
        -11    1    3    3    0    0 -0.11073980424E+01  0.16843266337E+02  0.12114832530E+02  0.20777177836E+02  0.51100000000E-03 0.  1.
        -12    1    3    3    0    0  0.62809632154E+01  0.17823280431E+01  0.23638387823E+02  0.24523469800E+02  0.00000000000E+00 0.  1.
</event>
<event>
 7    1  0.4520156E-012  0.5052887E+02  0.7816164E-02  0.1300439E+00
        -11   -1    0    0    0    0  0.00000000000E+00  0.00000000000E+00  0.45593999997E+02  0.45594000000E+02  0.51100000000E-03 0. -1.
         11   -1    0    0    0    0 -0.00000000000E+00 -0.00000000000E+00 -0.45593999997E+02  0.45594000000E+02  0.51100000000E-03 0.  1.
    9900012    2    1    2    0    0 -0.61998663510E+00  0.20925088407E+02  0.34855714139E+02  0.50528874131E+02  0.30000043408E+02 0.  0.
        -12    1    1    2    0    0  0.61998663510E+00 -0.20925088407E+02 -0.34855714139E+02  0.40659125869E+02  0.00000000000E+00 0.  1.
         11    1    3    3    0    0 -0.32559328553E+01  0.10928868537E+02  0.11693126779E+01  0.11463357216E+02  0.51100000000E-03 0.  1.
        -11    1    3    3    0    0  0.97484049808E+01  0.72124719485E+01  0.19848932814E+02  0.23260079222E+02  0.51100000000E-03 0. -1.
         12    1    3    3    0    0 -0.71124587607E+01  0.27837479219E+01  0.13837468647E+02  0.15805437693E+02  0.00000000000E+00 0. -1.
</event>
<event>
 7    1  0.4520156E-012  0.5052886E+02  0.7816164E-02  0.1300439E+00
        -11   -1    0    0    0    0  0.00000000000E+00  0.00000000000E+00  0.45593999997E+02  0.45594000000E+02  0.51100000000E-03 0.  1.
         11   -1    0    0    0    0 -0.00000000000E+00 -0.00000000000E+00 -0.45593999997E+02  0.45594000000E+02  0.51100000000E-03 0. -1.
    9900012    2    1    2    0    0  0.16036727017E+01 -0.40613034665E+02 -0.10840829891E+01  0.50528860969E+02  0.30000003402E+02 0.  0.
        -12    1    1    2    0    0 -0.16036727017E+01  0.40613034665E+02  0.10840829891E+01  0.40659139031E+02  0.00000000000E+00 0.  1.
         11    1    3    3    0    0  0.42430604493E+01 -0.20989240330E+02 -0.80814817596E+01  0.22888034413E+02  0.51100000000E-03 0. -1.
        -11    1    3    3    0    0  0.76143360625E+01 -0.78421941589E+01  0.45135013775E+01  0.11825811509E+02  0.51100000000E-03 0.  1.
         12    1    3    3    0    0 -0.10253723810E+02 -0.11781600176E+02  0.24838973931E+01  0.15815015047E+02  0.00000000000E+00 0. -1.
</event>
<event>
 7    1  0.4520156E-012  0.5052886E+02  0.7816164E-02  0.1300439E+00
        -11   -1    0    0    0    0  0.00000000000E+00  0.00000000000E+00  0.45593999997E+02  0.45594000000E+02  0.51100000000E-03 0. -1.
         11   -1    0    0    0    0 -0.00000000000E+00 -0.00000000000E+00 -0.45593999997E+02  0.45594000000E+02  0.51100000000E-03 0.  1.
    9900012    2    1    2    0    0 -0.26018697992E+02  0.12984509879E+02  0.28418221399E+02  0.50528862657E+02  0.30000008533E+02 0.  0.
        -12    1    1    2    0    0  0.26018697992E+02 -0.12984509879E+02 -0.28418221399E+02  0.40659137343E+02  0.00000000000E+00 0.  1.
         11    1    3    3    0    0 -0.30812358291E+01  0.35040248180E+01  0.12602151340E+02  0.13438244782E+02  0.51100000000E-03 0. -1.
        -11    1    3    3    0    0 -0.18368809977E+02  0.16709485951E+02  0.10115661062E+02  0.26813181454E+02  0.51100000000E-03 0.  1.
         12    1    3    3    0    0 -0.45686521860E+01 -0.72290008896E+01  0.57004089960E+01  0.10277436421E+02  0.00000000000E+00 0. -1.
</event>
<event>
 7    1  0.4520156E-012  0.5052886E+02  0.7816164E-02  0.1300439E+00
        -11   -1    0    0    0    0  0.00000000000E+00  0.00000000000E+00  0.45593999997E+02  0.45594000000E+02  0.51100000000E-03 0. -1.
         11   -1    0    0    0    0 -0.00000000000E+00 -0.00000000000E+00 -0.45593999997E+02  0.45594000000E+02  0.51100000000E-03 0.  1.
    9900012    2    1    2    0    0  0.69792116793E+01  0.16916450345E+02  0.36308263156E+02  0.50528860052E+02  0.30000000613E+02 0.  0.
        -12    1    1    2    0    0 -0.69792116793E+01 -0.16916450345E+02 -0.36308263156E+02  0.40659139948E+02  0.00000000000E+00 0.  1.
         11    1    3    3    0    0  0.48079840199E+01 -0.12480370476E+01  0.10390767593E+02  0.11517046420E+02  0.51100000000E-03 0. -1.
        -11    1    3    3    0    0 -0.25839104042E+01 -0.43956018456E+01  0.92503168906E+01  0.10562493617E+02  0.51100000000E-03 0.  1.
         12    1    3    3    0    0  0.47551380636E+01  0.22560089238E+02  0.16667178673E+02  0.28449320015E+02  0.00000000000E+00 0. -1.
</event>
<event>
 7    1  0.4520156E-012  0.5052886E+02  0.7816164E-02  0.1300439E+00
        -11   -1    0    0    0    0  0.00000000000E+00  0.00000000000E+00  0.45593999997E+02  0.45594000000E+02  0.51100000000E-03 0. -1.
         11   -1    0    0    0    0 -0.00000000000E+00 -0.00000000000E+00 -0.45593999997E+02  0.45594000000E+02  0.51100000000E-03 0.  1.
    9900012    2    1    2    0    0 -0.25932806381E+02  0.13065249289E+02 -0.28459703046E+02  0.50528857323E+02  0.29999992319E+02 0.  0.
         12    1    1    2    0    0  0.25932806381E+02 -0.13065249289E+02  0.28459703046E+02  0.40659142677E+02  0.00000000000E+00 0. -1.
         11    1    3    3    0    0 -0.62332016055E+01  0.27249580307E+01 -0.55003945636E+01  0.87482877834E+01  0.51100000000E-03 0. -1.
        -11    1    3    3    0    0 -0.21229352811E+02  0.17391572196E+02 -0.16059418229E+02  0.31797124372E+02  0.51100000000E-03 0.  1.
        -12    1    3    3    0    0  0.15297480357E+01 -0.70512809374E+01 -0.68998902533E+01  0.99834451678E+01  0.00000000000E+00 0.  1.
</event>
<event>
 7    1  0.4520156E-012  0.5052885E+02  0.7816164E-02  0.1300439E+00
        -11   -1    0    0    0    0  0.00000000000E+00  0.00000000000E+00  0.45593999997E+02  0.45594000000E+02  0.51100000000E-03 0.  1.
         11   -1    0    0    0    0 -0.00000000000E+00 -0.00000000000E+00 -0.45593999997E+02  0.45594000000E+02  0.51100000000E-03 0. -1.
    9900012    2    1    2    0    0  0.86903933475E+01 -0.31497389742E+02  0.24198308103E+02  0.50528848359E+02  0.29999965073E+02 0.  0.
        -12    1    1    2    0    0 -0.86903933475E+01  0.31497389742E+02 -0.24198308103E+02  0.40659151641E+02  0.00000000000E+00 0.  1.
         11    1    3    3    0    0 -0.80005132256E+01 -0.69714554471E+01  0.41482549132E+01  0.11393744863E+02  0.51100000000E-03 0. -1.
        -11    1    3    3    0    0 -0.19112906062E+01 -0.62370997073E+01  0.82125794280E+01  0.10488131657E+02  0.51100000000E-03 0.  1.
         12    1    3    3    0    0  0.18602197179E+02 -0.18288834588E+02  0.11837473762E+02  0.28646971839E+02  0.00000000000E+00 0. -1.
</event>
<event>
 7    1  0.4520156E-012  0.5052886E+02  0.7816164E-02  0.1300439E+00
        -11   -1    0    0    0    0  0.00000000000E+00  0.00000000000E+00  0.45593999997E+02  0.45594000000E+02  0.51100000000E-03 0. -1.
         11   -1    0    0    0    0 -0.00000000000E+00 -0.00000000000E+00 -0.45593999997E+02  0.45594000000E+02  0.51100000000E-03 0.  1.
    9900012    2    1    2    0    0  0.34823357934E+02  0.76173384603E+01 -0.19556988811E+02  0.50528856941E+02  0.29999991156E+02 0.  0.
         12    1    1    2    0    0 -0.34823357934E+02 -0.76173384603E+01  0.19556988811E+02  0.40659143059E+02  0.00000000000E+00 0. -1.
         11    1    3    3    0    0  0.90288877843E+01  0.41587473191E+01 -0.10259324953E+02  0.14285298129E+02  0.51100000000E-03 0. -1.
        -11    1    3    3    0    0  0.87060948792E+01  0.10960931025E+02 -0.10565791456E+02  0.17537789095E+02  0.51100000000E-03 0.  1.
         12    1    3    3    0    0  0.17088375270E+02 -0.75023398836E+01  0.12681275980E+01  0.18705769717E+02  0.00000000000E+00 0. -1.
</event>
<event>
 7    1  0.4520156E-012  0.5052886E+02  0.7816164E-02  0.1300439E+00
        -11   -1    0    0    0    0  0.00000000000E+00  0.00000000000E+00  0.45593999997E+02  0.45594000000E+02  0.51100000000E-03 0. -1.
         11   -1    0    0    0    0 -0.00000000000E+00 -0.00000000000E+00 -0.45593999997E+02  0.45594000000E+02  0.51100000000E-03 0.  1.
    9900012    2    1    2    0    0 -0.78294023551E+00 -0.27916252485E+02 -0.29550557184E+02  0.50528861076E+02  0.30000003726E+02 0.  0.
         12    1    1    2    0    0  0.78294023551E+00  0.27916252485E+02  0.29550557184E+02  0.40659138924E+02  0.00000000000E+00 0. -1.
         11    1    3    3    0    0  0.11737281924E+02 -0.15782708231E+02 -0.74642316081E+01  0.21037405254E+02  0.51100000000E-03 0. -1.
        -11    1    3    3    0    0 -0.60494091269E+01 -0.11490822110E+02 -0.13656238689E+02  0.18844818888E+02  0.51100000000E-03 0.  1.
        -12    1    3    3    0    0 -0.64708130330E+01 -0.64272214376E+00 -0.84300868868E+01  0.10646636933E+02  0.00000000000E+00 0.  1.
</event>
<event>
 7    1  0.4520156E-012  0.5052885E+02  0.7816164E-02  0.1300439E+00
        -11   -1    0    0    0    0  0.00000000000E+00  0.00000000000E+00  0.45593999997E+02  0.45594000000E+02  0.51100000000E-03 0. -1.
         11   -1    0    0    0    0 -0.00000000000E+00 -0.00000000000E+00 -0.45593999997E+02  0.45594000000E+02  0.51100000000E-03 0.  1.
    9900012    2    1    2    0    0 -0.26743990787E+02 -0.20592933464E+02 -0.22668403846E+02  0.50528849925E+02  0.29999969833E+02 0.  0.
         12    1    1    2    0    0  0.26743990787E+02  0.20592933464E+02  0.22668403846E+02  0.40659150075E+02  0.00000000000E+00 0. -1.
         11    1    3    3    0    0 -0.18346879257E+01 -0.79990436520E-01 -0.38031887353E+01  0.42233544810E+01  0.51100000000E-03 0. -1.
        -11    1    3    3    0    0 -0.38848854588E+01 -0.20719703339E+02 -0.11591403544E+02  0.24057412119E+02  0.51100000000E-03 0.  1.
         12    1    3    3    0    0 -0.21024417402E+02  0.20676031161E+00 -0.72738115661E+01  0.22248083325E+02  0.00000000000E+00 0. -1.
</event>
<event>
 7    1  0.4520156E-012  0.5052887E+02  0.7816164E-02  0.1300439E+00
        -11   -1    0    0    0    0  0.00000000000E+00  0.00000000000E+00  0.45593999997E+02  0.45594000000E+02  0.51100000000E-03 0. -1.
         11   -1    0    0    0    0 -0.00000000000E+00 -0.00000000000E+00 -0.45593999997E+02  0.45594000000E+02  0.51100000000E-03 0.  1.
    9900012    2    1    2    0    0 -0.29392357254E+02 -0.26853639230E+02 -0.82544521211E+01  0.50528873292E+02  0.30000040858E+02 0.  0.
         12    1    1    2    0    0  0.29392357254E+02  0.26853639230E+02  0.82544521211E+01  0.40659126708E+02  0.00000000000E+00 0. -1.
         11    1    3    3    0    0 -0.17109988682E+02 -0.14447174186E+02  0.85206257257E+01  0.23959833423E+02  0.51100000000E-03 0. -1.
        -11    1    3    3    0    0 -0.37622015103E+01  0.49769878450E+00 -0.78394466956E+01  0.87096951174E+01  0.51100000000E-03 0.  1.
        -12    1    3    3    0    0 -0.85201670615E+01 -0.12904163829E+02 -0.89356311511E+01  0.17859344751E+02  0.00000000000E+00 0.  1.
</event>
<event>
 7    1  0.4520156E-012  0.5052885E+02  0.7816164E-02  0.1300439E+00
        -11   -1    0    0    0    0  0.00000000000E+00  0.00000000000E+00  0.45593999997E+02  0.45594000000E+02  0.51100000000E-03 0. -1.
         11   -1    0    0    0    0 -0.00000000000E+00 -0.00000000000E+00 -0.45593999997E+02  0.45594000000E+02  0.51100000000E-03 0.  1.
    9900012    2    1    2    0    0  0.21176517150E+02  0.29253039343E+02 -0.18681034516E+02  0.50528852936E+02  0.29999978984E+02 0.  0.
         12    1    1    2    0    0 -0.21176517150E+02 -0.29253039343E+02  0.18681034516E+02  0.40659147064E+02  0.00000000000E+00 0. -1.
         11    1    3    3    0    0  0.24710080727E+01  0.80004142801E+01  0.51496305434E+01  0.98301172192E+01  0.51100000000E-03 0. -1.
        -11    1    3    3    0    0  0.11310227287E+02  0.80694260537E+01 -0.18415909265E+01  0.14015289349E+02  0.51100000000E-03 0.  1.
        -12    1    3    3    0    0  0.73952817902E+01  0.13183199009E+02 -0.21989074132E+02  0.26683446368E+02  0.00000000000E+00 0.  1.
</event>
<event>
 7    1  0.4520156E-012  0.5052886E+02  0.7816164E-02  0.1300439E+00
        -11   -1    0    0    0    0  0.00000000000E+00  0.00000000000E+00  0.45593999997E+02  0.45594000000E+02  0.51100000000E-03 0. -1.
         11   -1    0    0    0    0 -0.00000000000E+00 -0.00000000000E+00 -0.45593999997E+02  0.45594000000E+02  0.51100000000E-03 0.  1.
    9900012    2    1    2    0    0 -0.20103928368E+02 -0.15786142605E+02 -0.31619540238E+02  0.50528861310E+02  0.30000004437E+02 0.  0.
         12    1    1    2    0    0  0.20103928368E+02  0.15786142605E+02  0.31619540238E+02  0.40659138690E+02  0.00000000000E+00 0. -1.
         11    1    3    3    0    0 -0.77174716667E+01 -0.76465940328E+01 -0.31290165533E+01  0.11305773484E+02  0.51100000000E-03 0. -1.
        -11    1    3    3    0    0 -0.14677439201E+02 -0.12850337196E+02 -0.14566413445E+02  0.24346227397E+02  0.51100000000E-03 0.  1.
         12    1    3    3    0    0  0.22909824990E+01  0.47107886232E+01 -0.13924110239E+02  0.14876860429E+02  0.00000000000E+00 0. -1.
</event>
<event>
 7    1  0.4520156E-012  0.5052885E+02  0.7816164E-02  0.1300439E+00
        -11   -1    0    0    0    0  0.00000000000E+00  0.00000000000E+00  0.45593999997E+02  0.45594000000E+02  0.51100000000E-03 0. -1.
         11   -1    0    0    0    0 -0.00000000000E+00 -0.00000000000E+00 -0.45593999997E+02  0.45594000000E+02  0.51100000000E-03 0.  1.
    9900012    2    1    2    0    0 -0.10009731446E+02  0.25827744248E+02 -0.29764056752E+02  0.50528853785E+02  0.29999981565E+02 0.  0.
         12    1    1    2    0    0  0.10009731446E+02 -0.25827744248E+02  0.29764056752E+02  0.40659146215E+02  0.00000000000E+00 0. -1.
         11    1    3    3    0    0  0.22912219278E+00  0.11974039346E+02 -0.49826294667E+01  0.12971380494E+02  0.51100000000E-03 0. -1.
        -11    1    3    3    0    0 -0.39714567221E+01  0.16966251075E+02 -0.76085447603E+01  0.19013576667E+02  0.51100000000E-03 0.  1.
        -12    1    3    3    0    0 -0.62673969168E+01 -0.31125461734E+01 -0.17172882525E+02  0.18543896625E+02  0.00000000000E+00 0.  1.
</event>
<event>
 7    1  0.4520156E-012  0.5052886E+02  0.7816164E-02  0.1300439E+00
        -11   -1    0    0    0    0  0.00000000000E+00  0.00000000000E+00  0.45593999997E+02  0.45594000000E+02  0.51100000000E-03 0. -1.
         11   -1    0    0    0    0 -0.00000000000E+00 -0.00000000000E+00 -0.45593999997E+02  0.45594000000E+02  0.51100000000E-03 0.  1.
    9900012    2    1    2    0    0 -0.54111076706E+01 -0.23289807679E+02  0.32885718101E+02  0.50528859786E+02  0.29999999806E+02 0.  0.
        -12    1    1    2    0    0  0.54111076706E+01  0.23289807679E+02 -0.32885718101E+02  0.40659140214E+02  0.00000000000E+00 0.  1.
         11    1    3    3    0    0 -0.19246821714E+01 -0.21219012191E+02  0.25269454606E+02  0.33052930524E+02  0.51100000000E-03 0. -1.
        -11    1    3    3    0    0 -0.45954649568E+01 -0.51184958949E+01 -0.21325946065E+01  0.72017538428E+01  0.51100000000E-03 0.  1.
         12    1    3    3    0    0  0.11090394576E+01  0.30477004071E+01  0.97488581006E+01  0.10274175420E+02  0.00000000000E+00 0. -1.
</event>
<event>
 7    1  0.4520156E-012  0.5052887E+02  0.7816164E-02  0.1300439E+00
        -11   -1    0    0    0    0  0.00000000000E+00  0.00000000000E+00  0.45593999997E+02  0.45594000000E+02  0.51100000000E-03 0. -1.
         11   -1    0    0    0    0 -0.00000000000E+00 -0.00000000000E+00 -0.45593999997E+02  0.45594000000E+02  0.51100000000E-03 0.  1.
    9900012    2    1    2    0    0 -0.92586393197E+01 -0.22076285307E+01 -0.39529343074E+02  0.50528868311E+02  0.30000025719E+02 0.  0.
         12    1    1    2    0    0  0.92586393197E+01  0.22076285307E+01  0.39529343074E+02  0.40659131689E+02  0.00000000000E+00 0. -1.
         11    1    3    3    0    0 -0.11490311949E+02  0.23312497377E+01 -0.21180780654E+02  0.24209243346E+02  0.51100000000E-03 0. -1.
        -11    1    3    3    0    0 -0.37429062364E+01  0.57870309763E+01 -0.58307067262E+01  0.90275254529E+01  0.51100000000E-03 0.  1.
         12    1    3    3    0    0  0.59745788660E+01 -0.10325909245E+02 -0.12517855694E+02  0.17292099512E+02  0.00000000000E+00 0. -1.
</event>
<event>
 7    1  0.4520156E-012  0.5052886E+02  0.7816164E-02  0.1300439E+00
        -11   -1    0    0    0    0  0.00000000000E+00  0.00000000000E+00  0.45593999997E+02  0.45594000000E+02  0.51100000000E-03 0. -1.
         11   -1    0    0    0    0 -0.00000000000E+00 -0.00000000000E+00 -0.45593999997E+02  0.45594000000E+02  0.51100000000E-03 0.  1.
    9900012    2    1    2    0    0 -0.18212283312E+02 -0.18514475621E+02 -0.31284060234E+02  0.50528862089E+02  0.30000006806E+02 0.  0.
         12    1    1    2    0    0  0.18212283312E+02  0.18514475621E+02  0.31284060234E+02  0.40659137911E+02  0.00000000000E+00 0. -1.
         11    1    3    3    0    0 -0.57409425524E+01  0.48584793632E+00 -0.20876115309E+01  0.61280169527E+01  0.51100000000E-03 0. -1.
        -11    1    3    3    0    0 -0.19564002999E+02 -0.13912013798E+02 -0.25187566893E+02  0.34795227654E+02  0.51100000000E-03 0.  1.
        -12    1    3    3    0    0  0.70926622395E+01 -0.50883097596E+01 -0.40088818101E+01  0.96056174825E+01  0.00000000000E+00 0.  1.
</event>
<event>
 7    1  0.4520156E-012  0.5052886E+02  0.7816164E-02  0.1300439E+00
        -11   -1    0    0    0    0  0.00000000000E+00  0.00000000000E+00  0.45593999997E+02  0.45594000000E+02  0.51100000000E-03 0. -1.
         11   -1    0    0    0    0 -0.00000000000E+00 -0.00000000000E+00 -0.45593999997E+02  0.45594000000E+02  0.51100000000E-03 0.  1.
    9900012    2    1    2    0    0 -0.19615308932E+02 -0.38062527885E+01 -0.35410698868E+02  0.50528862047E+02  0.30000006678E+02 0.  0.
         12    1    1    2    0    0  0.19615308932E+02  0.38062527885E+01  0.35410698868E+02  0.40659137953E+02  0.00000000000E+00 0. -1.
         11    1    3    3    0    0 -0.56345502832E+01  0.17586739978E+00 -0.12683550360E+02  0.13879896838E+02  0.51100000000E-03 0. -1.
        -11    1    3    3    0    0 -0.85593647219E+01 -0.59240231669E+00 -0.27411415655E+02  0.28722802325E+02  0.51100000000E-03 0.  1.
         12    1    3    3    0    0 -0.54213939267E+01 -0.33897178716E+01  0.46842671469E+01  0.79261628839E+01  0.00000000000E+00 0. -1.
</event>
<event>
 7    1  0.4520156E-012  0.5052885E+02  0.7816164E-02  0.1300439E+00
        -11   -1    0    0    0    0  0.00000000000E+00  0.00000000000E+00  0.45593999997E+02  0.45594000000E+02  0.51100000000E-03 0. -1.
         11   -1    0    0    0    0 -0.00000000000E+00 -0.00000000000E+00 -0.45593999997E+02  0.45594000000E+02  0.51100000000E-03 0.  1.
    9900012    2    1    2    0    0  0.18800074505E+02 -0.33626848372E+01 -0.35894507587E+02  0.50528854342E+02  0.29999983258E+02 0.  0.
         12    1    1    2    0    0 -0.18800074505E+02  0.33626848372E+01  0.35894507587E+02  0.40659145658E+02  0.00000000000E+00 0. -1.
         11    1    3    3    0    0  0.57661809934E+01 -0.10028906133E+02 -0.22920783314E+02  0.25674697845E+02  0.51100000000E-03 0. -1.
        -11    1    3    3    0    0 -0.15462231004E+01  0.97391676622E+00  0.23318292718E+01  0.29625576379E+01  0.51100000000E-03 0.  1.
         12    1    3    3    0    0  0.14580116612E+02  0.56923045291E+01 -0.15305553545E+02  0.21891598859E+02  0.00000000000E+00 0. -1.
</event>
<event>
 7    1  0.4520156E-012  0.5052888E+02  0.7816164E-02  0.1300439E+00
        -11   -1    0    0    0    0  0.00000000000E+00  0.00000000000E+00  0.45593999997E+02  0.45594000000E+02  0.51100000000E-03 0. -1.
         11   -1    0    0    0    0 -0.00000000000E+00 -0.00000000000E+00 -0.45593999997E+02  0.45594000000E+02  0.51100000000E-03 0.  1.
    9900012    2    1    2    0    0 -0.14093044686E+02  0.37009103773E+02  0.92128450472E+01  0.50528878214E+02  0.30000055818E+02 0.  0.
        -12    1    1    2    0    0  0.14093044686E+02 -0.37009103773E+02 -0.92128450472E+01  0.40659121786E+02  0.00000000000E+00 0.  1.
         11    1    3    3    0    0 -0.17749318290E+02  0.35445280536E+02  0.24602126608E+01  0.39717236292E+02  0.51100000000E-03 0. -1.
        -11    1    3    3    0    0 -0.19793947547E+01 -0.10385618964E+01  0.17253047559E+01  0.28237016786E+01  0.51100000000E-03 0.  1.
        -12    1    3    3    0    0  0.56356683587E+01  0.26023851328E+01  0.50273276306E+01  0.79879402435E+01  0.00000000000E+00 0.  1.
</event>
<event>
 7    1  0.5619458E-012  0.5052887E+02  0.7816164E-02  0.1300439E+00
        -11   -1    0    0    0    0  0.00000000000E+00  0.00000000000E+00  0.45593999997E+02  0.45594000000E+02  0.51100000000E-03 0. -1.
         11   -1    0    0    0    0 -0.00000000000E+00 -0.00000000000E+00 -0.45593999997E+02  0.45594000000E+02  0.51100000000E-03 0.  1.
    9900012    2    1    2    0    0 -0.28473736469E+02 -0.25098219851E+01  0.28915606404E+02  0.50528866111E+02  0.30000019031E+02 0.  0.
        -12    1    1    2    0    0  0.28473736469E+02  0.25098219851E+01 -0.28915606404E+02  0.40659133889E+02  0.00000000000E+00 0.  1.
         11    1    3    3    0    0 -0.10249510396E+02  0.90387712825E+01  0.59312933858E+01  0.14897385379E+02  0.51100000000E-03 0. -1.
        -11    1    3    3    0    0 -0.17841719350E+01  0.33246469971E+01  0.80803303751E+01  0.89178633304E+01  0.51100000000E-03 0.  1.
         12    1    3    3    0    0 -0.16440054138E+02 -0.14873240265E+02  0.14903982643E+02  0.26713617401E+02  0.00000000000E+00 0. -1.
</event>
<event>
 7    1  0.4520156E-012  0.5052886E+02  0.7816164E-02  0.1300439E+00
        -11   -1    0    0    0    0  0.00000000000E+00  0.00000000000E+00  0.45593999997E+02  0.45594000000E+02  0.51100000000E-03 0.  1.
         11   -1    0    0    0    0 -0.00000000000E+00 -0.00000000000E+00 -0.45593999997E+02  0.45594000000E+02  0.51100000000E-03 0. -1.
    9900012    2    1    2    0    0 -0.19734696115E+02 -0.31561405606E+02  0.16358017014E+02  0.50528864800E+02  0.30000015047E+02 0.  0.
        -12    1    1    2    0    0  0.19734696115E+02  0.31561405606E+02 -0.16358017014E+02  0.40659135200E+02  0.00000000000E+00 0.  1.
         11    1    3    3    0    0 -0.62651072674E+01 -0.11259136557E+02  0.60052398821E+01  0.14215577068E+02  0.51100000000E-03 0. -1.
        -11    1    3    3    0    0 -0.49052521883E+01 -0.11368762548E+02  0.17939271046E+02  0.21797424316E+02  0.51100000000E-03 0.  1.
         12    1    3    3    0    0 -0.85643366589E+01 -0.89335065009E+01 -0.75864939136E+01  0.14515863416E+02  0.00000000000E+00 0. -1.
</event>
<event>
 7    1  0.4520156E-012  0.5052888E+02  0.7816164E-02  0.1300439E+00
        -11   -1    0    0    0    0  0.00000000000E+00  0.00000000000E+00  0.45593999997E+02  0.45594000000E+02  0.51100000000E-03 0.  1.
         11   -1    0    0    0    0 -0.00000000000E+00 -0.00000000000E+00 -0.45593999997E+02  0.45594000000E+02  0.51100000000E-03 0. -1.
    9900012    2    1    2    0    0  0.11312291366E+02  0.39027558671E+02  0.14304281362E+01  0.50528875606E+02  0.30000047893E+02 0.  0.
        -12    1    1    2    0    0 -0.11312291366E+02 -0.39027558671E+02 -0.14304281362E+01  0.40659124394E+02  0.00000000000E+00 0.  1.
         11    1    3    3    0    0 -0.54093518831E+01  0.53472222526E+01 -0.48444628649E+01  0.90179096427E+01  0.51100000000E-03 0. -1.
        -11    1    3    3    0    0 -0.47759157295E+00 -0.80877872630E+00  0.26377218285E+01  0.27999631149E+01  0.51100000000E-03 0.  1.
         12    1    3    3    0    0  0.17199234822E+02  0.34489115145E+02  0.36371691725E+01  0.38711002849E+02  0.00000000000E+00 0. -1.
</event>
<event>
 7    1  0.4520156E-012  0.5052885E+02  0.7816164E-02  0.1300439E+00
        -11   -1    0    0    0    0  0.00000000000E+00  0.00000000000E+00  0.45593999997E+02  0.45594000000E+02  0.51100000000E-03 0. -1.
         11   -1    0    0    0    0 -0.00000000000E+00 -0.00000000000E+00 -0.45593999997E+02  0.45594000000E+02  0.51100000000E-03 0.  1.
    9900012    2    1    2    0    0 -0.31412390840E+02 -0.21815625528E+02 -0.13802414605E+02  0.50528850176E+02  0.29999970596E+02 0.  0.
         12    1    1    2    0    0  0.31412390840E+02  0.21815625528E+02  0.13802414605E+02  0.40659149824E+02  0.00000000000E+00 0. -1.
         11    1    3    3    0    0  0.29137467190E+01 -0.25045750192E+01  0.78755610858E+00  0.39221245333E+01  0.51100000000E-03 0. -1.
        -11    1    3    3    0    0 -0.18619888751E+02 -0.20607957125E+02 -0.13300549308E+02  0.30794362570E+02  0.51100000000E-03 0.  1.
         12    1    3    3    0    0 -0.15706248808E+02  0.12969066160E+01 -0.12894214056E+01  0.15812363073E+02  0.00000000000E+00 0. -1.
</event>
<event>
 7    1  0.4520156E-012  0.5052887E+02  0.7816164E-02  0.1300439E+00
        -11   -1    0    0    0    0  0.00000000000E+00  0.00000000000E+00  0.45593999997E+02  0.45594000000E+02  0.51100000000E-03 0. -1.
         11   -1    0    0    0    0 -0.00000000000E+00 -0.00000000000E+00 -0.45593999997E+02  0.45594000000E+02  0.51100000000E-03 0.  1.
    9900012    2    1    2    0    0  0.34454238951E+02  0.15491806066E+02 -0.15035754570E+02  0.50528873688E+02  0.30000042063E+02 0.  0.
         12    1    1    2    0    0 -0.34454238951E+02 -0.15491806066E+02  0.15035754570E+02  0.40659126312E+02  0.00000000000E+00 0. -1.
         11    1    3    3    0    0  0.87467374255E+01  0.88175589579E+01 -0.65217846604E+01  0.14028130203E+02  0.51100000000E-03 0. -1.
        -11    1    3    3    0    0  0.25487950183E+01  0.41611030740E+01 -0.11993003448E+02  0.12947712802E+02  0.51100000000E-03 0.  1.
         12    1    3    3    0    0  0.23158706508E+02  0.25131440342E+01  0.34790335378E+01  0.23553030684E+02  0.00000000000E+00 0. -1.
</event>
<event>
 7    1  0.4520156E-012  0.5052894E+02  0.7816164E-02  0.1300439E+00
        -11   -1    0    0    0    0  0.00000000000E+00  0.00000000000E+00  0.45593999997E+02  0.45594000000E+02  0.51100000000E-03 0. -1.
         11   -1    0    0    0    0 -0.00000000000E+00 -0.00000000000E+00 -0.45593999997E+02  0.45594000000E+02  0.51100000000E-03 0.  1.
    9900012    2    1    2    0    0  0.20471157530E+02 -0.55960124724E+01 -0.34681054844E+02  0.50528939371E+02  0.30000241710E+02 0.  0.
         12    1    1    2    0    0 -0.20471157530E+02  0.55960124724E+01  0.34681054844E+02  0.40659060629E+02  0.00000000000E+00 0. -1.
         11    1    3    3    0    0  0.12514188891E+01 -0.12544528096E+01 -0.11682652932E+02  0.11816263406E+02  0.51100000000E-03 0. -1.
        -11    1    3    3    0    0  0.13132414714E+02  0.76571518233E+01 -0.19657156909E+02  0.24849468973E+02  0.51100000000E-03 0.  1.
         12    1    3    3    0    0  0.60873239271E+01 -0.11998711486E+02 -0.33412450029E+01  0.13863206991E+02  0.00000000000E+00 0. -1.
</event>
<event>
 7    1  0.4520156E-012  0.5052884E+02  0.7816164E-02  0.1300439E+00
        -11   -1    0    0    0    0  0.00000000000E+00  0.00000000000E+00  0.45593999997E+02  0.45594000000E+02  0.51100000000E-03 0. -1.
         11   -1    0    0    0    0 -0.00000000000E+00 -0.00000000000E+00 -0.45593999997E+02  0.45594000000E+02  0.51100000000E-03 0.  1.
    9900012    2    1    2    0    0 -0.35751915816E+01  0.15632187830E+02  0.37363354900E+02  0.50528836450E+02  0.29999928873E+02 0.  0.
        -12    1    1    2    0    0  0.35751915816E+01 -0.15632187830E+02 -0.37363354900E+02  0.40659163550E+02  0.00000000000E+00 0.  1.
         11    1    3    3    0    0 -0.38117045923E+01  0.16755003606E+02  0.13633868620E+02  0.21934940427E+02  0.51100000000E-03 0. -1.
        -11    1    3    3    0    0 -0.75051260990E+00  0.71461424311E+01  0.14367181310E+02  0.16063826439E+02  0.51100000000E-03 0.  1.
        -12    1    3    3    0    0  0.98702562059E+00 -0.82689582071E+01  0.93623049710E+01  0.12530069584E+02  0.00000000000E+00 0.  1.
</event>
<event>
 7    1  0.5826394E-012  0.5052886E+02  0.7816164E-02  0.1300439E+00
        -11   -1    0    0    0    0  0.00000000000E+00  0.00000000000E+00  0.45593999997E+02  0.45594000000E+02  0.51100000000E-03 0. -1.
         11   -1    0    0    0    0 -0.00000000000E+00 -0.00000000000E+00 -0.45593999997E+02  0.45594000000E+02  0.51100000000E-03 0.  1.
    9900012    2    1    2    0    0 -0.23682817757E+01  0.38303724973E+02  0.13430629301E+02  0.50528857008E+02  0.29999991362E+02 0.  0.
        -12    1    1    2    0    0  0.23682817757E+01 -0.38303724973E+02 -0.13430629301E+02  0.40659142992E+02  0.00000000000E+00 0.  1.
         11    1    3    3    0    0  0.67744744380E+01  0.13638291862E+02  0.12005557606E+02  0.19391490982E+02  0.51100000000E-03 0. -1.
        -11    1    3    3    0    0  0.27637671635E+01 -0.89639247213E+00  0.84932097818E-01  0.29067408073E+01  0.51100000000E-03 0.  1.
         12    1    3    3    0    0 -0.11906523377E+02  0.25561825584E+02  0.13401395971E+01  0.28230625219E+02  0.00000000000E+00 0. -1.
</event>
<event>
 7    1  0.4520156E-012  0.5052885E+02  0.7816164E-02  0.1300439E+00
        -11   -1    0    0    0    0  0.00000000000E+00  0.00000000000E+00  0.45593999997E+02  0.45594000000E+02  0.51100000000E-03 0. -1.
         11   -1    0    0    0    0 -0.00000000000E+00 -0.00000000000E+00 -0.45593999997E+02  0.45594000000E+02  0.51100000000E-03 0.  1.
    9900012    2    1    2    0    0 -0.18233571135E+01 -0.25402351461E+02  0.31694825809E+02  0.50528854978E+02  0.29999985191E+02 0.  0.
        -12    1    1    2    0    0  0.18233571135E+01  0.25402351461E+02 -0.31694825809E+02  0.40659145022E+02  0.00000000000E+00 0.  1.
         11    1    3    3    0    0 -0.55101753042E+01 -0.70637753377E+01  0.19748769174E+02  0.21685775016E+02  0.51100000000E-03 0.  1.
        -11    1    3    3    0    0  0.17497585261E+01 -0.16830080949E+02  0.16522502936E+02  0.23649659261E+02  0.51100000000E-03 0. -1.
        -12    1    3    3    0    0  0.19370596646E+01 -0.15084951741E+01 -0.45764463007E+01  0.51934207009E+01  0.00000000000E+00 0.  1.
</event>
<event>
 7    1  0.4552160E-012  0.5052884E+02  0.7816164E-02  0.1300439E+00
        -11   -1    0    0    0    0  0.00000000000E+00  0.00000000000E+00  0.45593999997E+02  0.45594000000E+02  0.51100000000E-03 0. -1.
         11   -1    0    0    0    0 -0.00000000000E+00 -0.00000000000E+00 -0.45593999997E+02  0.45594000000E+02  0.51100000000E-03 0.  1.
    9900012    2    1    2    0    0 -0.11989284525E+02  0.11451827402E+02  0.37125189527E+02  0.50528843692E+02  0.29999950887E+02 0.  0.
        -12    1    1    2    0    0  0.11989284525E+02 -0.11451827402E+02 -0.37125189527E+02  0.40659156308E+02  0.00000000000E+00 0.  1.
         11    1    3    3    0    0 -0.48015968392E+01  0.13176210940E+02  0.18034400496E+02  0.22845294230E+02  0.51100000000E-03 0. -1.
        -11    1    3    3    0    0 -0.87257495208E+01  0.40584110794E+01  0.19437888986E+02  0.21689650382E+02  0.51100000000E-03 0.  1.
        -12    1    3    3    0    0  0.15380618352E+01 -0.57827946179E+01 -0.34709995571E+00  0.59938990800E+01  0.00000000000E+00 0.  1.
</event>
<event>
 7    1  0.4520156E-012  0.5052887E+02  0.7816164E-02  0.1300439E+00
        -11   -1    0    0    0    0  0.00000000000E+00  0.00000000000E+00  0.45593999997E+02  0.45594000000E+02  0.51100000000E-03 0. -1.
         11   -1    0    0    0    0 -0.00000000000E+00 -0.00000000000E+00 -0.45593999997E+02  0.45594000000E+02  0.51100000000E-03 0.  1.
    9900012    2    1    2    0    0  0.12725432337E+02 -0.12956696380E+01 -0.38594686390E+02  0.50528865657E+02  0.30000017650E+02 0.  0.
         12    1    1    2    0    0 -0.12725432337E+02  0.12956696380E+01  0.38594686390E+02  0.40659134343E+02  0.00000000000E+00 0. -1.
         11    1    3    3    0    0 -0.15387264092E+01  0.40527706030E+01 -0.89751480638E+01  0.99672419230E+01  0.51100000000E-03 0. -1.
        -11    1    3    3    0    0  0.15594457291E+02  0.48234052737E+01 -0.12326221017E+02  0.20454536452E+02  0.51100000000E-03 0.  1.
         12    1    3    3    0    0 -0.13302985449E+01 -0.10171845515E+02 -0.17293317309E+02  0.20107087282E+02  0.00000000000E+00 0. -1.
</event>
<event>
 7    1  0.4520156E-012  0.5052886E+02  0.7816164E-02  0.1300439E+00
        -11   -1    0    0    0    0  0.00000000000E+00  0.00000000000E+00  0.45593999997E+02  0.45594000000E+02  0.51100000000E-03 0. -1.
         11   -1    0    0    0    0 -0.00000000000E+00 -0.00000000000E+00 -0.45593999997E+02  0.45594000000E+02  0.51100000000E-03 0.  1.
    9900012    2    1    2    0    0  0.24306533627E+02 -0.16628851374E+02 -0.28032830218E+02  0.50528857794E+02  0.29999993749E+02 0.  0.
         12    1    1    2    0    0 -0.24306533627E+02  0.16628851374E+02  0.28032830218E+02  0.40659142206E+02  0.00000000000E+00 0. -1.
         11    1    3    3    0    0 -0.21272327554E+01  0.15541848715E+01 -0.20683773132E+00  0.26426108148E+01  0.51100000000E-03 0. -1.
        -11    1    3    3    0    0  0.14864571837E+02 -0.13256446525E+02 -0.31140171768E+01  0.20159017179E+02  0.51100000000E-03 0.  1.
         12    1    3    3    0    0  0.11569194545E+02 -0.49265897203E+01 -0.24711975309E+02  0.27727229800E+02  0.00000000000E+00 0. -1.
</event>
<event>
 7    1  0.4520156E-012  0.5052885E+02  0.7816164E-02  0.1300439E+00
        -11   -1    0    0    0    0  0.00000000000E+00  0.00000000000E+00  0.45593999997E+02  0.45594000000E+02  0.51100000000E-03 0.  1.
         11   -1    0    0    0    0 -0.00000000000E+00 -0.00000000000E+00 -0.45593999997E+02  0.45594000000E+02  0.51100000000E-03 0. -1.
    9900012    2    1    2    0    0  0.39252845573E+02  0.10485116976E+02  0.15631072645E+01  0.50528845215E+02  0.29999955514E+02 0.  0.
        -12    1    1    2    0    0 -0.39252845573E+02 -0.10485116976E+02 -0.15631072645E+01  0.40659154785E+02  0.00000000000E+00 0.  1.
         11    1    3    3    0    0 -0.17363229194E+01 -0.17772468623E+01 -0.89249605361E+00  0.26400706727E+01  0.51100000000E-03 0. -1.
        -11    1    3    3    0    0  0.68462541749E+01 -0.23595093698E+01  0.74768916724E+01  0.10408765058E+02  0.51100000000E-03 0.  1.
         12    1    3    3    0    0  0.34142914317E+02  0.14621873208E+02 -0.50212883543E+01  0.37480009484E+02  0.00000000000E+00 0. -1.
</event>
<event>
 7    1  0.4520156E-012  0.5052886E+02  0.7816164E-02  0.1300439E+00
        -11   -1    0    0    0    0  0.00000000000E+00  0.00000000000E+00  0.45593999997E+02  0.45594000000E+02  0.51100000000E-03 0. -1.
         11   -1    0    0    0    0 -0.00000000000E+00 -0.00000000000E+00 -0.45593999997E+02  0.45594000000E+02  0.51100000000E-03 0.  1.
    9900012    2    1    2    0    0 -0.25421268902E+02 -0.31195824051E+02 -0.58090547019E+01  0.50528862437E+02  0.30000007864E+02 0.  0.
         12    1    1    2    0    0  0.25421268902E+02  0.31195824051E+02  0.58090547019E+01  0.40659137563E+02  0.00000000000E+00 0. -1.
         11    1    3    3    0    0  0.13100793498E+00 -0.16139284215E+01 -0.59653427978E+01  0.61812007721E+01  0.51100000000E-03 0. -1.
        -11    1    3    3    0    0 -0.24874645114E+02 -0.16218769962E+02 -0.47968746578E+01  0.30080001253E+02  0.51100000000E-03 0.  1.
         12    1    3    3    0    0 -0.67763172306E+00 -0.13363125668E+02  0.49531627537E+01  0.14267660412E+02  0.00000000000E+00 0. -1.
</event>
<event>
 7    1  0.4520156E-012  0.5052885E+02  0.7816164E-02  0.1300439E+00
        -11   -1    0    0    0    0  0.00000000000E+00  0.00000000000E+00  0.45593999997E+02  0.45594000000E+02  0.51100000000E-03 0. -1.
         11   -1    0    0    0    0 -0.00000000000E+00 -0.00000000000E+00 -0.45593999997E+02  0.45594000000E+02  0.51100000000E-03 0.  1.
    9900012    2    1    2    0    0 -0.30446664322E+02  0.24554086335E+02  0.11102427734E+02  0.50528850652E+02  0.29999972042E+02 0.  0.
        -12    1    1    2    0    0  0.30446664322E+02 -0.24554086335E+02 -0.11102427734E+02  0.40659149348E+02  0.00000000000E+00 0.  1.
         11    1    3    3    0    0  0.20984910288E+01  0.57505942999E+01 -0.21749130884E+01  0.64964025894E+01  0.51100000000E-03 0.  1.
        -11    1    3    3    0    0 -0.42875548045E+01  0.10393543951E+02 -0.97566987398E+00  0.11285424849E+02  0.51100000000E-03 0. -1.
         12    1    3    3    0    0 -0.28257600547E+02  0.84099480840E+01  0.14253010696E+02  0.32747023213E+02  0.00000000000E+00 0. -1.
</event>
<event>
 7    1  0.4520156E-012  0.5052886E+02  0.7816164E-02  0.1300439E+00
        -11   -1    0    0    0    0  0.00000000000E+00  0.00000000000E+00  0.45593999997E+02  0.45594000000E+02  0.51100000000E-03 0. -1.
         11   -1    0    0    0    0 -0.00000000000E+00 -0.00000000000E+00 -0.45593999997E+02  0.45594000000E+02  0.51100000000E-03 0.  1.
    9900012    2    1    2    0    0 -0.16404033757E+02  0.56938648898E+01  0.36764839822E+02  0.50528857510E+02  0.29999992888E+02 0.  0.
        -12    1    1    2    0    0  0.16404033757E+02 -0.56938648898E+01 -0.36764839822E+02  0.40659142490E+02  0.00000000000E+00 0.  1.
         11    1    3    3    0    0 -0.12873565714E+02  0.32663725379E+01  0.13960853055E+02  0.19269232004E+02  0.51100000000E-03 0. -1.
        -11    1    3    3    0    0 -0.11467386729E+02  0.14657980418E+01  0.69107694949E+01  0.13468788274E+02  0.51100000000E-03 0.  1.
        -12    1    3    3    0    0  0.79369186858E+01  0.96169431007E+00  0.15893217272E+02  0.17790837232E+02  0.00000000000E+00 0.  1.
</event>
<event>
 7    1  0.4520156E-012  0.5052892E+02  0.7816164E-02  0.1300439E+00
        -11   -1    0    0    0    0  0.00000000000E+00  0.00000000000E+00  0.45593999997E+02  0.45594000000E+02  0.51100000000E-03 0. -1.
         11   -1    0    0    0    0 -0.00000000000E+00 -0.00000000000E+00 -0.45593999997E+02  0.45594000000E+02  0.51100000000E-03 0.  1.
    9900012    2    1    2    0    0  0.21877441518E+02  0.30949228307E+02  0.14720176719E+02  0.50528920045E+02  0.30000182967E+02 0.  0.
        -12    1    1    2    0    0 -0.21877441518E+02 -0.30949228307E+02 -0.14720176719E+02  0.40659079955E+02  0.00000000000E+00 0.  1.
         11    1    3    3    0    0 -0.25324609577E+01  0.35420652396E+01 -0.22057418177E+01  0.48810738462E+01  0.51100000000E-03 0. -1.
        -11    1    3    3    0    0 -0.12594576319E+01  0.80822914635E+01 -0.19146380740E+01  0.84009230471E+01  0.51100000000E-03 0.  1.
         12    1    3    3    0    0  0.25669360108E+02  0.19324871604E+02  0.18840556611E+02  0.37246923151E+02  0.00000000000E+00 0. -1.
</event>
<event>
 7    1  0.4520156E-012  0.5052884E+02  0.7816164E-02  0.1300439E+00
        -11   -1    0    0    0    0  0.00000000000E+00  0.00000000000E+00  0.45593999997E+02  0.45594000000E+02  0.51100000000E-03 0. -1.
         11   -1    0    0    0    0 -0.00000000000E+00 -0.00000000000E+00 -0.45593999997E+02  0.45594000000E+02  0.51100000000E-03 0.  1.
    9900012    2    1    2    0    0 -0.85033159226E+01 -0.88877107959E+01 -0.38753962847E+02  0.50528838410E+02  0.29999934830E+02 0.  0.
         12    1    1    2    0    0  0.85033159226E+01  0.88877107959E+01  0.38753962847E+02  0.40659161590E+02  0.00000000000E+00 0. -1.
         11    1    3    3    0    0 -0.75133968805E+01  0.29515895733E+01 -0.84373209643E+01  0.11676960178E+02  0.51100000000E-03 0. -1.
        -11    1    3    3    0    0 -0.10890036295E+02 -0.70918309426E+01 -0.19542134593E+02  0.23468744776E+02  0.51100000000E-03 0.  1.
         12    1    3    3    0    0  0.99001172532E+01 -0.47474694266E+01 -0.10774507290E+02  0.15383133456E+02  0.00000000000E+00 0. -1.
</event>
<event>
 7    1  0.4520156E-012  0.5052886E+02  0.7816164E-02  0.1300439E+00
        -11   -1    0    0    0    0  0.00000000000E+00  0.00000000000E+00  0.45593999997E+02  0.45594000000E+02  0.51100000000E-03 0. -1.
         11   -1    0    0    0    0 -0.00000000000E+00 -0.00000000000E+00 -0.45593999997E+02  0.45594000000E+02  0.51100000000E-03 0.  1.
    9900012    2    1    2    0    0 -0.77359987074E+01  0.25498302340E+02 -0.30710855110E+02  0.50528859333E+02  0.29999998427E+02 0.  0.
         12    1    1    2    0    0  0.77359987074E+01 -0.25498302340E+02  0.30710855110E+02  0.40659140667E+02  0.00000000000E+00 0. -1.
         11    1    3    3    0    0 -0.35001020153E+01  0.17392396470E+02 -0.56138234865E+01  0.18608094569E+02  0.51100000000E-03 0. -1.
        -11    1    3    3    0    0 -0.72398241885E+01  0.86111650346E+01 -0.63312743134E+01  0.12909386206E+02  0.51100000000E-03 0.  1.
        -12    1    3    3    0    0  0.30039274964E+01 -0.50525916468E+00 -0.18765757310E+02  0.19011378558E+02  0.00000000000E+00 0.  1.
</event>
<event>
 7    1  0.4520156E-012  0.5052886E+02  0.7816164E-02  0.1300439E+00
        -11   -1    0    0    0    0  0.00000000000E+00  0.00000000000E+00  0.45593999997E+02  0.45594000000E+02  0.51100000000E-03 0.  1.
         11   -1    0    0    0    0 -0.00000000000E+00 -0.00000000000E+00 -0.45593999997E+02  0.45594000000E+02  0.51100000000E-03 0. -1.
    9900012    2    1    2    0    0  0.14489357851E+02 -0.33482926050E+02 -0.17947636481E+02  0.50528862244E+02  0.30000007278E+02 0.  0.
         12    1    1    2    0    0 -0.14489357851E+02  0.33482926050E+02  0.17947636481E+02  0.40659137756E+02  0.00000000000E+00 0. -1.
         11    1    3    3    0    0  0.31004902661E+01 -0.21715972312E+02 -0.15350446978E+02  0.26773731828E+02  0.51100000000E-03 0. -1.
        -11    1    3    3    0    0  0.13533796287E+02 -0.66888524089E+01 -0.70569507409E+01  0.16664481465E+02  0.51100000000E-03 0.  1.
        -12    1    3    3    0    0 -0.21449287021E+01 -0.50781013292E+01  0.44597612379E+01  0.70906489510E+01  0.00000000000E+00 0.  1.
</event>
<event>
 7    1  0.4520156E-012  0.5052886E+02  0.7816164E-02  0.1300439E+00
        -11   -1    0    0    0    0  0.00000000000E+00  0.00000000000E+00  0.45593999997E+02  0.45594000000E+02  0.51100000000E-03 0. -1.
         11   -1    0    0    0    0 -0.00000000000E+00 -0.00000000000E+00 -0.45593999997E+02  0.45594000000E+02  0.51100000000E-03 0.  1.
    9900012    2    1    2    0    0 -0.12638883640E+02  0.23646276207E+02 -0.30565959021E+02  0.50528860696E+02  0.30000002570E+02 0.  0.
         12    1    1    2    0    0  0.12638883640E+02 -0.23646276207E+02  0.30565959021E+02  0.40659139304E+02  0.00000000000E+00 0. -1.
         11    1    3    3    0    0 -0.90415264413E+01  0.12065824636E+02 -0.26708528282E+02  0.30670487570E+02  0.51100000000E-03 0. -1.
        -11    1    3    3    0    0 -0.40982809508E+01  0.26842573208E+01 -0.85002902208E+01  0.98110182048E+01  0.51100000000E-03 0.  1.
         12    1    3    3    0    0  0.50092375220E+00  0.88961942500E+01  0.46428594817E+01  0.10047354921E+02  0.00000000000E+00 0. -1.
</event>
<event>
 7    1  0.4520156E-012  0.5052885E+02  0.7816164E-02  0.1300439E+00
        -11   -1    0    0    0    0  0.00000000000E+00  0.00000000000E+00  0.45593999997E+02  0.45594000000E+02  0.51100000000E-03 0.  1.
         11   -1    0    0    0    0 -0.00000000000E+00 -0.00000000000E+00 -0.45593999997E+02  0.45594000000E+02  0.51100000000E-03 0. -1.
    9900012    2    1    2    0    0  0.30686864303E+01 -0.26107222780E+02  0.31018741082E+02  0.50528853231E+02  0.29999979880E+02 0.  0.
        -12    1    1    2    0    0 -0.30686864303E+01  0.26107222780E+02 -0.31018741082E+02  0.40659146769E+02  0.00000000000E+00 0.  1.
         11    1    3    3    0    0  0.20707849852E+01  0.10335840603E+00  0.59857619562E+01  0.63346807238E+01  0.51100000000E-03 0. -1.
        -11    1    3    3    0    0  0.14490108427E+01 -0.42452594201E+01  0.21474374149E+02  0.21937880602E+02  0.51100000000E-03 0.  1.
         12    1    3    3    0    0 -0.45110939756E+00 -0.21965321766E+02  0.35586049771E+01  0.22256291905E+02  0.00000000000E+00 0. -1.
</event>
<event>
 7    1  0.4520156E-012  0.5052885E+02  0.7816164E-02  0.1300439E+00
        -11   -1    0    0    0    0  0.00000000000E+00  0.00000000000E+00  0.45593999997E+02  0.45594000000E+02  0.51100000000E-03 0. -1.
         11   -1    0    0    0    0 -0.00000000000E+00 -0.00000000000E+00 -0.45593999997E+02  0.45594000000E+02  0.51100000000E-03 0.  1.
    9900012    2    1    2    0    0 -0.23283542103E+02 -0.24294941473E+02 -0.22821012494E+02  0.50528854346E+02  0.29999983270E+02 0.  0.
         12    1    1    2    0    0  0.23283542103E+02  0.24294941473E+02  0.22821012494E+02  0.40659145654E+02  0.00000000000E+00 0. -1.
         11    1    3    3    0    0 -0.71597520463E+01 -0.12592739280E+01  0.50404185750E+01  0.88461087412E+01  0.51100000000E-03 0. -1.
        -11    1    3    3    0    0 -0.58704053186E+01 -0.11073213299E+00 -0.47296919021E+01  0.75394897679E+01  0.51100000000E-03 0.  1.
        -12    1    3    3    0    0 -0.10253384738E+02 -0.22924935412E+02 -0.23131739167E+02  0.34143255837E+02  0.00000000000E+00 0.  1.
</event>
<event>
 7    1  0.4520156E-012  0.5052886E+02  0.7816164E-02  0.1300439E+00
        -11   -1    0    0    0    0  0.00000000000E+00  0.00000000000E+00  0.45593999997E+02  0.45594000000E+02  0.51100000000E-03 0. -1.
         11   -1    0    0    0    0 -0.00000000000E+00 -0.00000000000E+00 -0.45593999997E+02  0.45594000000E+02  0.51100000000E-03 0.  1.
    9900012    2    1    2    0    0  0.99617260255E+01  0.26102623789E+02 -0.29539514872E+02  0.50528857203E+02  0.29999991955E+02 0.  0.
         12    1    1    2    0    0 -0.99617260255E+01 -0.26102623789E+02  0.29539514872E+02  0.40659142797E+02  0.00000000000E+00 0. -1.
         11    1    3    3    0    0  0.29936999810E+01  0.19604821635E+02 -0.74082815027E+01  0.21170590592E+02  0.51100000000E-03 0. -1.
        -11    1    3    3    0    0  0.44281178972E+01  0.95572338560E+01 -0.47975461214E+01  0.11574342147E+02  0.51100000000E-03 0.  1.
        -12    1    3    3    0    0  0.25399081473E+01 -0.30594317020E+01 -0.17333687248E+02  0.17783924464E+02  0.00000000000E+00 0.  1.
</event>
<event>
 7    1  0.4520156E-012  0.5052888E+02  0.7816164E-02  0.1300439E+00
        -11   -1    0    0    0    0  0.00000000000E+00  0.00000000000E+00  0.45593999997E+02  0.45594000000E+02  0.51100000000E-03 0. -1.
         11   -1    0    0    0    0 -0.00000000000E+00 -0.00000000000E+00 -0.45593999997E+02  0.45594000000E+02  0.51100000000E-03 0.  1.
    9900012    2    1    2    0    0 -0.78495786893E+01  0.26129662264E+02 -0.30146131987E+02  0.50528875447E+02  0.30000047408E+02 0.  0.
         12    1    1    2    0    0  0.78495786893E+01 -0.26129662264E+02  0.30146131987E+02  0.40659124553E+02  0.00000000000E+00 0. -1.
         11    1    3    3    0    0  0.26382015497E+01  0.66539088115E+01 -0.14863366825E+01  0.73105271276E+01  0.51100000000E-03 0. -1.
        -11    1    3    3    0    0 -0.52149457250E+01  0.82128637491E+01  0.21761934432E+01  0.99690826077E+01  0.51100000000E-03 0.  1.
        -12    1    3    3    0    0 -0.52728345140E+01  0.11262889704E+02 -0.30835988748E+02  0.33249265712E+02  0.00000000000E+00 0.  1.
</event>
<event>
 7    1  0.4520156E-012  0.5052887E+02  0.7816164E-02  0.1300439E+00
        -11   -1    0    0    0    0  0.00000000000E+00  0.00000000000E+00  0.45593999997E+02  0.45594000000E+02  0.51100000000E-03 0. -1.
         11   -1    0    0    0    0 -0.00000000000E+00 -0.00000000000E+00 -0.45593999997E+02  0.45594000000E+02  0.51100000000E-03 0.  1.
    9900012    2    1    2    0    0 -0.33011752042E+02 -0.17015864481E+02  0.16548408033E+02  0.50528865413E+02  0.30000016909E+02 0.  0.
        -12    1    1    2    0    0  0.33011752042E+02  0.17015864481E+02 -0.16548408033E+02  0.40659134587E+02  0.00000000000E+00 0.  1.
         11    1    3    3    0    0 -0.82957317601E+00 -0.80265693495E+01  0.47565658269E+01  0.93669058874E+01  0.51100000000E-03 0. -1.
        -11    1    3    3    0    0 -0.29804916275E+01 -0.62216480577E+01  0.94991651401E+01  0.11739947765E+02  0.51100000000E-03 0.  1.
        -12    1    3    3    0    0 -0.29201687239E+02 -0.27676470742E+01  0.22926770659E+01  0.29422011761E+02  0.00000000000E+00 0.  1.
</event>
<event>
 7    1  0.4520156E-012  0.5052884E+02  0.7816164E-02  0.1300439E+00
        -11   -1    0    0    0    0  0.00000000000E+00  0.00000000000E+00  0.45593999997E+02  0.45594000000E+02  0.51100000000E-03 0. -1.
         11   -1    0    0    0    0 -0.00000000000E+00 -0.00000000000E+00 -0.45593999997E+02  0.45594000000E+02  0.51100000000E-03 0.  1.
    9900012    2    1    2    0    0  0.34414041541E+01 -0.10540175738E+00  0.40513120066E+02  0.50528840274E+02  0.29999940498E+02 0.  0.
        -12    1    1    2    0    0 -0.34414041541E+01  0.10540175738E+00 -0.40513120066E+02  0.40659159726E+02  0.00000000000E+00 0.  1.
         11    1    3    3    0    0 -0.88957960034E+00 -0.49166845338E+01  0.41322039761E+01  0.64838452041E+01  0.51100000000E-03 0.  1.
        -11    1    3    3    0    0 -0.52484239240E+01  0.93401557172E+01  0.29564313929E+02  0.31445717051E+02  0.51100000000E-03 0. -1.
         12    1    3    3    0    0  0.95794076784E+01 -0.45288729409E+01  0.68166021616E+01  0.12599278020E+02  0.00000000000E+00 0. -1.
</event>
<event>
 7    1  0.4520156E-012  0.5052885E+02  0.7816164E-02  0.1300439E+00
        -11   -1    0    0    0    0  0.00000000000E+00  0.00000000000E+00  0.45593999997E+02  0.45594000000E+02  0.51100000000E-03 0. -1.
         11   -1    0    0    0    0 -0.00000000000E+00 -0.00000000000E+00 -0.45593999997E+02  0.45594000000E+02  0.51100000000E-03 0.  1.
    9900012    2    1    2    0    0  0.25410158243E+02 -0.27168160911E+02 -0.16412839828E+02  0.50528850717E+02  0.29999972239E+02 0.  0.
         12    1    1    2    0    0 -0.25410158243E+02  0.27168160911E+02  0.16412839828E+02  0.40659149283E+02  0.00000000000E+00 0. -1.
         11    1    3    3    0    0 -0.93882080432E+00 -0.13275303448E+02 -0.10252872118E+02  0.16799894436E+02  0.51100000000E-03 0.  1.
        -11    1    3    3    0    0  0.54101980189E+01 -0.18052360085E+01  0.45399671612E+01  0.72897477142E+01  0.51100000000E-03 0. -1.
        -12    1    3    3    0    0  0.20938781028E+02 -0.12087621455E+02 -0.10699934871E+02  0.26439208567E+02  0.00000000000E+00 0.  1.
</event>
<event>
 7    1  0.4520156E-012  0.5052887E+02  0.7816164E-02  0.1300439E+00
        -11   -1    0    0    0    0  0.00000000000E+00  0.00000000000E+00  0.45593999997E+02  0.45594000000E+02  0.51100000000E-03 0. -1.
         11   -1    0    0    0    0 -0.00000000000E+00 -0.00000000000E+00 -0.45593999997E+02  0.45594000000E+02  0.51100000000E-03 0.  1.
    9900012    2    1    2    0    0  0.65481312290E+01 -0.21315911906E+02 -0.33998808768E+02  0.50528866701E+02  0.30000020825E+02 0.  0.
         12    1    1    2    0    0 -0.65481312290E+01  0.21315911906E+02  0.33998808768E+02  0.40659133299E+02  0.00000000000E+00 0. -1.
         11    1    3    3    0    0 -0.69229836661E+01 -0.10408940567E+02 -0.68768571607E+01  0.14267617574E+02  0.51100000000E-03 0. -1.
        -11    1    3    3    0    0 -0.34570579312E+01 -0.11352107190E+01 -0.85795267843E+01  0.93192399379E+01  0.51100000000E-03 0.  1.
         12    1    3    3    0    0  0.16928172826E+02 -0.97717606195E+01 -0.18542424823E+02  0.26942009189E+02  0.00000000000E+00 0. -1.
</event>
<event>
 7    1  0.4520156E-012  0.5052895E+02  0.7816164E-02  0.1300438E+00
        -11   -1    0    0    0    0  0.00000000000E+00  0.00000000000E+00  0.45593999997E+02  0.45594000000E+02  0.51100000000E-03 0. -1.
         11   -1    0    0    0    0 -0.00000000000E+00 -0.00000000000E+00 -0.45593999997E+02  0.45594000000E+02  0.51100000000E-03 0.  1.
    9900012    2    1    2    0    0 -0.78542678002E+01  0.99729658508E+01 -0.38626534543E+02  0.50528945149E+02  0.30000259275E+02 0.  0.
         12    1    1    2    0    0  0.78542678002E+01 -0.99729658508E+01  0.38626534543E+02  0.40659054851E+02  0.00000000000E+00 0. -1.
         11    1    3    3    0    0 -0.12513900796E+02  0.21604173353E+01 -0.10925514618E+02  0.16752074084E+02  0.51100000000E-03 0. -1.
        -11    1    3    3    0    0  0.23449712678E+01 -0.43134279374E+01 -0.16116243344E+02  0.16847487961E+02  0.51100000000E-03 0.  1.
         12    1    3    3    0    0  0.23146617278E+01  0.12125976453E+02 -0.11584776582E+02  0.16929383104E+02  0.00000000000E+00 0. -1.
</event>
<event>
 7    1  0.4520156E-012  0.5052887E+02  0.7816164E-02  0.1300439E+00
        -11   -1    0    0    0    0  0.00000000000E+00  0.00000000000E+00  0.45593999997E+02  0.45594000000E+02  0.51100000000E-03 0. -1.
         11   -1    0    0    0    0 -0.00000000000E+00 -0.00000000000E+00 -0.45593999997E+02  0.45594000000E+02  0.51100000000E-03 0.  1.
    9900012    2    1    2    0    0  0.31302863260E+02 -0.94755888783E+01  0.24155926136E+02  0.50528870639E+02  0.30000032796E+02 0.  0.
        -12    1    1    2    0    0 -0.31302863260E+02  0.94755888783E+01 -0.24155926136E+02  0.40659129361E+02  0.00000000000E+00 0.  1.
         11    1    3    3    0    0 -0.14929855494E+01 -0.46928641277E+01  0.52374637597E+01  0.71890894046E+01  0.51100000000E-03 0.  1.
        -11    1    3    3    0    0  0.22359467022E+02 -0.12834676336E+02  0.11710738237E+02  0.28316356977E+02  0.51100000000E-03 0. -1.
        -12    1    3    3    0    0  0.10436381788E+02  0.80519515854E+01  0.72077241396E+01  0.15023424258E+02  0.00000000000E+00 0.  1.
</event>
<event>
 7    1  0.4520156E-012  0.5052886E+02  0.7816164E-02  0.1300439E+00
        -11   -1    0    0    0    0  0.00000000000E+00  0.00000000000E+00  0.45593999997E+02  0.45594000000E+02  0.51100000000E-03 0. -1.
         11   -1    0    0    0    0 -0.00000000000E+00 -0.00000000000E+00 -0.45593999997E+02  0.45594000000E+02  0.51100000000E-03 0.  1.
    9900012    2    1    2    0    0 -0.21121742550E+02 -0.44274855650E+01  0.34459183040E+02  0.50528856717E+02  0.29999990476E+02 0.  0.
        -12    1    1    2    0    0  0.21121742550E+02  0.44274855650E+01 -0.34459183040E+02  0.40659143283E+02  0.00000000000E+00 0.  1.
         11    1    3    3    0    0 -0.73293203468E+01  0.10057383021E+01  0.25140948661E+02  0.26206826327E+02  0.51100000000E-03 0. -1.
        -11    1    3    3    0    0 -0.69702049424E+01  0.46301916652E+01  0.88141461063E+01  0.12153666263E+02  0.51100000000E-03 0.  1.
         12    1    3    3    0    0 -0.68222172603E+01 -0.10063415532E+02  0.50408827223E+00  0.12168364126E+02  0.00000000000E+00 0. -1.
</event>
<event>
 7    1  0.6480424E-012  0.5052886E+02  0.7816164E-02  0.1300439E+00
        -11   -1    0    0    0    0  0.00000000000E+00  0.00000000000E+00  0.45593999997E+02  0.45594000000E+02  0.51100000000E-03 0. -1.
         11   -1    0    0    0    0 -0.00000000000E+00 -0.00000000000E+00 -0.45593999997E+02  0.45594000000E+02  0.51100000000E-03 0.  1.
    9900012    2    1    2    0    0  0.43071154157E+01 -0.58319458428E+01  0.40007537818E+02  0.50528856898E+02  0.29999991026E+02 0.  0.
        -12    1    1    2    0    0 -0.43071154157E+01  0.58319458428E+01 -0.40007537818E+02  0.40659143102E+02  0.00000000000E+00 0.  1.
         11    1    3    3    0    0 -0.30724895705E+01  0.12515455858E+01 -0.12864503959E+01  0.35583020384E+01  0.51100000000E-03 0. -1.
        -11    1    3    3    0    0 -0.27714510534E+01 -0.30929608539E+01 -0.10953440610E+00  0.41544368851E+01  0.51100000000E-03 0.  1.
         12    1    3    3    0    0  0.10151056040E+02 -0.39905305747E+01  0.41403522621E+02  0.42816117974E+02  0.00000000000E+00 0. -1.
</event>
<event>
 7    1  0.4520156E-012  0.5052886E+02  0.7816164E-02  0.1300439E+00
        -11   -1    0    0    0    0  0.00000000000E+00  0.00000000000E+00  0.45593999997E+02  0.45594000000E+02  0.51100000000E-03 0. -1.
         11   -1    0    0    0    0 -0.00000000000E+00 -0.00000000000E+00 -0.45593999997E+02  0.45594000000E+02  0.51100000000E-03 0.  1.
    9900012    2    1    2    0    0 -0.87698520582E+01 -0.24469786342E+02 -0.31264757622E+02  0.50528858127E+02  0.29999994762E+02 0.  0.
         12    1    1    2    0    0  0.87698520582E+01  0.24469786342E+02  0.31264757622E+02  0.40659141873E+02  0.00000000000E+00 0. -1.
         11    1    3    3    0    0  0.42347581059E+01  0.40874004955E+01  0.37992618741E+00  0.58978269892E+01  0.51100000000E-03 0. -1.
        -11    1    3    3    0    0 -0.41820664064E+01 -0.12046503409E+02 -0.12641400767E+02  0.17955860810E+02  0.51100000000E-03 0.  1.
        -12    1    3    3    0    0 -0.88225437577E+01 -0.16510683428E+02 -0.19003283042E+02  0.26675170328E+02  0.00000000000E+00 0.  1.
</event>
<event>
 7    1  0.4520156E-012  0.5052886E+02  0.7816164E-02  0.1300439E+00
        -11   -1    0    0    0    0  0.00000000000E+00  0.00000000000E+00  0.45593999997E+02  0.45594000000E+02  0.51100000000E-03 0. -1.
         11   -1    0    0    0    0 -0.00000000000E+00 -0.00000000000E+00 -0.45593999997E+02  0.45594000000E+02  0.51100000000E-03 0.  1.
    9900012    2    1    2    0    0  0.14242967702E+01  0.13100963926E+02  0.38464293343E+02  0.50528859091E+02  0.29999997693E+02 0.  0.
        -12    1    1    2    0    0 -0.14242967702E+01 -0.13100963926E+02 -0.38464293343E+02  0.40659140909E+02  0.00000000000E+00 0.  1.
         11    1    3    3    0    0 -0.46457619335E+01 -0.53785724970E+01  0.30221995968E+01  0.77230717148E+01  0.51100000000E-03 0. -1.
        -11    1    3    3    0    0 -0.15328080629E+01 -0.76447128434E+00 -0.60102847432E-01  0.17139222607E+01  0.51100000000E-03 0.  1.
         12    1    3    3    0    0  0.76028667666E+01  0.19244007707E+02  0.35502196594E+02  0.41091865116E+02  0.00000000000E+00 0. -1.
</event>
<event>
 7    1  0.4520156E-012  0.5052886E+02  0.7816164E-02  0.1300439E+00
        -11   -1    0    0    0    0  0.00000000000E+00  0.00000000000E+00  0.45593999997E+02  0.45594000000E+02  0.51100000000E-03 0. -1.
         11   -1    0    0    0    0 -0.00000000000E+00 -0.00000000000E+00 -0.45593999997E+02  0.45594000000E+02  0.51100000000E-03 0.  1.
    9900012    2    1    2    0    0  0.30936578480E+02  0.19358516442E+01  0.26312474013E+02  0.50528859597E+02  0.29999999232E+02 0.  0.
        -12    1    1    2    0    0 -0.30936578480E+02 -0.19358516442E+01 -0.26312474013E+02  0.40659140403E+02  0.00000000000E+00 0.  1.
         11    1    3    3    0    0  0.14453896292E+02 -0.52148374026E+01 -0.14397624803E+01  0.15433164401E+02  0.51100000000E-03 0. -1.
        -11    1    3    3    0    0  0.33445040295E+01  0.35950614081E+01  0.90151768189E+00  0.49922848600E+01  0.51100000000E-03 0.  1.
        -12    1    3    3    0    0  0.13138178158E+02  0.35556276387E+01  0.26850718811E+02  0.30103410336E+02  0.00000000000E+00 0.  1.
</event>
<event>
 7    1  0.4520156E-012  0.5052887E+02  0.7816164E-02  0.1300439E+00
        -11   -1    0    0    0    0  0.00000000000E+00  0.00000000000E+00  0.45593999997E+02  0.45594000000E+02  0.51100000000E-03 0. -1.
         11   -1    0    0    0    0 -0.00000000000E+00 -0.00000000000E+00 -0.45593999997E+02  0.45594000000E+02  0.51100000000E-03 0.  1.
    9900012    2    1    2    0    0 -0.31939646741E+02 -0.17631796418E+02  0.17948361531E+02  0.50528868670E+02  0.30000026809E+02 0.  0.
        -12    1    1    2    0    0  0.31939646741E+02  0.17631796418E+02 -0.17948361531E+02  0.40659131330E+02  0.00000000000E+00 0.  1.
         11    1    3    3    0    0 -0.15824748413E+02 -0.75644353502E+01  0.58793152441E+01  0.18498910576E+02  0.51100000000E-03 0. -1.
        -11    1    3    3    0    0 -0.16042122582E+02  0.29988033424E+01  0.44975813473E+01  0.16928400889E+02  0.51100000000E-03 0.  1.
        -12    1    3    3    0    0 -0.72775746970E-01 -0.13066164410E+02  0.75714649400E+01  0.15101557205E+02  0.00000000000E+00 0.  1.
</event>
<event>
 7    1  0.4520156E-012  0.5052886E+02  0.7816164E-02  0.1300439E+00
        -11   -1    0    0    0    0  0.00000000000E+00  0.00000000000E+00  0.45593999997E+02  0.45594000000E+02  0.51100000000E-03 0. -1.
         11   -1    0    0    0    0 -0.00000000000E+00 -0.00000000000E+00 -0.45593999997E+02  0.45594000000E+02  0.51100000000E-03 0.  1.
    9900012    2    1    2    0    0  0.26043164063E+02 -0.76190564370E+01 -0.30279847703E+02  0.50528860901E+02  0.30000003194E+02 0.  0.
         12    1    1    2    0    0 -0.26043164063E+02  0.76190564370E+01  0.30279847703E+02  0.40659139099E+02  0.00000000000E+00 0. -1.
         11    1    3    3    0    0  0.10810303335E+02 -0.10864833065E+02 -0.13070993616E+02  0.20143438885E+02  0.51100000000E-03 0. -1.
        -11    1    3    3    0    0  0.53059520862E+01  0.86745682531E+01 -0.16065796131E+02  0.19013444388E+02  0.51100000000E-03 0.  1.
         12    1    3    3    0    0  0.99269086416E+01 -0.54287916254E+01 -0.11430579559E+01  0.11371977628E+02  0.00000000000E+00 0. -1.
</event>
<event>
 7    1  0.4520156E-012  0.5052888E+02  0.7816164E-02  0.1300439E+00
        -11   -1    0    0    0    0  0.00000000000E+00  0.00000000000E+00  0.45593999997E+02  0.45594000000E+02  0.51100000000E-03 0. -1.
         11   -1    0    0    0    0 -0.00000000000E+00 -0.00000000000E+00 -0.45593999997E+02  0.45594000000E+02  0.51100000000E-03 0.  1.
    9900012    2    1    2    0    0  0.33903364666E+02  0.12876574830E+02 -0.18382593564E+02  0.50528879729E+02  0.30000060426E+02 0.  0.
         12    1    1    2    0    0 -0.33903364666E+02 -0.12876574830E+02  0.18382593564E+02  0.40659120271E+02  0.00000000000E+00 0. -1.
         11    1    3    3    0    0  0.11117617613E+02  0.80224886526E+01 -0.25812182044E+01  0.13950786116E+02  0.51100000000E-03 0. -1.
        -11    1    3    3    0    0  0.24243829173E+02  0.53116956307E+01 -0.45612380067E+01  0.25234544891E+02  0.51100000000E-03 0.  1.
         12    1    3    3    0    0 -0.14580821207E+01 -0.45760945368E+00 -0.11240137353E+02  0.11343548722E+02  0.00000000000E+00 0. -1.
</event>
<event>
 7    1  0.4520156E-012  0.5052886E+02  0.7816164E-02  0.1300439E+00
        -11   -1    0    0    0    0  0.00000000000E+00  0.00000000000E+00  0.45593999997E+02  0.45594000000E+02  0.51100000000E-03 0. -1.
         11   -1    0    0    0    0 -0.00000000000E+00 -0.00000000000E+00 -0.45593999997E+02  0.45594000000E+02  0.51100000000E-03 0.  1.
    9900012    2    1    2    0    0  0.18642349708E+02  0.10562124479E+02 -0.34555315796E+02  0.50528861717E+02  0.30000005676E+02 0.  0.
         12    1    1    2    0    0 -0.18642349708E+02 -0.10562124479E+02  0.34555315796E+02  0.40659138283E+02  0.00000000000E+00 0. -1.
         11    1    3    3    0    0  0.94257824571E+01  0.10017793550E+02 -0.30281763293E+01  0.14084438742E+02  0.51100000000E-03 0. -1.
        -11    1    3    3    0    0  0.26100290614E+01  0.34441966128E+01 -0.23122748030E+00  0.43276100122E+01  0.51100000000E-03 0.  1.
        -12    1    3    3    0    0  0.66065381895E+01 -0.28998656838E+01 -0.31295911986E+02  0.32116812963E+02  0.00000000000E+00 0.  1.
</event>
<event>
 7    1  0.4520156E-012  0.5052886E+02  0.7816164E-02  0.1300439E+00
        -11   -1    0    0    0    0  0.00000000000E+00  0.00000000000E+00  0.45593999997E+02  0.45594000000E+02  0.51100000000E-03 0. -1.
         11   -1    0    0    0    0 -0.00000000000E+00 -0.00000000000E+00 -0.45593999997E+02  0.45594000000E+02  0.51100000000E-03 0.  1.
    9900012    2    1    2    0    0  0.31021606183E+02  0.14359003923E+02  0.22014654398E+02  0.50528855246E+02  0.29999986007E+02 0.  0.
        -12    1    1    2    0    0 -0.31021606183E+02 -0.14359003923E+02 -0.22014654398E+02  0.40659144754E+02  0.00000000000E+00 0.  1.
         11    1    3    3    0    0  0.13849087012E+02  0.15018053590E+02  0.48901944932E+01  0.21006026448E+02  0.51100000000E-03 0. -1.
        -11    1    3    3    0    0  0.13917703135E+01  0.65519835614E+01  0.48548275409E+01  0.82725367274E+01  0.51100000000E-03 0.  1.
         12    1    3    3    0    0  0.15780748858E+02 -0.72110332292E+01  0.12269632364E+02  0.21250292071E+02  0.00000000000E+00 0. -1.
</event>
<event>
 7    1  0.4520156E-012  0.5052885E+02  0.7816164E-02  0.1300439E+00
        -11   -1    0    0    0    0  0.00000000000E+00  0.00000000000E+00  0.45593999997E+02  0.45594000000E+02  0.51100000000E-03 0. -1.
         11   -1    0    0    0    0 -0.00000000000E+00 -0.00000000000E+00 -0.45593999997E+02  0.45594000000E+02  0.51100000000E-03 0.  1.
    9900012    2    1    2    0    0  0.32456531142E+02  0.20291316543E+02 -0.13711393711E+02  0.50528852710E+02  0.29999978299E+02 0.  0.
         12    1    1    2    0    0 -0.32456531142E+02 -0.20291316543E+02  0.13711393711E+02  0.40659147290E+02  0.00000000000E+00 0. -1.
         11    1    3    3    0    0  0.41498505008E+01 -0.19878226115E+00 -0.41887829274E+01  0.58997183187E+01  0.51100000000E-03 0. -1.
        -11    1    3    3    0    0  0.58429304251E+01  0.58456869943E+00 -0.13145195365E+02  0.14397142701E+02  0.51100000000E-03 0.  1.
        -12    1    3    3    0    0  0.22463750216E+02  0.19905530105E+02  0.36225845814E+01  0.30231991690E+02  0.00000000000E+00 0.  1.
</event>
<event>
 7    1  0.4520156E-012  0.5052886E+02  0.7816164E-02  0.1300439E+00
        -11   -1    0    0    0    0  0.00000000000E+00  0.00000000000E+00  0.45593999997E+02  0.45594000000E+02  0.51100000000E-03 0.  1.
         11   -1    0    0    0    0 -0.00000000000E+00 -0.00000000000E+00 -0.45593999997E+02  0.45594000000E+02  0.51100000000E-03 0. -1.
    9900012    2    1    2    0    0  0.65142384238E+01  0.38689634329E+02 -0.10669698993E+02  0.50528861011E+02  0.30000003529E+02 0.  0.
         12    1    1    2    0    0 -0.65142384238E+01 -0.38689634329E+02  0.10669698993E+02  0.40659138989E+02  0.00000000000E+00 0. -1.
         11    1    3    3    0    0  0.12281890822E+01  0.18899969302E+02  0.54873202147E+01  0.19718721344E+02  0.51100000000E-03 0. -1.
        -11    1    3    3    0    0  0.27481082853E+00  0.10911302604E+02  0.88590455113E+00  0.10950656265E+02  0.51100000000E-03 0.  1.
        -12    1    3    3    0    0  0.50112385131E+01  0.88783624228E+01 -0.17042923759E+02  0.19859483402E+02  0.00000000000E+00 0.  1.
</event>
<event>
 7    1  0.4520156E-012  0.5052878E+02  0.7816164E-02  0.1300439E+00
        -11   -1    0    0    0    0  0.00000000000E+00  0.00000000000E+00  0.45593999997E+02  0.45594000000E+02  0.51100000000E-03 0.  1.
         11   -1    0    0    0    0 -0.00000000000E+00 -0.00000000000E+00 -0.45593999997E+02  0.45594000000E+02  0.51100000000E-03 0. -1.
    9900012    2    1    2    0    0  0.36681878189E+02 -0.62895815313E+01 -0.16372329832E+02  0.50528779552E+02  0.29999755925E+02 0.  0.
         12    1    1    2    0    0 -0.36681878189E+02  0.62895815313E+01  0.16372329832E+02  0.40659220448E+02  0.00000000000E+00 0. -1.
         11    1    3    3    0    0  0.22285343249E+02 -0.69697023617E+01 -0.90900580272E+01  0.25056784110E+02  0.51100000000E-03 0. -1.
        -11    1    3    3    0    0  0.91861728901E+01 -0.73126536857E+01 -0.10138145411E+02  0.15512661568E+02  0.51100000000E-03 0.  1.
        -12    1    3    3    0    0  0.52103620497E+01  0.79927745161E+01  0.28558736057E+01  0.99593338736E+01  0.00000000000E+00 0.  1.
</event>
<event>
 7    1  0.4520156E-012  0.5052886E+02  0.7816164E-02  0.1300439E+00
        -11   -1    0    0    0    0  0.00000000000E+00  0.00000000000E+00  0.45593999997E+02  0.45594000000E+02  0.51100000000E-03 0. -1.
         11   -1    0    0    0    0 -0.00000000000E+00 -0.00000000000E+00 -0.45593999997E+02  0.45594000000E+02  0.51100000000E-03 0.  1.
    9900012    2    1    2    0    0 -0.39296055510E+02  0.60308711867E+01  0.85214035424E+01  0.50528859524E+02  0.29999999010E+02 0.  0.
        -12    1    1    2    0    0  0.39296055510E+02 -0.60308711867E+01 -0.85214035424E+01  0.40659140476E+02  0.00000000000E+00 0.  1.
         11    1    3    3    0    0 -0.15914120788E+02 -0.73487313121E+01 -0.53623208620E+01  0.18330782243E+02  0.51100000000E-03 0.  1.
        -11    1    3    3    0    0 -0.13973291010E+02  0.70602598648E+01  0.20113219829E+01  0.15784345010E+02  0.51100000000E-03 0. -1.
        -12    1    3    3    0    0 -0.94086437120E+01  0.63193426339E+01  0.11872402422E+02  0.16413732272E+02  0.00000000000E+00 0.  1.
</event>
<event>
 7    1  0.4520156E-012  0.5052886E+02  0.7816164E-02  0.1300439E+00
        -11   -1    0    0    0    0  0.00000000000E+00  0.00000000000E+00  0.45593999997E+02  0.45594000000E+02  0.51100000000E-03 0. -1.
         11   -1    0    0    0    0 -0.00000000000E+00 -0.00000000000E+00 -0.45593999997E+02  0.45594000000E+02  0.51100000000E-03 0.  1.
    9900012    2    1    2    0    0 -0.22675473691E+02 -0.82010586008E+01 -0.32737305955E+02  0.50528859940E+02  0.30000000273E+02 0.  0.
         12    1    1    2    0    0  0.22675473691E+02  0.82010586008E+01  0.32737305955E+02  0.40659140060E+02  0.00000000000E+00 0. -1.
         11    1    3    3    0    0  0.13113860303E+01  0.11564520278E+01 -0.55216672390E+01  0.57918843197E+01  0.51100000000E-03 0. -1.
        -11    1    3    3    0    0 -0.15568805111E+02  0.35236879911E+01 -0.24302003236E+02  0.29075615749E+02  0.51100000000E-03 0.  1.
        -12    1    3    3    0    0 -0.84180546100E+01 -0.12881198620E+02 -0.29136354796E+01  0.15661359871E+02  0.00000000000E+00 0.  1.
</event>
<event>
 7    1  0.4520156E-012  0.5052887E+02  0.7816164E-02  0.1300439E+00
        -11   -1    0    0    0    0  0.00000000000E+00  0.00000000000E+00  0.45593999997E+02  0.45594000000E+02  0.51100000000E-03 0. -1.
         11   -1    0    0    0    0 -0.00000000000E+00 -0.00000000000E+00 -0.45593999997E+02  0.45594000000E+02  0.51100000000E-03 0.  1.
    9900012    2    1    2    0    0  0.92352836651E+00  0.42936743105E+01 -0.40421238337E+02  0.50528867540E+02  0.30000023375E+02 0.  0.
         12    1    1    2    0    0 -0.92352836651E+00 -0.42936743105E+01  0.40421238337E+02  0.40659132460E+02  0.00000000000E+00 0. -1.
         11    1    3    3    0    0  0.88568970156E+01  0.53664098278E+01 -0.24696882728E+02  0.26780197832E+02  0.51100000000E-03 0.  1.
        -11    1    3    3    0    0  0.47735594531E+00  0.64736482852E+01 -0.54378999937E+01  0.84679836692E+01  0.51100000000E-03 0. -1.
         12    1    3    3    0    0 -0.84107245944E+01 -0.75463838025E+01 -0.10286455615E+02  0.15280686039E+02  0.00000000000E+00 0. -1.
</event>
<event>
 7    1  0.4520156E-012  0.5052886E+02  0.7816164E-02  0.1300439E+00
        -11   -1    0    0    0    0  0.00000000000E+00  0.00000000000E+00  0.45593999997E+02  0.45594000000E+02  0.51100000000E-03 0. -1.
         11   -1    0    0    0    0 -0.00000000000E+00 -0.00000000000E+00 -0.45593999997E+02  0.45594000000E+02  0.51100000000E-03 0.  1.
    9900012    2    1    2    0    0 -0.68199900826E+01  0.16330729286E+02  0.36605468935E+02  0.50528864007E+02  0.30000012635E+02 0.  0.
        -12    1    1    2    0    0  0.68199900826E+01 -0.16330729286E+02 -0.36605468935E+02  0.40659135993E+02  0.00000000000E+00 0.  1.
         11    1    3    3    0    0 -0.94946810473E+01 -0.23877700290E+01  0.24468966569E+02  0.26354899717E+02  0.51100000000E-03 0. -1.
        -11    1    3    3    0    0  0.22165030408E+01  0.79930384173E+01  0.10394358993E+02  0.13298279889E+02  0.51100000000E-03 0.  1.
        -12    1    3    3    0    0  0.45818792393E+00  0.10725460898E+02  0.17421433734E+01  0.10875684400E+02  0.00000000000E+00 0.  1.
</event>
<event>
 7    1  0.4520156E-012  0.5052887E+02  0.7816164E-02  0.1300439E+00
        -11   -1    0    0    0    0  0.00000000000E+00  0.00000000000E+00  0.45593999997E+02  0.45594000000E+02  0.51100000000E-03 0. -1.
         11   -1    0    0    0    0 -0.00000000000E+00 -0.00000000000E+00 -0.45593999997E+02  0.45594000000E+02  0.51100000000E-03 0.  1.
    9900012    2    1    2    0    0 -0.17860613665E+02 -0.32984057036E+02  0.15691253225E+02  0.50528868592E+02  0.30000026573E+02 0.  0.
        -12    1    1    2    0    0  0.17860613665E+02  0.32984057036E+02 -0.15691253225E+02  0.40659131408E+02  0.00000000000E+00 0.  1.
         11    1    3    3    0    0 -0.37476080276E+01 -0.37035330575E+01  0.39944612669E+01  0.66118412043E+01  0.51100000000E-03 0. -1.
        -11    1    3    3    0    0 -0.13916495361E+02 -0.77505313486E+01 -0.49727948231E+01  0.16687368514E+02  0.51100000000E-03 0.  1.
         12    1    3    3    0    0 -0.19651027656E+00 -0.21529992630E+02  0.16669586781E+02  0.27229658874E+02  0.00000000000E+00 0. -1.
</event>
<event>
 7    1  0.4520156E-012  0.5052887E+02  0.7816164E-02  0.1300439E+00
        -11   -1    0    0    0    0  0.00000000000E+00  0.00000000000E+00  0.45593999997E+02  0.45594000000E+02  0.51100000000E-03 0. -1.
         11   -1    0    0    0    0 -0.00000000000E+00 -0.00000000000E+00 -0.45593999997E+02  0.45594000000E+02  0.51100000000E-03 0.  1.
    9900012    2    1    2    0    0 -0.26131715516E+02 -0.24646785396E+02  0.19048213860E+02  0.50528867724E+02  0.30000023935E+02 0.  0.
        -12    1    1    2    0    0  0.26131715516E+02  0.24646785396E+02 -0.19048213860E+02  0.40659132276E+02  0.00000000000E+00 0.  1.
         11    1    3    3    0    0 -0.19709422185E+01 -0.10638279789E+01 -0.62153945918E+00  0.23243611505E+01  0.51100000000E-03 0. -1.
        -11    1    3    3    0    0 -0.13605846652E+02 -0.87209349586E+01 -0.55493996255E+01  0.17087118135E+02  0.51100000000E-03 0.  1.
         12    1    3    3    0    0 -0.10554926645E+02 -0.14862022458E+02  0.25219152945E+02  0.31117388439E+02  0.00000000000E+00 0. -1.
</event>
<event>
 7    1  0.4520156E-012  0.5052886E+02  0.7816164E-02  0.1300439E+00
        -11   -1    0    0    0    0  0.00000000000E+00  0.00000000000E+00  0.45593999997E+02  0.45594000000E+02  0.51100000000E-03 0. -1.
         11   -1    0    0    0    0 -0.00000000000E+00 -0.00000000000E+00 -0.45593999997E+02  0.45594000000E+02  0.51100000000E-03 0.  1.
    9900012    2    1    2    0    0  0.23528362560E+02 -0.17495735536E+02 -0.28168793978E+02  0.50528861287E+02  0.30000004369E+02 0.  0.
         12    1    1    2    0    0 -0.23528362560E+02  0.17495735536E+02  0.28168793978E+02  0.40659138713E+02  0.00000000000E+00 0. -1.
         11    1    3    3    0    0  0.32584026473E+00 -0.29347729088E+00  0.89374086395E+00  0.99552689135E+00  0.51100000000E-03 0. -1.
        -11    1    3    3    0    0  0.56363451761E+01 -0.21288168992E+02 -0.14688661811E+02  0.26470952232E+02  0.51100000000E-03 0.  1.
         12    1    3    3    0    0  0.17566177119E+02  0.40859107472E+01 -0.14373873030E+02  0.23062382164E+02  0.00000000000E+00 0. -1.
</event>
<event>
 7    1  0.4520156E-012  0.5052886E+02  0.7816164E-02  0.1300439E+00
        -11   -1    0    0    0    0  0.00000000000E+00  0.00000000000E+00  0.45593999997E+02  0.45594000000E+02  0.51100000000E-03 0. -1.
         11   -1    0    0    0    0 -0.00000000000E+00 -0.00000000000E+00 -0.45593999997E+02  0.45594000000E+02  0.51100000000E-03 0.  1.
    9900012    2    1    2    0    0  0.13324447757E+02 -0.19565266148E+02  0.33057907885E+02  0.50528858086E+02  0.29999994639E+02 0.  0.
        -12    1    1    2    0    0 -0.13324447757E+02  0.19565266148E+02 -0.33057907885E+02  0.40659141914E+02  0.00000000000E+00 0.  1.
         11    1    3    3    0    0 -0.38266070096E+01  0.20124245962E-01  0.17625103481E+01  0.42130474932E+01  0.51100000000E-03 0. -1.
        -11    1    3    3    0    0 -0.53077639828E+01 -0.51419242750E+01  0.57681969384E+01  0.93746381225E+01  0.51100000000E-03 0.  1.
        -12    1    3    3    0    0  0.22458818749E+02 -0.14443466119E+02  0.25527200598E+02  0.36941172471E+02  0.00000000000E+00 0.  1.
</event>
<event>
 7    1  0.4520156E-012  0.5052886E+02  0.7816164E-02  0.1300439E+00
        -11   -1    0    0    0    0  0.00000000000E+00  0.00000000000E+00  0.45593999997E+02  0.45594000000E+02  0.51100000000E-03 0. -1.
         11   -1    0    0    0    0 -0.00000000000E+00 -0.00000000000E+00 -0.45593999997E+02  0.45594000000E+02  0.51100000000E-03 0.  1.
    9900012    2    1    2    0    0  0.17309775375E+02 -0.19455549812E+02 -0.31225295645E+02  0.50528857976E+02  0.29999994303E+02 0.  0.
         12    1    1    2    0    0 -0.17309775375E+02  0.19455549812E+02  0.31225295645E+02  0.40659142024E+02  0.00000000000E+00 0. -1.
         11    1    3    3    0    0 -0.16662098227E+01 -0.96987424927E+01  0.11858195500E+01  0.99120143956E+01  0.51100000000E-03 0.  1.
        -11    1    3    3    0    0 -0.80881882252E+00 -0.35866330047E+01 -0.61199943219E+01  0.71394996295E+01  0.51100000000E-03 0. -1.
        -12    1    3    3    0    0  0.19784804020E+02 -0.61701743145E+01 -0.26291120874E+02  0.33477343951E+02  0.00000000000E+00 0.  1.
</event>
<event>
 7    1  0.4520156E-012  0.5052885E+02  0.7816164E-02  0.1300439E+00
        -11   -1    0    0    0    0  0.00000000000E+00  0.00000000000E+00  0.45593999997E+02  0.45594000000E+02  0.51100000000E-03 0.  1.
         11   -1    0    0    0    0 -0.00000000000E+00 -0.00000000000E+00 -0.45593999997E+02  0.45594000000E+02  0.51100000000E-03 0. -1.
    9900012    2    1    2    0    0 -0.31758702034E+02  0.19474823839E+02 -0.16287504504E+02  0.50528847016E+02  0.29999960991E+02 0.  0.
         12    1    1    2    0    0  0.31758702034E+02 -0.19474823839E+02  0.16287504504E+02  0.40659152984E+02  0.00000000000E+00 0. -1.
         11    1    3    3    0    0 -0.15440254852E+02  0.87966714475E+01 -0.61156791116E+01  0.18793201688E+02  0.51100000000E-03 0. -1.
        -11    1    3    3    0    0 -0.20713647703E+02  0.73664072180E+01 -0.13007963187E+02  0.25544593616E+02  0.51100000000E-03 0.  1.
         12    1    3    3    0    0  0.43952005210E+01  0.33117451732E+01  0.28361377949E+01  0.61910517123E+01  0.00000000000E+00 0. -1.
</event>
<event>
 7    1  0.4520156E-012  0.5052886E+02  0.7816164E-02  0.1300439E+00
        -11   -1    0    0    0    0  0.00000000000E+00  0.00000000000E+00  0.45593999997E+02  0.45594000000E+02  0.51100000000E-03 0. -1.
         11   -1    0    0    0    0 -0.00000000000E+00 -0.00000000000E+00 -0.45593999997E+02  0.45594000000E+02  0.51100000000E-03 0.  1.
    9900012    2    1    2    0    0 -0.24671978294E+02 -0.42726926899E+01 -0.32034401376E+02  0.50528864652E+02  0.30000014595E+02 0.  0.
         12    1    1    2    0    0  0.24671978294E+02  0.42726926899E+01  0.32034401376E+02  0.40659135348E+02  0.00000000000E+00 0. -1.
         11    1    3    3    0    0 -0.11448319292E+02 -0.70725773610E+00 -0.68504293988E+01  0.13360112698E+02  0.51100000000E-03 0. -1.
        -11    1    3    3    0    0 -0.15326323760E+02  0.67197958738E+01 -0.13878758463E+02  0.21741016382E+02  0.51100000000E-03 0.  1.
         12    1    3    3    0    0  0.21026647572E+01 -0.10285230828E+02 -0.11305213514E+02  0.15427735571E+02  0.00000000000E+00 0. -1.
</event>
<event>
 7    1  0.4520156E-012  0.5052886E+02  0.7816164E-02  0.1300439E+00
        -11   -1    0    0    0    0  0.00000000000E+00  0.00000000000E+00  0.45593999997E+02  0.45594000000E+02  0.51100000000E-03 0. -1.
         11   -1    0    0    0    0 -0.00000000000E+00 -0.00000000000E+00 -0.45593999997E+02  0.45594000000E+02  0.51100000000E-03 0.  1.
    9900012    2    1    2    0    0 -0.29223046472E+02  0.25941457245E+02  0.11234755274E+02  0.50528863571E+02  0.30000011311E+02 0.  0.
        -12    1    1    2    0    0  0.29223046472E+02 -0.25941457245E+02 -0.11234755274E+02  0.40659136429E+02  0.00000000000E+00 0.  1.
         11    1    3    3    0    0  0.19664025074E+00  0.13213200784E+02 -0.23377660756E+01  0.13419854426E+02  0.51100000000E-03 0. -1.
        -11    1    3    3    0    0 -0.44670963178E+01  0.11651914225E+01 -0.25053353833E+01  0.52525542556E+01  0.51100000000E-03 0.  1.
        -12    1    3    3    0    0 -0.24952590405E+02  0.11563065038E+02  0.16077856733E+02  0.31856454889E+02  0.00000000000E+00 0.  1.
</event>
<event>
 7    1  0.4520156E-012  0.5052885E+02  0.7816164E-02  0.1300439E+00
        -11   -1    0    0    0    0  0.00000000000E+00  0.00000000000E+00  0.45593999997E+02  0.45594000000E+02  0.51100000000E-03 0.  1.
         11   -1    0    0    0    0 -0.00000000000E+00 -0.00000000000E+00 -0.45593999997E+02  0.45594000000E+02  0.51100000000E-03 0. -1.
    9900012    2    1    2    0    0 -0.40406606711E+02  0.43755550041E+01 -0.11519902885E+01  0.50528850610E+02  0.29999971915E+02 0.  0.
         12    1    1    2    0    0  0.40406606711E+02 -0.43755550041E+01  0.11519902885E+01  0.40659149390E+02  0.00000000000E+00 0. -1.
         11    1    3    3    0    0 -0.32706959912E+00  0.42479237808E+01  0.43168284597E+01  0.60652155099E+01  0.51100000000E-03 0. -1.
        -11    1    3    3    0    0 -0.19547520557E+02  0.92670341245E+01 -0.20326996386E+01  0.21728215515E+02  0.51100000000E-03 0.  1.
        -12    1    3    3    0    0 -0.20532016555E+02 -0.91394029012E+01 -0.34361191097E+01  0.22735419586E+02  0.00000000000E+00 0.  1.
</event>
<event>
 7    1  0.4520156E-012  0.5052886E+02  0.7816164E-02  0.1300439E+00
        -11   -1    0    0    0    0  0.00000000000E+00  0.00000000000E+00  0.45593999997E+02  0.45594000000E+02  0.51100000000E-03 0. -1.
         11   -1    0    0    0    0 -0.00000000000E+00 -0.00000000000E+00 -0.45593999997E+02  0.45594000000E+02  0.51100000000E-03 0.  1.
    9900012    2    1    2    0    0 -0.31806829195E+02  0.19209799330E+02 -0.16506805844E+02  0.50528863107E+02  0.30000009899E+02 0.  0.
         12    1    1    2    0    0  0.31806829195E+02 -0.19209799330E+02  0.16506805844E+02  0.40659136893E+02  0.00000000000E+00 0. -1.
         11    1    3    3    0    0 -0.42018253391E+01  0.54970643181E+01  0.47534182760E+01  0.83945242787E+01  0.51100000000E-03 0. -1.
        -11    1    3    3    0    0 -0.20292548949E+01 -0.38300731881E+01 -0.64361708249E+01  0.77596154031E+01  0.51100000000E-03 0.  1.
         12    1    3    3    0    0 -0.25575748961E+02  0.17542808200E+02 -0.14824053295E+02  0.34374723425E+02  0.00000000000E+00 0. -1.
</event>
<event>
 7    1  0.4520156E-012  0.5052880E+02  0.7816164E-02  0.1300439E+00
        -11   -1    0    0    0    0  0.00000000000E+00  0.00000000000E+00  0.45593999997E+02  0.45594000000E+02  0.51100000000E-03 0. -1.
         11   -1    0    0    0    0 -0.00000000000E+00 -0.00000000000E+00 -0.45593999997E+02  0.45594000000E+02  0.51100000000E-03 0.  1.
    9900012    2    1    2    0    0  0.39121330405E+02  0.37816122683E+01  0.10411108703E+02  0.50528803397E+02  0.29999828405E+02 0.  0.
        -12    1    1    2    0    0 -0.39121330405E+02 -0.37816122683E+01 -0.10411108703E+02  0.40659196603E+02  0.00000000000E+00 0.  1.
         11    1    3    3    0    0  0.16503490589E+02  0.49669264244E+01 -0.13611828481E+01  0.17288388552E+02  0.51100000000E-03 0. -1.
        -11    1    3    3    0    0  0.16907658775E+02  0.22068959970E+01 -0.27499622181E+01  0.17271410124E+02  0.51100000000E-03 0.  1.
        -12    1    3    3    0    0  0.57101810401E+01 -0.33922101532E+01  0.14522253769E+02  0.15969004721E+02  0.00000000000E+00 0.  1.
</event>
<event>
 7    1  0.4520156E-012  0.5052886E+02  0.7816164E-02  0.1300439E+00
        -11   -1    0    0    0    0  0.00000000000E+00  0.00000000000E+00  0.45593999997E+02  0.45594000000E+02  0.51100000000E-03 0. -1.
         11   -1    0    0    0    0 -0.00000000000E+00 -0.00000000000E+00 -0.45593999997E+02  0.45594000000E+02  0.51100000000E-03 0.  1.
    9900012    2    1    2    0    0 -0.20773965151E+02  0.11717807691E+02 -0.32928729482E+02  0.50528857480E+02  0.29999992796E+02 0.  0.
         12    1    1    2    0    0  0.20773965151E+02 -0.11717807691E+02  0.32928729482E+02  0.40659142520E+02  0.00000000000E+00 0. -1.
         11    1    3    3    0    0 -0.13550514949E+02 -0.22350693122E+01 -0.17155412742E+02  0.21975444861E+02  0.51100000000E-03 0. -1.
        -11    1    3    3    0    0 -0.63977100447E+01 -0.20021235198E+01 -0.89469867406E+01  0.11179792682E+02  0.51100000000E-03 0.  1.
        -12    1    3    3    0    0 -0.82574015749E+00  0.15955000523E+02 -0.68263299989E+01  0.17373619938E+02  0.00000000000E+00 0.  1.
</event>
<event>
 7    1  0.4520156E-012  0.5052890E+02  0.7816164E-02  0.1300439E+00
        -11   -1    0    0    0    0  0.00000000000E+00  0.00000000000E+00  0.45593999997E+02  0.45594000000E+02  0.51100000000E-03 0. -1.
         11   -1    0    0    0    0 -0.00000000000E+00 -0.00000000000E+00 -0.45593999997E+02  0.45594000000E+02  0.51100000000E-03 0.  1.
    9900012    2    1    2    0    0  0.37632512407E+02 -0.73809296804E+01 -0.13508461507E+02  0.50528897141E+02  0.30000113349E+02 0.  0.
         12    1    1    2    0    0 -0.37632512407E+02  0.73809296804E+01  0.13508461507E+02  0.40659102859E+02  0.00000000000E+00 0. -1.
         11    1    3    3    0    0  0.44378377420E+01 -0.84511757850E+01 -0.82678437996E+00  0.95812498478E+01  0.51100000000E-03 0. -1.
        -11    1    3    3    0    0  0.90379500930E+01 -0.81990427998E+01 -0.81645073558E+01  0.14682235025E+02  0.51100000000E-03 0.  1.
         12    1    3    3    0    0  0.24156724572E+02  0.92692889044E+01 -0.45171697714E+01  0.26265412268E+02  0.00000000000E+00 0. -1.
</event>
<event>
 7    1  0.4520156E-012  0.5052886E+02  0.7816164E-02  0.1300439E+00
        -11   -1    0    0    0    0  0.00000000000E+00  0.00000000000E+00  0.45593999997E+02  0.45594000000E+02  0.51100000000E-03 0. -1.
         11   -1    0    0    0    0 -0.00000000000E+00 -0.00000000000E+00 -0.45593999997E+02  0.45594000000E+02  0.51100000000E-03 0.  1.
    9900012    2    1    2    0    0 -0.20403764833E+02 -0.10073817372E+02  0.33695251200E+02  0.50528863644E+02  0.30000011532E+02 0.  0.
        -12    1    1    2    0    0  0.20403764833E+02  0.10073817372E+02 -0.33695251200E+02  0.40659136356E+02  0.00000000000E+00 0.  1.
         11    1    3    3    0    0  0.13822799498E+01 -0.14611038299E+02  0.13625747721E+02  0.20026336142E+02  0.51100000000E-03 0. -1.
        -11    1    3    3    0    0 -0.30148786681E+00 -0.33112646028E+00 -0.26713041526E+00  0.52143895752E+00  0.51100000000E-03 0.  1.
        -12    1    3    3    0    0 -0.21484556916E+02  0.48683473880E+01  0.20336633894E+02  0.29981088545E+02  0.00000000000E+00 0.  1.
</event>
<event>
 7    1  0.4520156E-012  0.5052883E+02  0.7816164E-02  0.1300439E+00
        -11   -1    0    0    0    0  0.00000000000E+00  0.00000000000E+00  0.45593999997E+02  0.45594000000E+02  0.51100000000E-03 0. -1.
         11   -1    0    0    0    0 -0.00000000000E+00 -0.00000000000E+00 -0.45593999997E+02  0.45594000000E+02  0.51100000000E-03 0.  1.
    9900012    2    1    2    0    0 -0.30576583700E+02  0.53937042579E+01  0.26251634467E+02  0.50528833400E+02  0.29999919603E+02 0.  0.
        -12    1    1    2    0    0  0.30576583700E+02 -0.53937042579E+01 -0.26251634467E+02  0.40659166600E+02  0.00000000000E+00 0.  1.
         11    1    3    3    0    0 -0.15422600486E+02  0.76780607490E+01  0.86603509690E+01  0.19282398756E+02  0.51100000000E-03 0. -1.
        -11    1    3    3    0    0  0.50239866287E+01 -0.21807833552E+01  0.23539989408E+01  0.59613395275E+01  0.51100000000E-03 0.  1.
         12    1    3    3    0    0 -0.20177969843E+02 -0.10357313587E+00  0.15237284557E+02  0.25285095117E+02  0.00000000000E+00 0. -1.
</event>
<event>
 7    1  0.4520156E-012  0.5052885E+02  0.7816164E-02  0.1300439E+00
        -11   -1    0    0    0    0  0.00000000000E+00  0.00000000000E+00  0.45593999997E+02  0.45594000000E+02  0.51100000000E-03 0. -1.
         11   -1    0    0    0    0 -0.00000000000E+00 -0.00000000000E+00 -0.45593999997E+02  0.45594000000E+02  0.51100000000E-03 0.  1.
    9900012    2    1    2    0    0 -0.33464400639E+02  0.11164564584E+02  0.20215160235E+02  0.50528852003E+02  0.29999976149E+02 0.  0.
        -12    1    1    2    0    0  0.33464400639E+02 -0.11164564584E+02 -0.20215160235E+02  0.40659147997E+02  0.00000000000E+00 0.  1.
         11    1    3    3    0    0 -0.31976814953E+02  0.43252520092E+01  0.49770873795E+01  0.32649592624E+02  0.51100000000E-03 0. -1.
        -11    1    3    3    0    0 -0.23764726958E+01  0.48242670137E+01  0.47905462120E+01  0.72021182970E+01  0.51100000000E-03 0.  1.
        -12    1    3    3    0    0  0.88888700911E+00  0.20150455613E+01  0.10447526643E+02  0.10677141083E+02  0.00000000000E+00 0.  1.
</event>
<event>
 7    1  0.4520156E-012  0.5052886E+02  0.7816164E-02  0.1300439E+00
        -11   -1    0    0    0    0  0.00000000000E+00  0.00000000000E+00  0.45593999997E+02  0.45594000000E+02  0.51100000000E-03 0. -1.
         11   -1    0    0    0    0 -0.00000000000E+00 -0.00000000000E+00 -0.45593999997E+02  0.45594000000E+02  0.51100000000E-03 0.  1.
    9900012    2    1    2    0    0 -0.17827771058E+02  0.44459635810E+01 -0.36270785512E+02  0.50528857182E+02  0.29999991890E+02 0.  0.
         12    1    1    2    0    0  0.17827771058E+02 -0.44459635810E+01  0.36270785512E+02  0.40659142818E+02  0.00000000000E+00 0. -1.
         11    1    3    3    0    0 -0.10709680798E+02  0.28098551463E+01 -0.21282288163E+02  0.23990171705E+02  0.51100000000E-03 0. -1.
        -11    1    3    3    0    0 -0.28044939375E+00  0.67100380854E+00 -0.18689746777E+02  0.18703890847E+02  0.51100000000E-03 0.  1.
         12    1    3    3    0    0 -0.68376408662E+01  0.96510462615E+00  0.37012494284E+01  0.78347946294E+01  0.00000000000E+00 0. -1.
</event>
<event>
 7    1  0.4520156E-012  0.5052890E+02  0.7816164E-02  0.1300439E+00
        -11   -1    0    0    0    0  0.00000000000E+00  0.00000000000E+00  0.45593999997E+02  0.45594000000E+02  0.51100000000E-03 0. -1.
         11   -1    0    0    0    0 -0.00000000000E+00 -0.00000000000E+00 -0.45593999997E+02  0.45594000000E+02  0.51100000000E-03 0.  1.
    9900012    2    1    2    0    0 -0.22831698961E+02  0.40350340119E+01  0.33400513550E+02  0.50528901605E+02  0.30000126917E+02 0.  0.
        -12    1    1    2    0    0  0.22831698961E+02 -0.40350340119E+01 -0.33400513550E+02  0.40659098395E+02  0.00000000000E+00 0.  1.
         11    1    3    3    0    0 -0.33871645504E+01  0.11471477488E+02  0.53162449279E+01  0.13089313956E+02  0.51100000000E-03 0.  1.
        -11    1    3    3    0    0 -0.10435495546E+01 -0.61725050851E+01  0.82258691505E+01  0.10337008186E+02  0.51100000000E-03 0. -1.
        -12    1    3    3    0    0 -0.18400984856E+02 -0.12639383913E+01  0.19858399471E+02  0.27102579462E+02  0.00000000000E+00 0.  1.
</event>
<event>
 7    1  0.4520156E-012  0.5052886E+02  0.7816164E-02  0.1300439E+00
        -11   -1    0    0    0    0  0.00000000000E+00  0.00000000000E+00  0.45593999997E+02  0.45594000000E+02  0.51100000000E-03 0. -1.
         11   -1    0    0    0    0 -0.00000000000E+00 -0.00000000000E+00 -0.45593999997E+02  0.45594000000E+02  0.51100000000E-03 0.  1.
    9900012    2    1    2    0    0  0.21300683156E+02 -0.17875969194E+02  0.29663047699E+02  0.50528858638E+02  0.29999996315E+02 0.  0.
        -12    1    1    2    0    0 -0.21300683156E+02  0.17875969194E+02 -0.29663047699E+02  0.40659141362E+02  0.00000000000E+00 0.  1.
         11    1    3    3    0    0  0.21308828096E+01 -0.89384241790E+01  0.42880398692E+00  0.91989108851E+01  0.51100000000E-03 0.  1.
        -11    1    3    3    0    0  0.26474533700E+01 -0.93561245499E+01  0.27381557042E+01  0.10101661886E+02  0.51100000000E-03 0. -1.
        -12    1    3    3    0    0  0.16522346977E+02  0.41857953460E+00  0.26496088008E+02  0.31228285866E+02  0.00000000000E+00 0.  1.
</event>
<event>
 7    1  0.4520156E-012  0.5052885E+02  0.7816164E-02  0.1300439E+00
        -11   -1    0    0    0    0  0.00000000000E+00  0.00000000000E+00  0.45593999997E+02  0.45594000000E+02  0.51100000000E-03 0. -1.
         11   -1    0    0    0    0 -0.00000000000E+00 -0.00000000000E+00 -0.45593999997E+02  0.45594000000E+02  0.51100000000E-03 0.  1.
    9900012    2    1    2    0    0 -0.11689030450E+02  0.59517368197E+00 -0.38938137861E+02  0.50528852878E+02  0.29999978808E+02 0.  0.
         12    1    1    2    0    0  0.11689030450E+02 -0.59517368197E+00  0.38938137861E+02  0.40659147122E+02  0.00000000000E+00 0. -1.
         11    1    3    3    0    0 -0.16850221852E+01 -0.18845519534E+01 -0.94110750057E+00  0.26975024408E+01  0.51100000000E-03 0. -1.
        -11    1    3    3    0    0 -0.12252216706E+02  0.12504877549E+02 -0.16742919081E+02  0.24224246456E+02  0.51100000000E-03 0.  1.
        -12    1    3    3    0    0  0.22482084417E+01 -0.10025151914E+02 -0.21254111279E+02  0.23607103981E+02  0.00000000000E+00 0.  1.
</event>
<event>
 7    1  0.4520156E-012  0.5052886E+02  0.7816164E-02  0.1300439E+00
        -11   -1    0    0    0    0  0.00000000000E+00  0.00000000000E+00  0.45593999997E+02  0.45594000000E+02  0.51100000000E-03 0. -1.
         11   -1    0    0    0    0 -0.00000000000E+00 -0.00000000000E+00 -0.45593999997E+02  0.45594000000E+02  0.51100000000E-03 0.  1.
    9900012    2    1    2    0    0  0.13532531898E+02  0.19443760100E+02 -0.33045065353E+02  0.50528861168E+02  0.30000004006E+02 0.  0.
         12    1    1    2    0    0 -0.13532531898E+02 -0.19443760100E+02  0.33045065353E+02  0.40659138832E+02  0.00000000000E+00 0. -1.
         11    1    3    3    0    0 -0.28368613788E+01  0.10507750113E+02 -0.18181487637E+02  0.21190259269E+02  0.51100000000E-03 0. -1.
        -11    1    3    3    0    0  0.59650989748E+01  0.10506680348E+02 -0.14412540733E+02  0.18806755923E+02  0.51100000000E-03 0.  1.
         12    1    3    3    0    0  0.10404294302E+02 -0.15706703613E+01 -0.45103698293E+00  0.10531845976E+02  0.00000000000E+00 0. -1.
</event>
<event>
 7    1  0.4520156E-012  0.5052887E+02  0.7816164E-02  0.1300439E+00
        -11   -1    0    0    0    0  0.00000000000E+00  0.00000000000E+00  0.45593999997E+02  0.45594000000E+02  0.51100000000E-03 0. -1.
         11   -1    0    0    0    0 -0.00000000000E+00 -0.00000000000E+00 -0.45593999997E+02  0.45594000000E+02  0.51100000000E-03 0.  1.
    9900012    2    1    2    0    0  0.26992584069E+01  0.11642363248E+02 -0.38863021849E+02  0.50528867136E+02  0.30000022148E+02 0.  0.
         12    1    1    2    0    0 -0.26992584069E+01 -0.11642363248E+02  0.38863021849E+02  0.40659132864E+02  0.00000000000E+00 0. -1.
         11    1    3    3    0    0 -0.28429521398E+01  0.59989240319E+01 -0.15616789054E+02  0.16969194649E+02  0.51100000000E-03 0. -1.
        -11    1    3    3    0    0  0.68265592020E+01  0.84722770335E+01 -0.26749297629E+02  0.28877436046E+02  0.51100000000E-03 0.  1.
         12    1    3    3    0    0 -0.12843486553E+01 -0.28288378176E+01  0.35030648338E+01  0.46822364417E+01  0.00000000000E+00 0. -1.
</event>
<event>
 7    1  0.4520156E-012  0.5052884E+02  0.7816164E-02  0.1300439E+00
        -11   -1    0    0    0    0  0.00000000000E+00  0.00000000000E+00  0.45593999997E+02  0.45594000000E+02  0.51100000000E-03 0. -1.
         11   -1    0    0    0    0 -0.00000000000E+00 -0.00000000000E+00 -0.45593999997E+02  0.45594000000E+02  0.51100000000E-03 0.  1.
    9900012    2    1    2    0    0 -0.67650839012E+01 -0.27160249922E+01 -0.40000299860E+02  0.50528841858E+02  0.29999945312E+02 0.  0.
         12    1    1    2    0    0  0.67650839012E+01  0.27160249922E+01  0.40000299860E+02  0.40659158142E+02  0.00000000000E+00 0. -1.
         11    1    3    3    0    0 -0.29963030661E+01 -0.71210794220E+01 -0.12530665308E+02  0.14720909534E+02  0.51100000000E-03 0. -1.
        -11    1    3    3    0    0 -0.62555563294E+01 -0.80914355714E+01 -0.12401161673E+02  0.16074580110E+02  0.51100000000E-03 0.  1.
        -12    1    3    3    0    0  0.24867754942E+01  0.12496490001E+02 -0.15068472878E+02  0.19733352214E+02  0.00000000000E+00 0.  1.
</event>
<event>
 7    1  0.4520156E-012  0.5052886E+02  0.7816164E-02  0.1300439E+00
        -11   -1    0    0    0    0  0.00000000000E+00  0.00000000000E+00  0.45593999997E+02  0.45594000000E+02  0.51100000000E-03 0. -1.
         11   -1    0    0    0    0 -0.00000000000E+00 -0.00000000000E+00 -0.45593999997E+02  0.45594000000E+02  0.51100000000E-03 0.  1.
    9900012    2    1    2    0    0 -0.33613827529E+01 -0.72413586004E+01  0.39867650086E+02  0.50528859677E+02  0.29999999474E+02 0.  0.
        -12    1    1    2    0    0  0.33613827529E+01  0.72413586004E+01 -0.39867650086E+02  0.40659140323E+02  0.00000000000E+00 0.  1.
         11    1    3    3    0    0 -0.44323196755E+01 -0.45161844403E+01  0.22903920098E+01  0.67295821136E+01  0.51100000000E-03 0. -1.
        -11    1    3    3    0    0 -0.20290582935E+01 -0.12284598888E+02  0.21013865470E+02  0.24425621581E+02  0.51100000000E-03 0.  1.
         12    1    3    3    0    0  0.30999952161E+01  0.95594247276E+01  0.16563392607E+02  0.19373655982E+02  0.00000000000E+00 0. -1.
</event>
<event>
 7    1  0.4520156E-012  0.5052886E+02  0.7816164E-02  0.1300439E+00
        -11   -1    0    0    0    0  0.00000000000E+00  0.00000000000E+00  0.45593999997E+02  0.45594000000E+02  0.51100000000E-03 0. -1.
         11   -1    0    0    0    0 -0.00000000000E+00 -0.00000000000E+00 -0.45593999997E+02  0.45594000000E+02  0.51100000000E-03 0.  1.
    9900012    2    1    2    0    0  0.39801492864E+01  0.40454932261E+02 -0.85016447025E+00  0.50528856967E+02  0.29999991237E+02 0.  0.
         12    1    1    2    0    0 -0.39801492864E+01 -0.40454932261E+02  0.85016447025E+00  0.40659143033E+02  0.00000000000E+00 0. -1.
         11    1    3    3    0    0  0.22145751378E+01  0.42364747874E+02 -0.23549050863E-01  0.42422597283E+02  0.51100000000E-03 0.  1.
        -11    1    3    3    0    0 -0.26664438495E+01  0.12137708817E+00 -0.16841657777E+01  0.31561162570E+01  0.51100000000E-03 0. -1.
        -12    1    3    3    0    0  0.44320179980E+01 -0.20311927014E+01  0.85755035834E+00  0.49501434264E+01  0.00000000000E+00 0.  1.
</event>
<event>
 7    1  0.4520156E-012  0.5052886E+02  0.7816164E-02  0.1300439E+00
        -11   -1    0    0    0    0  0.00000000000E+00  0.00000000000E+00  0.45593999997E+02  0.45594000000E+02  0.51100000000E-03 0. -1.
         11   -1    0    0    0    0 -0.00000000000E+00 -0.00000000000E+00 -0.45593999997E+02  0.45594000000E+02  0.51100000000E-03 0.  1.
    9900012    2    1    2    0    0 -0.33658446848E+02  0.17215362593E+02  0.14963486475E+02  0.50528859811E+02  0.29999999882E+02 0.  0.
        -12    1    1    2    0    0  0.33658446848E+02 -0.17215362593E+02 -0.14963486475E+02  0.40659140189E+02  0.00000000000E+00 0.  1.
         11    1    3    3    0    0 -0.47882405176E+01 -0.33739905669E+01  0.96945063555E+01  0.11326716794E+02  0.51100000000E-03 0. -1.
        -11    1    3    3    0    0 -0.54802966520E-01  0.48485554807E+01  0.40950536454E+01  0.63467281519E+01  0.51100000000E-03 0.  1.
        -12    1    3    3    0    0 -0.28815403364E+02  0.15740797679E+02  0.11739264743E+01  0.32855414865E+02  0.00000000000E+00 0.  1.
</event>
<event>
 7    1  0.4520156E-012  0.5052887E+02  0.7816164E-02  0.1300439E+00
        -11   -1    0    0    0    0  0.00000000000E+00  0.00000000000E+00  0.45593999997E+02  0.45594000000E+02  0.51100000000E-03 0. -1.
         11   -1    0    0    0    0 -0.00000000000E+00 -0.00000000000E+00 -0.45593999997E+02  0.45594000000E+02  0.51100000000E-03 0.  1.
    9900012    2    1    2    0    0  0.26094357396E+01  0.20976070162E+02  0.34732700396E+02  0.50528866325E+02  0.30000019683E+02 0.  0.
        -12    1    1    2    0    0 -0.26094357396E+01 -0.20976070162E+02 -0.34732700396E+02  0.40659133675E+02  0.00000000000E+00 0.  1.
         11    1    3    3    0    0  0.11530891198E+01 -0.57062714902E+01  0.66788963603E+01  0.88599551743E+01  0.51100000000E-03 0. -1.
        -11    1    3    3    0    0 -0.58193246153E+01  0.41910826506E+01  0.64683403492E+01  0.96575949333E+01  0.51100000000E-03 0.  1.
         12    1    3    3    0    0  0.72756712350E+01  0.22491259002E+02  0.21585463687E+02  0.32011316218E+02  0.00000000000E+00 0. -1.
</event>
<event>
 7    1  0.4520156E-012  0.5052886E+02  0.7816164E-02  0.1300439E+00
        -11   -1    0    0    0    0  0.00000000000E+00  0.00000000000E+00  0.45593999997E+02  0.45594000000E+02  0.51100000000E-03 0.  1.
         11   -1    0    0    0    0 -0.00000000000E+00 -0.00000000000E+00 -0.45593999997E+02  0.45594000000E+02  0.51100000000E-03 0. -1.
    9900012    2    1    2    0    0  0.25240288500E+02  0.25512618662E+02 -0.19110205512E+02  0.50528857986E+02  0.29999994336E+02 0.  0.
        -12    1    1    2    0    0 -0.25240288500E+02 -0.25512618662E+02  0.19110205512E+02  0.40659142014E+02  0.00000000000E+00 0.  1.
         11    1    3    3    0    0  0.35562769837E+01  0.10707125643E+02 -0.14411964830E+02  0.18302851582E+02  0.51100000000E-03 0. -1.
        -11    1    3    3    0    0  0.23067146053E+01 -0.33405701416E+01  0.24391099203E+01  0.47359897177E+01  0.51100000000E-03 0.  1.
         12    1    3    3    0    0  0.19377296911E+02  0.18146063161E+02 -0.71373506028E+01  0.27490016687E+02  0.00000000000E+00 0. -1.
</event>
<event>
 7    1  0.4520156E-012  0.5052886E+02  0.7816164E-02  0.1300439E+00
        -11   -1    0    0    0    0  0.00000000000E+00  0.00000000000E+00  0.45593999997E+02  0.45594000000E+02  0.51100000000E-03 0. -1.
         11   -1    0    0    0    0 -0.00000000000E+00 -0.00000000000E+00 -0.45593999997E+02  0.45594000000E+02  0.51100000000E-03 0.  1.
    9900012    2    1    2    0    0 -0.21974342964E+02  0.28334610617E+02  0.19168818466E+02  0.50528861927E+02  0.30000006313E+02 0.  0.
        -12    1    1    2    0    0  0.21974342964E+02 -0.28334610617E+02 -0.19168818466E+02  0.40659138073E+02  0.00000000000E+00 0.  1.
         11    1    3    3    0    0 -0.26441156798E+01  0.17136162410E+02  0.26417538675E+01  0.17539049964E+02  0.51100000000E-03 0. -1.
        -11    1    3    3    0    0 -0.17323908631E+01  0.87885264110E+01  0.34909259182E+00  0.89644431215E+01  0.51100000000E-03 0.  1.
        -12    1    3    3    0    0 -0.17597836421E+02  0.24099217956E+01  0.16177972006E+02  0.24025368842E+02  0.00000000000E+00 0.  1.
</event>
<event>
 7    1  0.4520156E-012  0.5052886E+02  0.7816164E-02  0.1300439E+00
        -11   -1    0    0    0    0  0.00000000000E+00  0.00000000000E+00  0.45593999997E+02  0.45594000000E+02  0.51100000000E-03 0. -1.
         11   -1    0    0    0    0 -0.00000000000E+00 -0.00000000000E+00 -0.45593999997E+02  0.45594000000E+02  0.51100000000E-03 0.  1.
    9900012    2    1    2    0    0  0.24838849829E+02  0.31444534161E+02  0.68875684894E+01  0.50528858480E+02  0.29999995835E+02 0.  0.
        -12    1    1    2    0    0 -0.24838849829E+02 -0.31444534161E+02 -0.68875684894E+01  0.40659141520E+02  0.00000000000E+00 0.  1.
         11    1    3    3    0    0 -0.10098779184E+01  0.80356085136E+01 -0.44852769049E+01  0.92578921342E+01  0.51100000000E-03 0. -1.
        -11    1    3    3    0    0  0.10029988291E+02  0.15766957455E+02 -0.25433016728E+01  0.18859109104E+02  0.51100000000E-03 0.  1.
         12    1    3    3    0    0  0.15818739456E+02  0.76419681924E+01  0.13916147067E+02  0.22411857242E+02  0.00000000000E+00 0. -1.
</event>
<event>
 7    1  0.4520156E-012  0.5052885E+02  0.7816164E-02  0.1300439E+00
        -11   -1    0    0    0    0  0.00000000000E+00  0.00000000000E+00  0.45593999997E+02  0.45594000000E+02  0.51100000000E-03 0.  1.
         11   -1    0    0    0    0 -0.00000000000E+00 -0.00000000000E+00 -0.45593999997E+02  0.45594000000E+02  0.51100000000E-03 0. -1.
    9900012    2    1    2    0    0  0.91827185815E+01  0.35124647767E+02 -0.18305829845E+02  0.50528848415E+02  0.29999965243E+02 0.  0.
         12    1    1    2    0    0 -0.91827185815E+01 -0.35124647767E+02  0.18305829845E+02  0.40659151585E+02  0.00000000000E+00 0. -1.
         11    1    3    3    0    0 -0.14804453941E+01  0.23886180511E+01 -0.82559242847E+01  0.87210951614E+01  0.51100000000E-03 0. -1.
        -11    1    3    3    0    0 -0.55218951718E+01  0.29437773796E+01  0.55759368151E+00  0.62823612220E+01  0.51100000000E-03 0.  1.
        -12    1    3    3    0    0  0.16185059147E+02  0.29792252336E+02 -0.10607499242E+02  0.35525392032E+02  0.00000000000E+00 0.  1.
</event>
<event>
 7    1  0.4520156E-012  0.5052886E+02  0.7816164E-02  0.1300439E+00
        -11   -1    0    0    0    0  0.00000000000E+00  0.00000000000E+00  0.45593999997E+02  0.45594000000E+02  0.51100000000E-03 0. -1.
         11   -1    0    0    0    0 -0.00000000000E+00 -0.00000000000E+00 -0.45593999997E+02  0.45594000000E+02  0.51100000000E-03 0.  1.
    9900012    2    1    2    0    0 -0.12813639761E+02 -0.27656571291E+01 -0.38488019384E+02  0.50528857616E+02  0.29999993211E+02 0.  0.
         12    1    1    2    0    0  0.12813639761E+02  0.27656571291E+01  0.38488019384E+02  0.40659142384E+02  0.00000000000E+00 0. -1.
         11    1    3    3    0    0  0.22759355290E+01  0.15219897996E+01 -0.13327415978E+02  0.13605747036E+02  0.51100000000E-03 0. -1.
        -11    1    3    3    0    0  0.13115175754E+01 -0.32400278190E+01 -0.19083531204E+02  0.19401005698E+02  0.51100000000E-03 0.  1.
         12    1    3    3    0    0 -0.16401092865E+02 -0.10476191097E+01 -0.60770722020E+01  0.17522104883E+02  0.00000000000E+00 0. -1.
</event>
<event>
 7    1  0.5135039E-012  0.5052886E+02  0.7816164E-02  0.1300439E+00
        -11   -1    0    0    0    0  0.00000000000E+00  0.00000000000E+00  0.45593999997E+02  0.45594000000E+02  0.51100000000E-03 0. -1.
         11   -1    0    0    0    0 -0.00000000000E+00 -0.00000000000E+00 -0.45593999997E+02  0.45594000000E+02  0.51100000000E-03 0.  1.
    9900012    2    1    2    0    0 -0.59042285063E+01 -0.23493544399E+02  0.32655152425E+02  0.50528861758E+02  0.30000005800E+02 0.  0.
        -12    1    1    2    0    0  0.59042285063E+01  0.23493544399E+02 -0.32655152425E+02  0.40659138242E+02  0.00000000000E+00 0.  1.
         11    1    3    3    0    0  0.37897412056E+01 -0.14350640482E+02  0.16438302863E+02  0.22147704665E+02  0.51100000000E-03 0. -1.
        -11    1    3    3    0    0 -0.11655470484E+02 -0.95368966627E+01  0.34389947951E+01  0.15447623624E+02  0.51100000000E-03 0.  1.
         12    1    3    3    0    0  0.19615007720E+01  0.39399274587E+00  0.12777854767E+02  0.12933533469E+02  0.00000000000E+00 0. -1.
</event>
<event>
 7    1  0.4520156E-012  0.5052886E+02  0.7816164E-02  0.1300439E+00
        -11   -1    0    0    0    0  0.00000000000E+00  0.00000000000E+00  0.45593999997E+02  0.45594000000E+02  0.51100000000E-03 0.  1.
         11   -1    0    0    0    0 -0.00000000000E+00 -0.00000000000E+00 -0.45593999997E+02  0.45594000000E+02  0.51100000000E-03 0. -1.
    9900012    2    1    2    0    0  0.32003374092E+01 -0.40040819577E+02 -0.62972906042E+01  0.50528864977E+02  0.30000015583E+02 0.  0.
         12    1    1    2    0    0 -0.32003374092E+01  0.40040819577E+02  0.62972906042E+01  0.40659135023E+02  0.00000000000E+00 0. -1.
         11    1    3    3    0    0 -0.88480000863E+01 -0.28396927473E+02 -0.75161821865E+01  0.30678422227E+02  0.51100000000E-03 0. -1.
        -11    1    3    3    0    0  0.14539546664E+01  0.16677527899E+01 -0.14272145082E+01  0.26329308866E+01  0.51100000000E-03 0.  1.
        -12    1    3    3    0    0  0.10594382829E+02 -0.13311644894E+02  0.26461060904E+01  0.17217511863E+02  0.00000000000E+00 0.  1.
</event>
<event>
 7    1  0.4520156E-012  0.5052886E+02  0.7816164E-02  0.1300439E+00
        -11   -1    0    0    0    0  0.00000000000E+00  0.00000000000E+00  0.45593999997E+02  0.45594000000E+02  0.51100000000E-03 0. -1.
         11   -1    0    0    0    0 -0.00000000000E+00 -0.00000000000E+00 -0.45593999997E+02  0.45594000000E+02  0.51100000000E-03 0.  1.
    9900012    2    1    2    0    0 -0.79346591149E+01  0.16798463447E+01  0.39842002279E+02  0.50528857798E+02  0.29999993763E+02 0.  0.
        -12    1    1    2    0    0  0.79346591149E+01 -0.16798463447E+01 -0.39842002279E+02  0.40659142202E+02  0.00000000000E+00 0.  1.
         11    1    3    3    0    0  0.35331684603E+01  0.89866629667E+01  0.15852249671E+02  0.18561713567E+02  0.51100000000E-03 0. -1.
        -11    1    3    3    0    0 -0.81665495212E+01 -0.49517780098E+00  0.16053784970E+01  0.83375639437E+01  0.51100000000E-03 0.  1.
         12    1    3    3    0    0 -0.33012780540E+01 -0.68116388211E+01  0.22384374110E+02  0.23629580287E+02  0.00000000000E+00 0. -1.
</event>
<event>
 7    1  0.4520156E-012  0.5052883E+02  0.7816164E-02  0.1300439E+00
        -11   -1    0    0    0    0  0.00000000000E+00  0.00000000000E+00  0.45593999997E+02  0.45594000000E+02  0.51100000000E-03 0. -1.
         11   -1    0    0    0    0 -0.00000000000E+00 -0.00000000000E+00 -0.45593999997E+02  0.45594000000E+02  0.51100000000E-03 0.  1.
    9900012    2    1    2    0    0  0.21003958745E+02 -0.11643249562E+02 -0.32809096075E+02  0.50528827252E+02  0.29999900916E+02 0.  0.
         12    1    1    2    0    0 -0.21003958745E+02  0.11643249562E+02  0.32809096075E+02  0.40659172748E+02  0.00000000000E+00 0. -1.
         11    1    3    3    0    0  0.26366189526E+01  0.68461911607E-01 -0.49773246079E-01  0.26379772880E+01  0.51100000000E-03 0. -1.
        -11    1    3    3    0    0  0.25323654992E+02 -0.69972381948E+01 -0.22201753369E+02  0.34397190255E+02  0.51100000000E-03 0.  1.
         12    1    3    3    0    0 -0.69563152005E+01 -0.47144732784E+01 -0.10557569459E+02  0.13493659709E+02  0.00000000000E+00 0. -1.
</event>
<event>
 7    1  0.4520156E-012  0.5052886E+02  0.7816164E-02  0.1300439E+00
        -11   -1    0    0    0    0  0.00000000000E+00  0.00000000000E+00  0.45593999997E+02  0.45594000000E+02  0.51100000000E-03 0. -1.
         11   -1    0    0    0    0 -0.00000000000E+00 -0.00000000000E+00 -0.45593999997E+02  0.45594000000E+02  0.51100000000E-03 0.  1.
    9900012    2    1    2    0    0 -0.15111553265E+02 -0.18410654784E+02 -0.32952308764E+02  0.50528857061E+02  0.29999991523E+02 0.  0.
         12    1    1    2    0    0  0.15111553265E+02  0.18410654784E+02  0.32952308764E+02  0.40659142939E+02  0.00000000000E+00 0. -1.
         11    1    3    3    0    0 -0.10943369863E+02 -0.74198655614E+01 -0.58427600605E+01  0.14455088872E+02  0.51100000000E-03 0. -1.
        -11    1    3    3    0    0  0.77509845111E+01 -0.48543322573E+01 -0.55860163529E+01  0.10716617074E+02  0.51100000000E-03 0.  1.
         12    1    3    3    0    0 -0.11919167912E+02 -0.61364569655E+01 -0.21523532351E+02  0.25357151115E+02  0.00000000000E+00 0. -1.
</event>
<event>
 7    1  0.4520156E-012  0.5052885E+02  0.7816164E-02  0.1300439E+00
        -11   -1    0    0    0    0  0.00000000000E+00  0.00000000000E+00  0.45593999997E+02  0.45594000000E+02  0.51100000000E-03 0. -1.
         11   -1    0    0    0    0 -0.00000000000E+00 -0.00000000000E+00 -0.45593999997E+02  0.45594000000E+02  0.51100000000E-03 0.  1.
    9900012    2    1    2    0    0 -0.19246598184E+01 -0.26156184198E+02 -0.31069540436E+02  0.50528848138E+02  0.29999964400E+02 0.  0.
         12    1    1    2    0    0  0.19246598184E+01  0.26156184198E+02  0.31069540436E+02  0.40659151862E+02  0.00000000000E+00 0. -1.
         11    1    3    3    0    0 -0.65026454943E+01 -0.24957168360E+01  0.26371892897E+01  0.74476686662E+01  0.51100000000E-03 0. -1.
        -11    1    3    3    0    0 -0.36369024918E+01 -0.41515631503E+01 -0.52737114356E+01  0.76337781532E+01  0.51100000000E-03 0.  1.
        -12    1    3    3    0    0  0.82148881676E+01 -0.19508904211E+02 -0.28433018290E+02  0.35447401319E+02  0.00000000000E+00 0.  1.
</event>
<event>
 7    1  0.4520156E-012  0.5052886E+02  0.7816164E-02  0.1300439E+00
        -11   -1    0    0    0    0  0.00000000000E+00  0.00000000000E+00  0.45593999997E+02  0.45594000000E+02  0.51100000000E-03 0.  1.
         11   -1    0    0    0    0 -0.00000000000E+00 -0.00000000000E+00 -0.45593999997E+02  0.45594000000E+02  0.51100000000E-03 0. -1.
    9900012    2    1    2    0    0 -0.58327337884E+01 -0.20743826541E+02 -0.34479536253E+02  0.50528861504E+02  0.30000005029E+02 0.  0.
         12    1    1    2    0    0  0.58327337884E+01  0.20743826541E+02  0.34479536253E+02  0.40659138496E+02  0.00000000000E+00 0. -1.
         11    1    3    3    0    0  0.31341218450E+01 -0.11251767003E+02 -0.21307050392E+02  0.24298464501E+02  0.51100000000E-03 0. -1.
        -11    1    3    3    0    0  0.49370393082E+01 -0.38665137368E+01 -0.84160656226E+01  0.10495448844E+02  0.51100000000E-03 0.  1.
        -12    1    3    3    0    0 -0.13903894942E+02 -0.56255458008E+01 -0.47564202377E+01  0.15734948159E+02  0.00000000000E+00 0.  1.
</event>
<event>
 7    1  0.4520156E-012  0.5052886E+02  0.7816164E-02  0.1300439E+00
        -11   -1    0    0    0    0  0.00000000000E+00  0.00000000000E+00  0.45593999997E+02  0.45594000000E+02  0.51100000000E-03 0. -1.
         11   -1    0    0    0    0 -0.00000000000E+00 -0.00000000000E+00 -0.45593999997E+02  0.45594000000E+02  0.51100000000E-03 0.  1.
    9900012    2    1    2    0    0 -0.21139028319E+01 -0.56863537321E+01  0.40204009270E+02  0.50528861232E+02  0.30000004200E+02 0.  0.
        -12    1    1    2    0    0  0.21139028319E+01  0.56863537321E+01 -0.40204009270E+02  0.40659138768E+02  0.00000000000E+00 0.  1.
         11    1    3    3    0    0  0.25613969173E+01 -0.83278944194E+00  0.39935027861E+00  0.27228245130E+01  0.51100000000E-03 0. -1.
        -11    1    3    3    0    0 -0.13000065923E+01  0.69700919097E+01  0.10749646657E+01  0.71713142215E+01  0.51100000000E-03 0.  1.
         12    1    3    3    0    0 -0.33752931569E+01 -0.11823656200E+02  0.38729694326E+02  0.40634722497E+02  0.00000000000E+00 0. -1.
</event>
<event>
 7    1  0.4520156E-012  0.5052882E+02  0.7816164E-02  0.1300439E+00
        -11   -1    0    0    0    0  0.00000000000E+00  0.00000000000E+00  0.45593999997E+02  0.45594000000E+02  0.51100000000E-03 0. -1.
         11   -1    0    0    0    0 -0.00000000000E+00 -0.00000000000E+00 -0.45593999997E+02  0.45594000000E+02  0.51100000000E-03 0.  1.
    9900012    2    1    2    0    0  0.20684622312E+02 -0.33696286665E+02 -0.94802769991E+01  0.50528819152E+02  0.29999876295E+02 0.  0.
         12    1    1    2    0    0 -0.20684622312E+02  0.33696286665E+02  0.94802769991E+01  0.40659180848E+02  0.00000000000E+00 0. -1.
         11    1    3    3    0    0 -0.36703860979E+01  0.95136149434E+00 -0.11191814854E+00  0.37933295051E+01  0.51100000000E-03 0. -1.
        -11    1    3    3    0    0  0.59258560960E+01 -0.21762912542E+02 -0.88891996846E+01  0.24243720920E+02  0.51100000000E-03 0.  1.
        -12    1    3    3    0    0  0.18429152314E+02 -0.12884735618E+02 -0.47915916595E+00  0.22491768727E+02  0.00000000000E+00 0.  1.
</event>
<event>
 7    1  0.4520156E-012  0.5052886E+02  0.7816164E-02  0.1300439E+00
        -11   -1    0    0    0    0  0.00000000000E+00  0.00000000000E+00  0.45593999997E+02  0.45594000000E+02  0.51100000000E-03 0. -1.
         11   -1    0    0    0    0 -0.00000000000E+00 -0.00000000000E+00 -0.45593999997E+02  0.45594000000E+02  0.51100000000E-03 0.  1.
    9900012    2    1    2    0    0 -0.23627679186E+02 -0.17165115246E+02  0.28288813639E+02  0.50528863484E+02  0.30000011046E+02 0.  0.
        -12    1    1    2    0    0  0.23627679186E+02  0.17165115246E+02 -0.28288813639E+02  0.40659136516E+02  0.00000000000E+00 0.  1.
         11    1    3    3    0    0  0.29638862081E+01 -0.28145214337E+01  0.44435055937E+01  0.60374576254E+01  0.51100000000E-03 0. -1.
        -11    1    3    3    0    0 -0.70797101113E+00 -0.10772445907E+02  0.34156791794E+01  0.11323147897E+02  0.51100000000E-03 0.  1.
         12    1    3    3    0    0 -0.25883594383E+02 -0.35781479055E+01  0.20429628866E+02  0.33168257962E+02  0.00000000000E+00 0. -1.
</event>
<event>
 7    1  0.4520156E-012  0.5052884E+02  0.7816164E-02  0.1300439E+00
        -11   -1    0    0    0    0  0.00000000000E+00  0.00000000000E+00  0.45593999997E+02  0.45594000000E+02  0.51100000000E-03 0. -1.
         11   -1    0    0    0    0 -0.00000000000E+00 -0.00000000000E+00 -0.45593999997E+02  0.45594000000E+02  0.51100000000E-03 0.  1.
    9900012    2    1    2    0    0  0.86213006625E+01 -0.47462247612E+01 -0.39450141917E+02  0.50528841476E+02  0.29999944150E+02 0.  0.
         12    1    1    2    0    0 -0.86213006625E+01  0.47462247612E+01  0.39450141917E+02  0.40659158524E+02  0.00000000000E+00 0. -1.
         11    1    3    3    0    0 -0.39830864322E+01  0.18615813611E+01 -0.15291525375E+02  0.15911040545E+02  0.51100000000E-03 0. -1.
        -11    1    3    3    0    0  0.10108805666E+02 -0.12763913881E+02 -0.22496239622E+02  0.27770240311E+02  0.51100000000E-03 0.  1.
        -12    1    3    3    0    0  0.24955814291E+01  0.61561077589E+01 -0.16623769205E+01  0.68475606192E+01  0.00000000000E+00 0.  1.
</event>
<event>
 7    1  0.4520156E-012  0.5052880E+02  0.7816164E-02  0.1300439E+00
        -11   -1    0    0    0    0  0.00000000000E+00  0.00000000000E+00  0.45593999997E+02  0.45594000000E+02  0.51100000000E-03 0. -1.
         11   -1    0    0    0    0 -0.00000000000E+00 -0.00000000000E+00 -0.45593999997E+02  0.45594000000E+02  0.51100000000E-03 0.  1.
    9900012    2    1    2    0    0 -0.26903100600E+02  0.41619123135E+01  0.30200529691E+02  0.50528802645E+02  0.29999826119E+02 0.  0.
        -12    1    1    2    0    0  0.26903100600E+02 -0.41619123135E+01 -0.30200529691E+02  0.40659197355E+02  0.00000000000E+00 0.  1.
         11    1    3    3    0    0 -0.11065221070E+01  0.50367186563E+01  0.21941987123E+01  0.56042336003E+01  0.51100000000E-03 0. -1.
        -11    1    3    3    0    0 -0.19004032589E+02 -0.11520631731E+02  0.15100934801E+02  0.26868502791E+02  0.51100000000E-03 0.  1.
         12    1    3    3    0    0 -0.67925459038E+01  0.10645825388E+02  0.12905396178E+02  0.18056066254E+02  0.00000000000E+00 0. -1.
</event>
<event>
 7    1  0.4520156E-012  0.5052886E+02  0.7816164E-02  0.1300439E+00
        -11   -1    0    0    0    0  0.00000000000E+00  0.00000000000E+00  0.45593999997E+02  0.45594000000E+02  0.51100000000E-03 0. -1.
         11   -1    0    0    0    0 -0.00000000000E+00 -0.00000000000E+00 -0.45593999997E+02  0.45594000000E+02  0.51100000000E-03 0.  1.
    9900012    2    1    2    0    0 -0.30002906732E+02  0.18913049371E+02  0.19881851899E+02  0.50528857316E+02  0.29999992297E+02 0.  0.
        -12    1    1    2    0    0  0.30002906732E+02 -0.18913049371E+02 -0.19881851899E+02  0.40659142684E+02  0.00000000000E+00 0.  1.
         11    1    3    3    0    0  0.90111367570E+00  0.57025235442E+01  0.21390670949E+01  0.61568164603E+01  0.51100000000E-03 0. -1.
        -11    1    3    3    0    0  0.28437804226E+01  0.25514194969E+01  0.59440208901E+01  0.70659898913E+01  0.51100000000E-03 0.  1.
         12    1    3    3    0    0 -0.33747800830E+02  0.10659106330E+02  0.11798763914E+02  0.37306050964E+02  0.00000000000E+00 0. -1.
</event>
<event>
 7    1  0.4520156E-012  0.5052885E+02  0.7816164E-02  0.1300439E+00
        -11   -1    0    0    0    0  0.00000000000E+00  0.00000000000E+00  0.45593999997E+02  0.45594000000E+02  0.51100000000E-03 0. -1.
         11   -1    0    0    0    0 -0.00000000000E+00 -0.00000000000E+00 -0.45593999997E+02  0.45594000000E+02  0.51100000000E-03 0.  1.
    9900012    2    1    2    0    0 -0.12238004792E+02 -0.22319892128E+02 -0.31705201287E+02  0.50528854232E+02  0.29999982924E+02 0.  0.
         12    1    1    2    0    0  0.12238004792E+02  0.22319892128E+02  0.31705201287E+02  0.40659145768E+02  0.00000000000E+00 0. -1.
         11    1    3    3    0    0  0.45390593244E+00  0.31917187704E+01 -0.12666539924E+01  0.34637424706E+01  0.51100000000E-03 0. -1.
        -11    1    3    3    0    0 -0.41580973293E+01 -0.17265642144E+01 -0.18641317748E+02  0.19177317984E+02  0.51100000000E-03 0.  1.
        -12    1    3    3    0    0 -0.85338133953E+01 -0.23785046684E+02 -0.11797229547E+02  0.27887793778E+02  0.00000000000E+00 0.  1.
</event>
<event>
 7    1  0.4520156E-012  0.5052886E+02  0.7816164E-02  0.1300439E+00
        -11   -1    0    0    0    0  0.00000000000E+00  0.00000000000E+00  0.45593999997E+02  0.45594000000E+02  0.51100000000E-03 0. -1.
         11   -1    0    0    0    0 -0.00000000000E+00 -0.00000000000E+00 -0.45593999997E+02  0.45594000000E+02  0.51100000000E-03 0.  1.
    9900012    2    1    2    0    0 -0.73354432130E+01 -0.10752492812E+02 -0.38519355547E+02  0.50528861045E+02  0.30000003633E+02 0.  0.
         12    1    1    2    0    0  0.73354432130E+01  0.10752492812E+02  0.38519355547E+02  0.40659138955E+02  0.00000000000E+00 0. -1.
         11    1    3    3    0    0 -0.16469577828E+02 -0.13348949345E+01 -0.11348568581E+02  0.20045422106E+02  0.51100000000E-03 0. -1.
        -11    1    3    3    0    0 -0.31238207233E+00 -0.67815464889E+00 -0.59147304690E+00  0.95253184369E+00  0.51100000000E-03 0.  1.
        -12    1    3    3    0    0  0.94465166872E+01 -0.87394432287E+01 -0.26579313919E+02  0.29530907095E+02  0.00000000000E+00 0.  1.
</event>
<event>
 7    1  0.4520156E-012  0.5052886E+02  0.7816164E-02  0.1300439E+00
        -11   -1    0    0    0    0  0.00000000000E+00  0.00000000000E+00  0.45593999997E+02  0.45594000000E+02  0.51100000000E-03 0. -1.
         11   -1    0    0    0    0 -0.00000000000E+00 -0.00000000000E+00 -0.45593999997E+02  0.45594000000E+02  0.51100000000E-03 0.  1.
    9900012    2    1    2    0    0 -0.18963010814E+02 -0.94708399316E+01  0.34696877279E+02  0.50528857350E+02  0.29999992400E+02 0.  0.
        -12    1    1    2    0    0  0.18963010814E+02  0.94708399316E+01 -0.34696877279E+02  0.40659142650E+02  0.00000000000E+00 0.  1.
         11    1    3    3    0    0 -0.11161775397E+01 -0.12654164678E+02  0.89086285167E+01  0.15515714560E+02  0.51100000000E-03 0. -1.
        -11    1    3    3    0    0  0.84046314738E+00 -0.36526096172E+01  0.34030181723E+01  0.50624567415E+01  0.51100000000E-03 0.  1.
         12    1    3    3    0    0 -0.18687296421E+02  0.68359343635E+01  0.22385230590E+02  0.29950686048E+02  0.00000000000E+00 0. -1.
</event>
<event>
 7    1  0.4520156E-012  0.5052886E+02  0.7816164E-02  0.1300439E+00
        -11   -1    0    0    0    0  0.00000000000E+00  0.00000000000E+00  0.45593999997E+02  0.45594000000E+02  0.51100000000E-03 0. -1.
         11   -1    0    0    0    0 -0.00000000000E+00 -0.00000000000E+00 -0.45593999997E+02  0.45594000000E+02  0.51100000000E-03 0.  1.
    9900012    2    1    2    0    0 -0.19482540446E+02 -0.24081738285E+02 -0.26337544284E+02  0.50528859085E+02  0.29999997675E+02 0.  0.
         12    1    1    2    0    0  0.19482540446E+02  0.24081738285E+02  0.26337544284E+02  0.40659140915E+02  0.00000000000E+00 0. -1.
         11    1    3    3    0    0 -0.92020689002E+01 -0.70926114985E+01 -0.24850124094E+02  0.27431949943E+02  0.51100000000E-03 0.  1.
        -11    1    3    3    0    0 -0.11034331042E+02 -0.76395158721E+01  0.79128516443E+00  0.13444136148E+02  0.51100000000E-03 0. -1.
        -12    1    3    3    0    0  0.75385949578E+00 -0.93496109141E+01 -0.22787053541E+01  0.96527729941E+01  0.00000000000E+00 0.  1.
</event>
<event>
 7    1  0.4520156E-012  0.5052886E+02  0.7816164E-02  0.1300439E+00
        -11   -1    0    0    0    0  0.00000000000E+00  0.00000000000E+00  0.45593999997E+02  0.45594000000E+02  0.51100000000E-03 0. -1.
         11   -1    0    0    0    0 -0.00000000000E+00 -0.00000000000E+00 -0.45593999997E+02  0.45594000000E+02  0.51100000000E-03 0.  1.
    9900012    2    1    2    0    0  0.24060362898E+02 -0.22383630365E+02 -0.23942383259E+02  0.50528859734E+02  0.29999999646E+02 0.  0.
         12    1    1    2    0    0 -0.24060362898E+02  0.22383630365E+02  0.23942383259E+02  0.40659140266E+02  0.00000000000E+00 0. -1.
         11    1    3    3    0    0  0.15774170931E+02 -0.38814757689E+01 -0.14175135865E+02  0.21559795912E+02  0.51100000000E-03 0. -1.
        -11    1    3    3    0    0  0.12610071430E+02 -0.13690299196E+02 -0.11976459681E+02  0.22133092425E+02  0.51100000000E-03 0.  1.
         12    1    3    3    0    0 -0.43238794633E+01 -0.48118554003E+01  0.22092122874E+01  0.68359713968E+01  0.00000000000E+00 0. -1.
</event>
<event>
 7    1  0.4520156E-012  0.5052886E+02  0.7816164E-02  0.1300439E+00
        -11   -1    0    0    0    0  0.00000000000E+00  0.00000000000E+00  0.45593999997E+02  0.45594000000E+02  0.51100000000E-03 0. -1.
         11   -1    0    0    0    0 -0.00000000000E+00 -0.00000000000E+00 -0.45593999997E+02  0.45594000000E+02  0.51100000000E-03 0.  1.
    9900012    2    1    2    0    0  0.17979793399E+02 -0.14571258377E+02  0.33430094356E+02  0.50528858961E+02  0.29999997299E+02 0.  0.
        -12    1    1    2    0    0 -0.17979793399E+02  0.14571258377E+02 -0.33430094356E+02  0.40659141039E+02  0.00000000000E+00 0.  1.
         11    1    3    3    0    0 -0.27300235982E+01 -0.63002385914E+01  0.69325785928E+01  0.97573911145E+01  0.51100000000E-03 0. -1.
        -11    1    3    3    0    0  0.53954401370E+01 -0.13047882151E+02  0.77835217024E+01  0.16122692494E+02  0.51100000000E-03 0.  1.
        -12    1    3    3    0    0  0.15314376861E+02  0.47768623655E+01  0.18713994060E+02  0.24648775353E+02  0.00000000000E+00 0.  1.
</event>
<event>
 7    1  0.4520156E-012  0.5052887E+02  0.7816164E-02  0.1300439E+00
        -11   -1    0    0    0    0  0.00000000000E+00  0.00000000000E+00  0.45593999997E+02  0.45594000000E+02  0.51100000000E-03 0. -1.
         11   -1    0    0    0    0 -0.00000000000E+00 -0.00000000000E+00 -0.45593999997E+02  0.45594000000E+02  0.51100000000E-03 0.  1.
    9900012    2    1    2    0    0 -0.23132949620E+02  0.32516562632E+02 -0.77913150530E+01  0.50528870720E+02  0.30000033042E+02 0.  0.
         12    1    1    2    0    0  0.23132949620E+02 -0.32516562632E+02  0.77913150530E+01  0.40659129280E+02  0.00000000000E+00 0. -1.
         11    1    3    3    0    0 -0.49749806403E+01 -0.36149232729E+01 -0.17904893893E+01  0.64049945476E+01  0.51100000000E-03 0. -1.
        -11    1    3    3    0    0 -0.86582070610E+01  0.29721056194E+01 -0.22547894759E+01  0.94277270413E+01  0.51100000000E-03 0.  1.
        -12    1    3    3    0    0 -0.94997619187E+01  0.33159380286E+02 -0.37460361878E+01  0.34696149132E+02  0.00000000000E+00 0.  1.
</event>
<event>
 7    1  0.4520156E-012  0.5052887E+02  0.7816164E-02  0.1300439E+00
        -11   -1    0    0    0    0  0.00000000000E+00  0.00000000000E+00  0.45593999997E+02  0.45594000000E+02  0.51100000000E-03 0. -1.
         11   -1    0    0    0    0 -0.00000000000E+00 -0.00000000000E+00 -0.45593999997E+02  0.45594000000E+02  0.51100000000E-03 0.  1.
    9900012    2    1    2    0    0 -0.17815763156E+02 -0.29611378049E+02 -0.21422643910E+02  0.50528870657E+02  0.30000032849E+02 0.  0.
         12    1    1    2    0    0  0.17815763156E+02  0.29611378049E+02  0.21422643910E+02  0.40659129343E+02  0.00000000000E+00 0. -1.
         11    1    3    3    0    0 -0.30563007903E+01 -0.11317360474E+01  0.16325289779E+01  0.36451271756E+01  0.51100000000E-03 0. -1.
        -11    1    3    3    0    0 -0.20613415220E+02 -0.21010385162E+02 -0.10730457580E+02  0.31328770991E+02  0.51100000000E-03 0.  1.
         12    1    3    3    0    0  0.58539528536E+01 -0.74692568403E+01 -0.12324715308E+02  0.15554972491E+02  0.00000000000E+00 0. -1.
</event>
<event>
 7    1  0.4520156E-012  0.5052887E+02  0.7816164E-02  0.1300439E+00
        -11   -1    0    0    0    0  0.00000000000E+00  0.00000000000E+00  0.45593999997E+02  0.45594000000E+02  0.51100000000E-03 0. -1.
         11   -1    0    0    0    0 -0.00000000000E+00 -0.00000000000E+00 -0.45593999997E+02  0.45594000000E+02  0.51100000000E-03 0.  1.
    9900012    2    1    2    0    0  0.16842059539E+02 -0.32477322656E+01  0.36864108115E+02  0.50528865707E+02  0.30000017802E+02 0.  0.
        -12    1    1    2    0    0 -0.16842059539E+02  0.32477322656E+01 -0.36864108115E+02  0.40659134293E+02  0.00000000000E+00 0.  1.
         11    1    3    3    0    0  0.14255486766E+02  0.78055770346E+00  0.12045195407E+02  0.18679264062E+02  0.51100000000E-03 0. -1.
        -11    1    3    3    0    0 -0.14798102899E+01  0.18037322069E+01 -0.26178536598E+01  0.35066289245E+01  0.51100000000E-03 0.  1.
        -12    1    3    3    0    0  0.40663830629E+01 -0.58320221760E+01  0.27436766368E+02  0.28342972720E+02  0.00000000000E+00 0.  1.
</event>
<event>
 7    1  0.4837439E-012  0.5052881E+02  0.7816164E-02  0.1300439E+00
        -11   -1    0    0    0    0  0.00000000000E+00  0.00000000000E+00  0.45593999997E+02  0.45594000000E+02  0.51100000000E-03 0. -1.
         11   -1    0    0    0    0 -0.00000000000E+00 -0.00000000000E+00 -0.45593999997E+02  0.45594000000E+02  0.51100000000E-03 0.  1.
    9900012    2    1    2    0    0  0.16582092475E+01  0.35251090784E+01  0.40472135877E+02  0.50528808735E+02  0.29999844630E+02 0.  0.
        -12    1    1    2    0    0 -0.16582092475E+01 -0.35251090784E+01 -0.40472135877E+02  0.40659191265E+02  0.00000000000E+00 0.  1.
         11    1    3    3    0    0  0.51664915855E+01 -0.27141621148E+01  0.35603268190E+01  0.68363176205E+01  0.51100000000E-03 0. -1.
        -11    1    3    3    0    0 -0.25939507896E+01  0.12891463259E+02  0.11698516003E+02  0.17600388706E+02  0.51100000000E-03 0.  1.
         12    1    3    3    0    0 -0.91433154849E+00 -0.66521920656E+01  0.25213293054E+02  0.26092102409E+02  0.00000000000E+00 0. -1.
</event>
<event>
 7    1  0.9496571E-012  0.5052885E+02  0.7816164E-02  0.1300439E+00
        -11   -1    0    0    0    0  0.00000000000E+00  0.00000000000E+00  0.45593999997E+02  0.45594000000E+02  0.51100000000E-03 0. -1.
         11   -1    0    0    0    0 -0.00000000000E+00 -0.00000000000E+00 -0.45593999997E+02  0.45594000000E+02  0.51100000000E-03 0.  1.
    9900012    2    1    2    0    0  0.43203054561E+01  0.65793015599E+00  0.40423609846E+02  0.50528854112E+02  0.29999982559E+02 0.  0.
        -12    1    1    2    0    0 -0.43203054561E+01 -0.65793015599E+00 -0.40423609846E+02  0.40659145888E+02  0.00000000000E+00 0.  1.
         11    1    3    3    0    0  0.75529924850E+01 -0.63053053775E+01  0.21249455152E+02  0.23416744349E+02  0.51100000000E-03 0. -1.
        -11    1    3    3    0    0  0.30612577463E+01  0.39400753899E+01 -0.15649118134E+01  0.52291913632E+01  0.51100000000E-03 0.  1.
         12    1    3    3    0    0 -0.62939447752E+01  0.30231601436E+01  0.20739066508E+02  0.21882918400E+02  0.00000000000E+00 0. -1.
</event>
<event>
 7    1  0.4520156E-012  0.5052886E+02  0.7816164E-02  0.1300439E+00
        -11   -1    0    0    0    0  0.00000000000E+00  0.00000000000E+00  0.45593999997E+02  0.45594000000E+02  0.51100000000E-03 0. -1.
         11   -1    0    0    0    0 -0.00000000000E+00 -0.00000000000E+00 -0.45593999997E+02  0.45594000000E+02  0.51100000000E-03 0.  1.
    9900012    2    1    2    0    0  0.29301361384E+01 -0.64410207740E+01 -0.40038645210E+02  0.50528861339E+02  0.30000004527E+02 0.  0.
         12    1    1    2    0    0 -0.29301361384E+01  0.64410207740E+01  0.40038645210E+02  0.40659138661E+02  0.00000000000E+00 0. -1.
         11    1    3    3    0    0 -0.16744036356E+01 -0.42808012282E+01 -0.12939533191E+02  0.13731729904E+02  0.51100000000E-03 0. -1.
        -11    1    3    3    0    0  0.63880322322E+01 -0.62340387738E+01 -0.30124140146E+02  0.31418688945E+02  0.51100000000E-03 0.  1.
         12    1    3    3    0    0 -0.17834924583E+01  0.40738192280E+01  0.30250281275E+01  0.53784424904E+01  0.00000000000E+00 0. -1.
</event>
<event>
 7    1  0.4520156E-012  0.5052886E+02  0.7816164E-02  0.1300439E+00
        -11   -1    0    0    0    0  0.00000000000E+00  0.00000000000E+00  0.45593999997E+02  0.45594000000E+02  0.51100000000E-03 0. -1.
         11   -1    0    0    0    0 -0.00000000000E+00 -0.00000000000E+00 -0.45593999997E+02  0.45594000000E+02  0.51100000000E-03 0.  1.
    9900012    2    1    2    0    0 -0.15767170537E+02  0.13452422035E+02 -0.34979914614E+02  0.50528858939E+02  0.29999997232E+02 0.  0.
         12    1    1    2    0    0  0.15767170537E+02 -0.13452422035E+02  0.34979914614E+02  0.40659141061E+02  0.00000000000E+00 0. -1.
         11    1    3    3    0    0 -0.19883644043E+01  0.54720807765E+01 -0.19646922617E+01  0.61446950269E+01  0.51100000000E-03 0. -1.
        -11    1    3    3    0    0 -0.98574176351E+01  0.15830104449E+02 -0.29566054457E+02  0.34955864540E+02  0.51100000000E-03 0.  1.
        -12    1    3    3    0    0 -0.39213884975E+01 -0.78497631901E+01 -0.34491678956E+01  0.94282993727E+01  0.00000000000E+00 0.  1.
</event>
<event>
 7    1  0.4520156E-012  0.5052887E+02  0.7816164E-02  0.1300439E+00
        -11   -1    0    0    0    0  0.00000000000E+00  0.00000000000E+00  0.45593999997E+02  0.45594000000E+02  0.51100000000E-03 0.  1.
         11   -1    0    0    0    0 -0.00000000000E+00 -0.00000000000E+00 -0.45593999997E+02  0.45594000000E+02  0.51100000000E-03 0. -1.
    9900012    2    1    2    0    0  0.11252448104E+02 -0.37102171461E+02 -0.12246470433E+02  0.50528871215E+02  0.30000034545E+02 0.  0.
         12    1    1    2    0    0 -0.11252448104E+02  0.37102171461E+02  0.12246470433E+02  0.40659128785E+02  0.00000000000E+00 0. -1.
         11    1    3    3    0    0  0.11802525544E+00 -0.73899471420E+01  0.76595261541E+01  0.10643946162E+02  0.51100000000E-03 0. -1.
        -11    1    3    3    0    0  0.37810897756E+01 -0.42126018935E+01  0.14238481682E+01  0.58369511281E+01  0.51100000000E-03 0.  1.
         12    1    3    3    0    0  0.73533330727E+01 -0.25499622426E+02 -0.21329844755E+02  0.34047973925E+02  0.00000000000E+00 0. -1.
</event>
<event>
 7    1  0.4520156E-012  0.5052889E+02  0.7816164E-02  0.1300439E+00
        -11   -1    0    0    0    0  0.00000000000E+00  0.00000000000E+00  0.45593999997E+02  0.45594000000E+02  0.51100000000E-03 0.  1.
         11   -1    0    0    0    0 -0.00000000000E+00 -0.00000000000E+00 -0.45593999997E+02  0.45594000000E+02  0.51100000000E-03 0. -1.
    9900012    2    1    2    0    0 -0.38218363444E+01  0.38633265616E+02 -0.12084192490E+02  0.50528888434E+02  0.30000086885E+02 0.  0.
        -12    1    1    2    0    0  0.38218363444E+01 -0.38633265616E+02  0.12084192490E+02  0.40659111566E+02  0.00000000000E+00 0.  1.
         11    1    3    3    0    0 -0.62029079983E+01 -0.13877918249E+01 -0.19841510209E+01  0.66587453262E+01  0.51100000000E-03 0.  1.
        -11    1    3    3    0    0 -0.53401978767E+01  0.26470854475E+02 -0.77821973590E+01  0.28103139433E+02  0.51100000000E-03 0. -1.
        -12    1    3    3    0    0  0.77212695305E+01  0.13550202965E+02 -0.23178441101E+01  0.15767003675E+02  0.00000000000E+00 0.  1.
</event>
<event>
 7    1  0.4520156E-012  0.5052886E+02  0.7816164E-02  0.1300439E+00
        -11   -1    0    0    0    0  0.00000000000E+00  0.00000000000E+00  0.45593999997E+02  0.45594000000E+02  0.51100000000E-03 0. -1.
         11   -1    0    0    0    0 -0.00000000000E+00 -0.00000000000E+00 -0.45593999997E+02  0.45594000000E+02  0.51100000000E-03 0.  1.
    9900012    2    1    2    0    0  0.62322101354E+00  0.26350750384E+02 -0.30958281056E+02  0.50528860607E+02  0.30000002301E+02 0.  0.
         12    1    1    2    0    0 -0.62322101354E+00 -0.26350750384E+02  0.30958281056E+02  0.40659139393E+02  0.00000000000E+00 0. -1.
         11    1    3    3    0    0 -0.81989344756E+01  0.44526306540E+01 -0.94352088158E+01  0.13269197863E+02  0.51100000000E-03 0. -1.
        -11    1    3    3    0    0 -0.58852722777E+01  0.45451248397E+01 -0.73663626934E+01  0.10466990455E+02  0.51100000000E-03 0.  1.
        -12    1    3    3    0    0  0.14707427767E+02  0.17352994890E+02 -0.14156709547E+02  0.26792672289E+02  0.00000000000E+00 0.  1.
</event>
<event>
 7    1  0.4520156E-012  0.5052886E+02  0.7816164E-02  0.1300439E+00
        -11   -1    0    0    0    0  0.00000000000E+00  0.00000000000E+00  0.45593999997E+02  0.45594000000E+02  0.51100000000E-03 0. -1.
         11   -1    0    0    0    0 -0.00000000000E+00 -0.00000000000E+00 -0.45593999997E+02  0.45594000000E+02  0.51100000000E-03 0.  1.
    9900012    2    1    2    0    0  0.23291032061E+02 -0.28234752334E+02 -0.17705705528E+02  0.50528862994E+02  0.30000009557E+02 0.  0.
         12    1    1    2    0    0 -0.23291032061E+02  0.28234752334E+02  0.17705705528E+02  0.40659137006E+02  0.00000000000E+00 0. -1.
         11    1    3    3    0    0  0.10520420973E+01  0.35531638873E+01  0.22742415605E+01  0.43478662722E+01  0.51100000000E-03 0. -1.
        -11    1    3    3    0    0  0.20595337571E+01 -0.44808062649E+01 -0.94026897589E+01  0.10617432790E+02  0.51100000000E-03 0.  1.
        -12    1    3    3    0    0  0.20179456206E+02 -0.27307109957E+02 -0.10577257329E+02  0.35563563932E+02  0.00000000000E+00 0.  1.
</event>
<event>
 7    1  0.4520156E-012  0.5052885E+02  0.7816164E-02  0.1300439E+00
        -11   -1    0    0    0    0  0.00000000000E+00  0.00000000000E+00  0.45593999997E+02  0.45594000000E+02  0.51100000000E-03 0. -1.
         11   -1    0    0    0    0 -0.00000000000E+00 -0.00000000000E+00 -0.45593999997E+02  0.45594000000E+02  0.51100000000E-03 0.  1.
    9900012    2    1    2    0    0 -0.34063454244E+02 -0.11223692315E+02  0.19154005577E+02  0.50528854487E+02  0.29999983699E+02 0.  0.
        -12    1    1    2    0    0  0.34063454244E+02  0.11223692315E+02 -0.19154005577E+02  0.40659145513E+02  0.00000000000E+00 0.  1.
         11    1    3    3    0    0 -0.78853739486E+01 -0.16750813142E+01  0.90368381658E+01  0.12109891164E+02  0.51100000000E-03 0. -1.
        -11    1    3    3    0    0 -0.22420162778E+02 -0.12507188402E+02  0.16444062674E+02  0.30487713234E+02  0.51100000000E-03 0.  1.
        -12    1    3    3    0    0 -0.37579175172E+01  0.29585774021E+01 -0.63268952626E+01  0.79312500890E+01  0.00000000000E+00 0.  1.
</event>
<event>
 7    1  0.4520156E-012  0.5052885E+02  0.7816164E-02  0.1300439E+00
        -11   -1    0    0    0    0  0.00000000000E+00  0.00000000000E+00  0.45593999997E+02  0.45594000000E+02  0.51100000000E-03 0.  1.
         11   -1    0    0    0    0 -0.00000000000E+00 -0.00000000000E+00 -0.45593999997E+02  0.45594000000E+02  0.51100000000E-03 0. -1.
    9900012    2    1    2    0    0  0.35735912468E+02 -0.18926225132E+02  0.42319192962E+01  0.50528848772E+02  0.29999966328E+02 0.  0.
         12    1    1    2    0    0 -0.35735912468E+02  0.18926225132E+02 -0.42319192962E+01  0.40659151228E+02  0.00000000000E+00 0. -1.
         11    1    3    3    0    0 -0.17126561031E+01  0.30076115914E+01 -0.21369009812E+01  0.40675870583E+01  0.51100000000E-03 0. -1.
        -11    1    3    3    0    0  0.17573344334E+02 -0.12729645796E+02 -0.42630109669E+01  0.22114239212E+02  0.51100000000E-03 0.  1.
        -12    1    3    3    0    0  0.19875224237E+02 -0.92041909274E+01  0.10631831244E+02  0.24347022502E+02  0.00000000000E+00 0.  1.
</event>
<event>
 7    1  0.4520156E-012  0.5052886E+02  0.7816164E-02  0.1300439E+00
        -11   -1    0    0    0    0  0.00000000000E+00  0.00000000000E+00  0.45593999997E+02  0.45594000000E+02  0.51100000000E-03 0. -1.
         11   -1    0    0    0    0 -0.00000000000E+00 -0.00000000000E+00 -0.45593999997E+02  0.45594000000E+02  0.51100000000E-03 0.  1.
    9900012    2    1    2    0    0  0.47356745011E+01  0.24489573624E+02 -0.32109192138E+02  0.50528855284E+02  0.29999986121E+02 0.  0.
         12    1    1    2    0    0 -0.47356745011E+01 -0.24489573624E+02  0.32109192138E+02  0.40659144716E+02  0.00000000000E+00 0. -1.
         11    1    3    3    0    0 -0.15846316491E+01 -0.33867438647E+01 -0.10805948237E+02  0.11434579530E+02  0.51100000000E-03 0. -1.
        -11    1    3    3    0    0  0.85578480646E+01  0.83777928983E+01 -0.13303859640E+02  0.17900191589E+02  0.51100000000E-03 0.  1.
         12    1    3    3    0    0 -0.22375419144E+01  0.19498524590E+02 -0.79993842608E+01  0.21194084164E+02  0.00000000000E+00 0. -1.
</event>
<event>
 7    1  0.4520156E-012  0.5052886E+02  0.7816164E-02  0.1300439E+00
        -11   -1    0    0    0    0  0.00000000000E+00  0.00000000000E+00  0.45593999997E+02  0.45594000000E+02  0.51100000000E-03 0. -1.
         11   -1    0    0    0    0 -0.00000000000E+00 -0.00000000000E+00 -0.45593999997E+02  0.45594000000E+02  0.51100000000E-03 0.  1.
    9900012    2    1    2    0    0  0.17256215889E+02 -0.12965925847E+01 -0.36792769107E+02  0.50528855916E+02  0.29999988041E+02 0.  0.
         12    1    1    2    0    0 -0.17256215889E+02  0.12965925847E+01  0.36792769107E+02  0.40659144084E+02  0.00000000000E+00 0. -1.
         11    1    3    3    0    0 -0.10525505023E+01  0.38119671438E+01 -0.21597557020E+02  0.21956626006E+02  0.51100000000E-03 0. -1.
        -11    1    3    3    0    0 -0.13877132921E+01 -0.24610023585E+01 -0.60872300198E+01  0.67109351334E+01  0.51100000000E-03 0.  1.
        -12    1    3    3    0    0  0.19696479684E+02 -0.26475573700E+01 -0.91079820664E+01  0.21861294776E+02  0.00000000000E+00 0.  1.
</event>
<event>
 7    1  0.4520156E-012  0.5052888E+02  0.7816164E-02  0.1300439E+00
        -11   -1    0    0    0    0  0.00000000000E+00  0.00000000000E+00  0.45593999997E+02  0.45594000000E+02  0.51100000000E-03 0. -1.
         11   -1    0    0    0    0 -0.00000000000E+00 -0.00000000000E+00 -0.45593999997E+02  0.45594000000E+02  0.51100000000E-03 0.  1.
    9900012    2    1    2    0    0 -0.20741818112E+02  0.69471886708E+01 -0.34273575653E+02  0.50528875107E+02  0.30000046375E+02 0.  0.
         12    1    1    2    0    0  0.20741818112E+02 -0.69471886708E+01  0.34273575653E+02  0.40659124893E+02  0.00000000000E+00 0. -1.
         11    1    3    3    0    0  0.29820249322E+01 -0.32261096116E+01 -0.10491117514E+02  0.11373820944E+02  0.51100000000E-03 0. -1.
        -11    1    3    3    0    0 -0.52137933758E+01  0.27815401962E+00 -0.15899083827E+02  0.16734451824E+02  0.51100000000E-03 0.  1.
        -12    1    3    3    0    0 -0.18510049669E+02  0.98951442628E+01 -0.78833743117E+01  0.22420602339E+02  0.00000000000E+00 0.  1.
</event>
<event>
 7    1  0.4520156E-012  0.5052886E+02  0.7816164E-02  0.1300439E+00
        -11   -1    0    0    0    0  0.00000000000E+00  0.00000000000E+00  0.45593999997E+02  0.45594000000E+02  0.51100000000E-03 0. -1.
         11   -1    0    0    0    0 -0.00000000000E+00 -0.00000000000E+00 -0.45593999997E+02  0.45594000000E+02  0.51100000000E-03 0.  1.
    9900012    2    1    2    0    0 -0.22841769792E+01 -0.53804195305E+01  0.40236786484E+02  0.50528863691E+02  0.30000011676E+02 0.  0.
        -12    1    1    2    0    0  0.22841769792E+01  0.53804195305E+01 -0.40236786484E+02  0.40659136309E+02  0.00000000000E+00 0.  1.
         11    1    3    3    0    0  0.82514289488E+01 -0.19223524705E-02  0.13231885532E+02  0.15593873104E+02  0.51100000000E-03 0. -1.
        -11    1    3    3    0    0  0.30318003624E+01  0.30336517385E+01  0.13032919858E+02  0.13720490392E+02  0.51100000000E-03 0.  1.
        -12    1    3    3    0    0 -0.13567406291E+02 -0.84121489165E+01  0.13971981094E+02  0.21214500196E+02  0.00000000000E+00 0.  1.
</event>
<event>
 7    1  0.4520156E-012  0.5052886E+02  0.7816164E-02  0.1300439E+00
        -11   -1    0    0    0    0  0.00000000000E+00  0.00000000000E+00  0.45593999997E+02  0.45594000000E+02  0.51100000000E-03 0. -1.
         11   -1    0    0    0    0 -0.00000000000E+00 -0.00000000000E+00 -0.45593999997E+02  0.45594000000E+02  0.51100000000E-03 0.  1.
    9900012    2    1    2    0    0 -0.75731478962E+01 -0.12139183799E+02 -0.38058547713E+02  0.50528863187E+02  0.30000010144E+02 0.  0.
         12    1    1    2    0    0  0.75731478962E+01  0.12139183799E+02  0.38058547713E+02  0.40659136813E+02  0.00000000000E+00 0. -1.
         11    1    3    3    0    0 -0.13661675612E+01 -0.35811725508E+01  0.19802506382E+00  0.38380235579E+01  0.51100000000E-03 0. -1.
        -11    1    3    3    0    0  0.82537532382E+01 -0.64372232505E+01 -0.82983153993E+01  0.13357556828E+02  0.51100000000E-03 0.  1.
        -12    1    3    3    0    0 -0.14460733573E+02 -0.21207879980E+01 -0.29958257377E+02  0.33333282801E+02  0.00000000000E+00 0.  1.
</event>
<event>
 7    1  0.4520156E-012  0.5052887E+02  0.7816164E-02  0.1300439E+00
        -11   -1    0    0    0    0  0.00000000000E+00  0.00000000000E+00  0.45593999997E+02  0.45594000000E+02  0.51100000000E-03 0. -1.
         11   -1    0    0    0    0 -0.00000000000E+00 -0.00000000000E+00 -0.45593999997E+02  0.45594000000E+02  0.51100000000E-03 0.  1.
    9900012    2    1    2    0    0  0.33138580925E+02  0.68651481267E+01 -0.22535958180E+02  0.50528865533E+02  0.30000017273E+02 0.  0.
         12    1    1    2    0    0 -0.33138580925E+02 -0.68651481267E+01  0.22535958180E+02  0.40659134467E+02  0.00000000000E+00 0. -1.
         11    1    3    3    0    0  0.30090436302E+01  0.72410933742E+01 -0.56538021317E+01  0.96671224068E+01  0.51100000000E-03 0. -1.
        -11    1    3    3    0    0  0.82740252069E+01 -0.54171414480E+01 -0.15504539327E+02  0.18390096644E+02  0.51100000000E-03 0.  1.
        -12    1    3    3    0    0  0.21855512088E+02  0.50411962005E+01 -0.13776167220E+01  0.22471646482E+02  0.00000000000E+00 0.  1.
</event>
<event>
 7    1  0.4520156E-012  0.5052887E+02  0.7816164E-02  0.1300439E+00
        -11   -1    0    0    0    0  0.00000000000E+00  0.00000000000E+00  0.45593999997E+02  0.45594000000E+02  0.51100000000E-03 0.  1.
         11   -1    0    0    0    0 -0.00000000000E+00 -0.00000000000E+00 -0.45593999997E+02  0.45594000000E+02  0.51100000000E-03 0. -1.
    9900012    2    1    2    0    0  0.36477532225E+02 -0.16613772904E+02 -0.68217946692E+01  0.50528871998E+02  0.30000036925E+02 0.  0.
         12    1    1    2    0    0 -0.36477532225E+02  0.16613772904E+02  0.68217946692E+01  0.40659128002E+02  0.00000000000E+00 0. -1.
         11    1    3    3    0    0  0.27904898189E+02 -0.94126713675E+01 -0.14172516142E+01  0.29483729880E+02  0.51100000000E-03 0.  1.
        -11    1    3    3    0    0  0.79017125744E+01 -0.53530330491E+01  0.47787929622E+01  0.10673747555E+02  0.51100000000E-03 0. -1.
         12    1    3    3    0    0  0.67092146145E+00 -0.18480684878E+01 -0.10183336017E+02  0.10371394563E+02  0.00000000000E+00 0. -1.
</event>
<event>
 7    1  0.4520156E-012  0.5052886E+02  0.7816164E-02  0.1300439E+00
        -11   -1    0    0    0    0  0.00000000000E+00  0.00000000000E+00  0.45593999997E+02  0.45594000000E+02  0.51100000000E-03 0. -1.
         11   -1    0    0    0    0 -0.00000000000E+00 -0.00000000000E+00 -0.45593999997E+02  0.45594000000E+02  0.51100000000E-03 0.  1.
    9900012    2    1    2    0    0 -0.12111127628E+02  0.23925920719E+02 -0.30562005994E+02  0.50528864434E+02  0.30000013932E+02 0.  0.
         12    1    1    2    0    0  0.12111127628E+02 -0.23925920719E+02  0.30562005994E+02  0.40659135566E+02  0.00000000000E+00 0. -1.
         11    1    3    3    0    0  0.36796800461E+01  0.29110126702E+01 -0.37213213529E+01  0.59885117417E+01  0.51100000000E-03 0. -1.
        -11    1    3    3    0    0  0.21949585691E+01  0.14962820865E+02 -0.18272626994E+02  0.23719037689E+02  0.51100000000E-03 0.  1.
         12    1    3    3    0    0 -0.17985766243E+02  0.60520871832E+01 -0.85680576472E+01  0.20821315003E+02  0.00000000000E+00 0. -1.
</event>
<event>
 7    1  0.4520156E-012  0.5052886E+02  0.7816164E-02  0.1300439E+00
        -11   -1    0    0    0    0  0.00000000000E+00  0.00000000000E+00  0.45593999997E+02  0.45594000000E+02  0.51100000000E-03 0.  1.
         11   -1    0    0    0    0 -0.00000000000E+00 -0.00000000000E+00 -0.45593999997E+02  0.45594000000E+02  0.51100000000E-03 0. -1.
    9900012    2    1    2    0    0 -0.25651004504E+02 -0.26881055437E+02  0.16510606186E+02  0.50528864617E+02  0.30000014489E+02 0.  0.
        -12    1    1    2    0    0  0.25651004504E+02  0.26881055437E+02 -0.16510606186E+02  0.40659135383E+02  0.00000000000E+00 0.  1.
         11    1    3    3    0    0  0.16611990404E+01 -0.85522267378E+01  0.36891654011E+01  0.94609780702E+01  0.51100000000E-03 0.  1.
        -11    1    3    3    0    0 -0.27594305580E+02 -0.12360962495E+02  0.41243551502E+01  0.30516379207E+02  0.51100000000E-03 0. -1.
         12    1    3    3    0    0  0.28210203567E+00 -0.59678662039E+01  0.86970856350E+01  0.10551507339E+02  0.00000000000E+00 0. -1.
</event>
<event>
 7    1  0.4520156E-012  0.5052886E+02  0.7816164E-02  0.1300439E+00
        -11   -1    0    0    0    0  0.00000000000E+00  0.00000000000E+00  0.45593999997E+02  0.45594000000E+02  0.51100000000E-03 0. -1.
         11   -1    0    0    0    0 -0.00000000000E+00 -0.00000000000E+00 -0.45593999997E+02  0.45594000000E+02  0.51100000000E-03 0.  1.
    9900012    2    1    2    0    0  0.40156464129E+01 -0.15600849341E+02 -0.37331668262E+02  0.50528863616E+02  0.30000011447E+02 0.  0.
         12    1    1    2    0    0 -0.40156464129E+01  0.15600849341E+02  0.37331668262E+02  0.40659136384E+02  0.00000000000E+00 0. -1.
         11    1    3    3    0    0  0.85361512608E+01 -0.10336721420E+02 -0.11838342844E+02  0.17884631660E+02  0.51100000000E-03 0. -1.
        -11    1    3    3    0    0  0.62380662497E+01 -0.62161577985E+01 -0.70908912356E+01  0.11306406462E+02  0.51100000000E-03 0.  1.
         12    1    3    3    0    0 -0.10758571098E+02  0.95202987782E+00 -0.18402434182E+02  0.21337825493E+02  0.00000000000E+00 0. -1.
</event>
<event>
 7    1  0.4520156E-012  0.5052886E+02  0.7816164E-02  0.1300439E+00
        -11   -1    0    0    0    0  0.00000000000E+00  0.00000000000E+00  0.45593999997E+02  0.45594000000E+02  0.51100000000E-03 0. -1.
         11   -1    0    0    0    0 -0.00000000000E+00 -0.00000000000E+00 -0.45593999997E+02  0.45594000000E+02  0.51100000000E-03 0.  1.
    9900012    2    1    2    0    0 -0.15752437340E+02  0.28111689560E+02  0.24794342310E+02  0.50528858560E+02  0.29999996080E+02 0.  0.
        -12    1    1    2    0    0  0.15752437340E+02 -0.28111689560E+02 -0.24794342310E+02  0.40659141440E+02  0.00000000000E+00 0.  1.
         11    1    3    3    0    0 -0.46497405098E+00 -0.24584068102E+01 -0.13261385504E+01  0.28317147858E+01  0.51100000000E-03 0. -1.
        -11    1    3    3    0    0 -0.12429998562E+02  0.69627128118E+01  0.30598404629E+01  0.14572126059E+02  0.51100000000E-03 0.  1.
         12    1    3    3    0    0 -0.28574647263E+01  0.23607383558E+02  0.23060640397E+02  0.33125017716E+02  0.00000000000E+00 0. -1.
</event>
<event>
 7    1  0.4520156E-012  0.5052880E+02  0.7816164E-02  0.1300439E+00
        -11   -1    0    0    0    0  0.00000000000E+00  0.00000000000E+00  0.45593999997E+02  0.45594000000E+02  0.51100000000E-03 0. -1.
         11   -1    0    0    0    0 -0.00000000000E+00 -0.00000000000E+00 -0.45593999997E+02  0.45594000000E+02  0.51100000000E-03 0.  1.
    9900012    2    1    2    0    0 -0.15758181503E+02  0.37146616357E+01  0.37296804388E+02  0.50528799161E+02  0.29999815528E+02 0.  0.
        -12    1    1    2    0    0  0.15758181503E+02 -0.37146616357E+01 -0.37296804388E+02  0.40659200839E+02  0.00000000000E+00 0.  1.
         11    1    3    3    0    0 -0.10740011262E+02  0.96030950770E+01  0.29956652597E+02  0.33241063641E+02  0.51100000000E-03 0. -1.
        -11    1    3    3    0    0  0.29784758866E+01 -0.24553269249E+01  0.76619297101E+01  0.85793424025E+01  0.51100000000E-03 0.  1.
        -12    1    3    3    0    0 -0.79966461277E+01 -0.34331065164E+01 -0.32177791882E+00  0.87083931166E+01  0.00000000000E+00 0.  1.
</event>
<event>
 7    1  0.4520156E-012  0.5052886E+02  0.7816164E-02  0.1300439E+00
        -11   -1    0    0    0    0  0.00000000000E+00  0.00000000000E+00  0.45593999997E+02  0.45594000000E+02  0.51100000000E-03 0.  1.
         11   -1    0    0    0    0 -0.00000000000E+00 -0.00000000000E+00 -0.45593999997E+02  0.45594000000E+02  0.51100000000E-03 0. -1.
    9900012    2    1    2    0    0 -0.10022422481E+02 -0.28550588373E+02 -0.27158440679E+02  0.50528856515E+02  0.29999989863E+02 0.  0.
         12    1    1    2    0    0  0.10022422481E+02  0.28550588373E+02  0.27158440679E+02  0.40659143485E+02  0.00000000000E+00 0. -1.
         11    1    3    3    0    0 -0.38045857103E+01 -0.14489199775E+01  0.26990546136E+01  0.48845816194E+01  0.51100000000E-03 0. -1.
        -11    1    3    3    0    0  0.74867953482E+01 -0.74475768610E+01 -0.88264394266E+01  0.13763158754E+02  0.51100000000E-03 0.  1.
        -12    1    3    3    0    0 -0.13704632119E+02 -0.19654091534E+02 -0.21031055866E+02  0.31881116141E+02  0.00000000000E+00 0.  1.
</event>
<event>
 7    1  0.4520156E-012  0.5052886E+02  0.7816164E-02  0.1300439E+00
        -11   -1    0    0    0    0  0.00000000000E+00  0.00000000000E+00  0.45593999997E+02  0.45594000000E+02  0.51100000000E-03 0. -1.
         11   -1    0    0    0    0 -0.00000000000E+00 -0.00000000000E+00 -0.45593999997E+02  0.45594000000E+02  0.51100000000E-03 0.  1.
    9900012    2    1    2    0    0  0.19900338817E+02 -0.19519873223E+02 -0.29599263277E+02  0.50528864222E+02  0.30000013290E+02 0.  0.
         12    1    1    2    0    0 -0.19900338817E+02  0.19519873223E+02  0.29599263277E+02  0.40659135778E+02  0.00000000000E+00 0. -1.
         11    1    3    3    0    0  0.18861733220E+02 -0.39864639320E+01 -0.19082957382E+02  0.27125931089E+02  0.51100000000E-03 0. -1.
        -11    1    3    3    0    0  0.51157749229E+01 -0.73359826375E+00 -0.47038241535E+01  0.69882244814E+01  0.51100000000E-03 0.  1.
        -12    1    3    3    0    0 -0.40771693251E+01 -0.14799811027E+02 -0.58124817412E+01  0.16414708652E+02  0.00000000000E+00 0.  1.
</event>
<event>
 7    1  0.4520156E-012  0.5052886E+02  0.7816164E-02  0.1300439E+00
        -11   -1    0    0    0    0  0.00000000000E+00  0.00000000000E+00  0.45593999997E+02  0.45594000000E+02  0.51100000000E-03 0. -1.
         11   -1    0    0    0    0 -0.00000000000E+00 -0.00000000000E+00 -0.45593999997E+02  0.45594000000E+02  0.51100000000E-03 0.  1.
    9900012    2    1    2    0    0 -0.23551799919E+02  0.23913541180E+02 -0.22948217378E+02  0.50528863117E+02  0.30000009931E+02 0.  0.
         12    1    1    2    0    0  0.23551799919E+02 -0.23913541180E+02  0.22948217378E+02  0.40659136883E+02  0.00000000000E+00 0. -1.
         11    1    3    3    0    0 -0.10875113718E+02  0.44714564560E+01  0.30221121144E+00  0.11762370216E+02  0.51100000000E-03 0. -1.
        -11    1    3    3    0    0 -0.16752207624E+02  0.19486938985E+02 -0.15501980766E+02  0.30011475459E+02  0.51100000000E-03 0.  1.
         12    1    3    3    0    0  0.40755214220E+01 -0.44854260466E-01 -0.77484478229E+01  0.87550174432E+01  0.00000000000E+00 0. -1.
</event>
<event>
 7    1  0.4520156E-012  0.5052885E+02  0.7816164E-02  0.1300439E+00
        -11   -1    0    0    0    0  0.00000000000E+00  0.00000000000E+00  0.45593999997E+02  0.45594000000E+02  0.51100000000E-03 0. -1.
         11   -1    0    0    0    0 -0.00000000000E+00 -0.00000000000E+00 -0.45593999997E+02  0.45594000000E+02  0.51100000000E-03 0.  1.
    9900012    2    1    2    0    0 -0.25626302010E+02 -0.18394681653E+02 -0.25653357941E+02  0.50528850459E+02  0.29999971454E+02 0.  0.
         12    1    1    2    0    0  0.25626302010E+02  0.18394681653E+02  0.25653357941E+02  0.40659149541E+02  0.00000000000E+00 0. -1.
         11    1    3    3    0    0 -0.49469153042E+01  0.12023249062E+01 -0.17147172285E+01  0.53719467274E+01  0.51100000000E-03 0. -1.
        -11    1    3    3    0    0 -0.11670753936E+02  0.78614928986E+00 -0.19030012775E+02  0.22337544955E+02  0.51100000000E-03 0.  1.
        -12    1    3    3    0    0 -0.90086327691E+01 -0.20383155849E+02 -0.49086279371E+01  0.22819358776E+02  0.00000000000E+00 0.  1.
</event>
<event>
 7    1  0.4520156E-012  0.5052886E+02  0.7816164E-02  0.1300439E+00
        -11   -1    0    0    0    0  0.00000000000E+00  0.00000000000E+00  0.45593999997E+02  0.45594000000E+02  0.51100000000E-03 0. -1.
         11   -1    0    0    0    0 -0.00000000000E+00 -0.00000000000E+00 -0.45593999997E+02  0.45594000000E+02  0.51100000000E-03 0.  1.
    9900012    2    1    2    0    0  0.33285703286E+02 -0.80499382232E+01  0.21918624360E+02  0.50528860284E+02  0.30000001319E+02 0.  0.
        -12    1    1    2    0    0 -0.33285703286E+02  0.80499382232E+01 -0.21918624360E+02  0.40659139716E+02  0.00000000000E+00 0.  1.
         11    1    3    3    0    0  0.26256914518E+01 -0.85023099321E+01  0.75531861813E+01  0.11671938636E+02  0.51100000000E-03 0. -1.
        -11    1    3    3    0    0  0.83959640771E+00 -0.24307975581E+01  0.77639106052E+01  0.81787533917E+01  0.51100000000E-03 0.  1.
        -12    1    3    3    0    0  0.29820415426E+02  0.28831692670E+01  0.66015275730E+01  0.30678168256E+02  0.00000000000E+00 0.  1.
</event>
<event>
 7    1  0.4520156E-012  0.5052886E+02  0.7816164E-02  0.1300439E+00
        -11   -1    0    0    0    0  0.00000000000E+00  0.00000000000E+00  0.45593999997E+02  0.45594000000E+02  0.51100000000E-03 0. -1.
         11   -1    0    0    0    0 -0.00000000000E+00 -0.00000000000E+00 -0.45593999997E+02  0.45594000000E+02  0.51100000000E-03 0.  1.
    9900012    2    1    2    0    0 -0.84549942411E+01 -0.25307805622E+01 -0.39689722244E+02  0.50528857981E+02  0.29999994319E+02 0.  0.
         12    1    1    2    0    0  0.84549942411E+01  0.25307805622E+01  0.39689722244E+02  0.40659142019E+02  0.00000000000E+00 0. -1.
         11    1    3    3    0    0 -0.66984108385E+01 -0.42827154581E+01 -0.22759575471E+02  0.24108269024E+02  0.51100000000E-03 0. -1.
        -11    1    3    3    0    0  0.32639045666E+01 -0.75296899219E+01 -0.25690190010E+01  0.85993698739E+01  0.51100000000E-03 0.  1.
         12    1    3    3    0    0 -0.50204879691E+01  0.92816248179E+01 -0.14361127772E+02  0.17821219083E+02  0.00000000000E+00 0. -1.
</event>
<event>
 7    1  0.4520156E-012  0.5052888E+02  0.7816164E-02  0.1300439E+00
        -11   -1    0    0    0    0  0.00000000000E+00  0.00000000000E+00  0.45593999997E+02  0.45594000000E+02  0.51100000000E-03 0. -1.
         11   -1    0    0    0    0 -0.00000000000E+00 -0.00000000000E+00 -0.45593999997E+02  0.45594000000E+02  0.51100000000E-03 0.  1.
    9900012    2    1    2    0    0  0.68776815881E+01  0.15186515812E+02 -0.37084114143E+02  0.50528876937E+02  0.30000051937E+02 0.  0.
         12    1    1    2    0    0 -0.68776815881E+01 -0.15186515812E+02  0.37084114143E+02  0.40659123063E+02  0.00000000000E+00 0. -1.
         11    1    3    3    0    0  0.10943591722E+02  0.16010182822E+02 -0.26501292096E+02  0.32839102253E+02  0.51100000000E-03 0.  1.
        -11    1    3    3    0    0 -0.42090560522E+00  0.62099263812E+01 -0.40983766288E+01  0.74523176557E+01  0.51100000000E-03 0. -1.
         12    1    3    3    0    0 -0.36450045285E+01 -0.70335933920E+01 -0.64844454184E+01  0.10237457028E+02  0.00000000000E+00 0. -1.
</event>
<event>
 7    1  0.4520156E-012  0.5052888E+02  0.7816164E-02  0.1300439E+00
        -11   -1    0    0    0    0  0.00000000000E+00  0.00000000000E+00  0.45593999997E+02  0.45594000000E+02  0.51100000000E-03 0. -1.
         11   -1    0    0    0    0 -0.00000000000E+00 -0.00000000000E+00 -0.45593999997E+02  0.45594000000E+02  0.51100000000E-03 0.  1.
    9900012    2    1    2    0    0  0.32956702196E+01 -0.64204504496E+01 -0.40013503081E+02  0.50528879806E+02  0.30000060657E+02 0.  0.
         12    1    1    2    0    0 -0.32956702196E+01  0.64204504496E+01  0.40013503081E+02  0.40659120194E+02  0.00000000000E+00 0. -1.
         11    1    3    3    0    0 -0.47599838154E+01 -0.83725606088E+01 -0.89744383207E+01  0.13164260728E+02  0.51100000000E-03 0. -1.
        -11    1    3    3    0    0  0.52780459252E+01 -0.84435560280E+01 -0.13252815808E+02  0.16576746794E+02  0.51100000000E-03 0.  1.
        -12    1    3    3    0    0  0.27776081098E+01  0.10395666187E+02 -0.17786248952E+02  0.20787872284E+02  0.00000000000E+00 0.  1.
</event>
<event>
 7    1  0.4520156E-012  0.5052886E+02  0.7816164E-02  0.1300439E+00
        -11   -1    0    0    0    0  0.00000000000E+00  0.00000000000E+00  0.45593999997E+02  0.45594000000E+02  0.51100000000E-03 0. -1.
         11   -1    0    0    0    0 -0.00000000000E+00 -0.00000000000E+00 -0.45593999997E+02  0.45594000000E+02  0.51100000000E-03 0.  1.
    9900012    2    1    2    0    0  0.93991678220E+01 -0.94806596529E+01 -0.38404927263E+02  0.50528859560E+02  0.29999999120E+02 0.  0.
         12    1    1    2    0    0 -0.93991678220E+01  0.94806596529E+01  0.38404927263E+02  0.40659140440E+02  0.00000000000E+00 0. -1.
         11    1    3    3    0    0  0.30718617882E+01  0.15603483205E+01  0.47807657618E+00  0.34784449400E+01  0.51100000000E-03 0. -1.
        -11    1    3    3    0    0  0.90870715730E+01 -0.11440451069E+02 -0.92624556578E+01  0.17298898101E+02  0.51100000000E-03 0.  1.
        -12    1    3    3    0    0 -0.27597655391E+01  0.39944309597E+00 -0.29620548181E+02  0.29751516519E+02  0.00000000000E+00 0.  1.
</event>
<event>
 7    1  0.4520156E-012  0.5052886E+02  0.7816164E-02  0.1300439E+00
        -11   -1    0    0    0    0  0.00000000000E+00  0.00000000000E+00  0.45593999997E+02  0.45594000000E+02  0.51100000000E-03 0. -1.
         11   -1    0    0    0    0 -0.00000000000E+00 -0.00000000000E+00 -0.45593999997E+02  0.45594000000E+02  0.51100000000E-03 0.  1.
    9900012    2    1    2    0    0 -0.17219079399E+02  0.15184560451E+02  0.33557386476E+02  0.50528858856E+02  0.29999996979E+02 0.  0.
        -12    1    1    2    0    0  0.17219079399E+02 -0.15184560451E+02 -0.33557386476E+02  0.40659141144E+02  0.00000000000E+00 0.  1.
         11    1    3    3    0    0  0.34777787614E+01  0.29002942878E+01  0.67978405580E+01  0.81680651676E+01  0.51100000000E-03 0. -1.
        -11    1    3    3    0    0  0.48739242832E+01  0.22638966692E+01  0.44543384853E+01  0.69800786278E+01  0.51100000000E-03 0.  1.
         12    1    3    3    0    0 -0.25570782444E+02  0.10020369494E+02  0.22305207433E+02  0.35380715061E+02  0.00000000000E+00 0. -1.
</event>
<event>
 7    1  0.4520156E-012  0.5052887E+02  0.7816164E-02  0.1300439E+00
        -11   -1    0    0    0    0  0.00000000000E+00  0.00000000000E+00  0.45593999997E+02  0.45594000000E+02  0.51100000000E-03 0. -1.
         11   -1    0    0    0    0 -0.00000000000E+00 -0.00000000000E+00 -0.45593999997E+02  0.45594000000E+02  0.51100000000E-03 0.  1.
    9900012    2    1    2    0    0  0.14132724568E+02 -0.24306737821E+02  0.29370282692E+02  0.50528869259E+02  0.30000028599E+02 0.  0.
        -12    1    1    2    0    0 -0.14132724568E+02  0.24306737821E+02 -0.29370282692E+02  0.40659130741E+02  0.00000000000E+00 0.  1.
         11    1    3    3    0    0 -0.22106609229E+01  0.81483806801E-01  0.68865371513E+01  0.72331221146E+01  0.51100000000E-03 0.  1.
        -11    1    3    3    0    0  0.13471358333E+02 -0.32679113338E+01  0.25148489473E+01  0.14088335789E+02  0.51100000000E-03 0. -1.
         12    1    3    3    0    0  0.28720271586E+01 -0.21120310294E+02  0.19968896594E+02  0.29207411355E+02  0.00000000000E+00 0. -1.
</event>
<event>
 7    1  0.4520156E-012  0.5052887E+02  0.7816164E-02  0.1300439E+00
        -11   -1    0    0    0    0  0.00000000000E+00  0.00000000000E+00  0.45593999997E+02  0.45594000000E+02  0.51100000000E-03 0. -1.
         11   -1    0    0    0    0 -0.00000000000E+00 -0.00000000000E+00 -0.45593999997E+02  0.45594000000E+02  0.51100000000E-03 0.  1.
    9900012    2    1    2    0    0 -0.30068054695E+02  0.21656993045E+02 -0.16734750053E+02  0.50528866706E+02  0.30000020840E+02 0.  0.
         12    1    1    2    0    0  0.30068054695E+02 -0.21656993045E+02  0.16734750053E+02  0.40659133294E+02  0.00000000000E+00 0. -1.
         11    1    3    3    0    0 -0.16519946067E+02  0.23460570044E+02 -0.48259313877E+01  0.29096332739E+02  0.51100000000E-03 0. -1.
        -11    1    3    3    0    0 -0.46958874466E+01  0.47093962395E+01 -0.59880106624E+01  0.89490806123E+01  0.51100000000E-03 0.  1.
         12    1    3    3    0    0 -0.88522211812E+01 -0.65129732387E+01 -0.59208080029E+01  0.12483453355E+02  0.00000000000E+00 0. -1.
</event>
<event>
 7    1  0.4520156E-012  0.5052886E+02  0.7816164E-02  0.1300439E+00
        -11   -1    0    0    0    0  0.00000000000E+00  0.00000000000E+00  0.45593999997E+02  0.45594000000E+02  0.51100000000E-03 0. -1.
         11   -1    0    0    0    0 -0.00000000000E+00 -0.00000000000E+00 -0.45593999997E+02  0.45594000000E+02  0.51100000000E-03 0.  1.
    9900012    2    1    2    0    0  0.32630519082E+02 -0.95244070331E+01  0.22309194502E+02  0.50528864936E+02  0.30000015458E+02 0.  0.
        -12    1    1    2    0    0 -0.32630519082E+02  0.95244070331E+01 -0.22309194502E+02  0.40659135064E+02  0.00000000000E+00 0.  1.
         11    1    3    3    0    0  0.86348574310E+01  0.14245844613E+00 -0.20858153490E+01  0.88843504655E+01  0.51100000000E-03 0. -1.
        -11    1    3    3    0    0 -0.16565763189E+01 -0.93946480969E+00 -0.27140769337E+01  0.33155773392E+01  0.51100000000E-03 0.  1.
         12    1    3    3    0    0  0.25652237970E+02 -0.87274006695E+01  0.27109086784E+02  0.38328937131E+02  0.00000000000E+00 0. -1.
</event>
<event>
 7    1  0.4520156E-012  0.5052885E+02  0.7816164E-02  0.1300439E+00
        -11   -1    0    0    0    0  0.00000000000E+00  0.00000000000E+00  0.45593999997E+02  0.45594000000E+02  0.51100000000E-03 0. -1.
         11   -1    0    0    0    0 -0.00000000000E+00 -0.00000000000E+00 -0.45593999997E+02  0.45594000000E+02  0.51100000000E-03 0.  1.
    9900012    2    1    2    0    0  0.27334571261E+01  0.11230135999E+02 -0.38981771188E+02  0.50528853091E+02  0.29999979454E+02 0.  0.
         12    1    1    2    0    0 -0.27334571261E+01 -0.11230135999E+02  0.38981771188E+02  0.40659146909E+02  0.00000000000E+00 0. -1.
         11    1    3    3    0    0  0.15910402630E+01  0.59272385023E+01 -0.22271706376E+02  0.23101785008E+02  0.51100000000E-03 0. -1.
        -11    1    3    3    0    0 -0.29482686686E+01  0.42858687232E+01 -0.20867763350E+02  0.21506382921E+02  0.51100000000E-03 0.  1.
         12    1    3    3    0    0  0.40906855318E+01  0.10170287739E+01  0.41576985381E+01  0.59206851614E+01  0.00000000000E+00 0. -1.
</event>
<event>
 7    1  0.4520156E-012  0.5052884E+02  0.7816164E-02  0.1300439E+00
        -11   -1    0    0    0    0  0.00000000000E+00  0.00000000000E+00  0.45593999997E+02  0.45594000000E+02  0.51100000000E-03 0. -1.
         11   -1    0    0    0    0 -0.00000000000E+00 -0.00000000000E+00 -0.45593999997E+02  0.45594000000E+02  0.51100000000E-03 0.  1.
    9900012    2    1    2    0    0 -0.44929717678E+01  0.29836453604E+02  0.27253742266E+02  0.50528840805E+02  0.29999942110E+02 0.  0.
        -12    1    1    2    0    0  0.44929717678E+01 -0.29836453604E+02 -0.27253742266E+02  0.40659159195E+02  0.00000000000E+00 0.  1.
         11    1    3    3    0    0  0.14729010298E+01  0.14777015859E+02  0.11990367901E+02  0.19086606766E+02  0.51100000000E-03 0. -1.
        -11    1    3    3    0    0  0.14323693157E+01  0.18960684611E+02  0.92790225422E+01  0.21157965460E+02  0.51100000000E-03 0.  1.
        -12    1    3    3    0    0 -0.73982421133E+01 -0.39012468670E+01  0.59843518224E+01  0.10284268580E+02  0.00000000000E+00 0.  1.
</event>
<event>
 7    1  0.4520156E-012  0.5052886E+02  0.7816164E-02  0.1300439E+00
        -11   -1    0    0    0    0  0.00000000000E+00  0.00000000000E+00  0.45593999997E+02  0.45594000000E+02  0.51100000000E-03 0. -1.
         11   -1    0    0    0    0 -0.00000000000E+00 -0.00000000000E+00 -0.45593999997E+02  0.45594000000E+02  0.51100000000E-03 0.  1.
    9900012    2    1    2    0    0 -0.28875478773E+02 -0.20938096796E+02 -0.19518407929E+02  0.50528863021E+02  0.30000009638E+02 0.  0.
         12    1    1    2    0    0  0.28875478773E+02  0.20938096796E+02  0.19518407929E+02  0.40659136979E+02  0.00000000000E+00 0. -1.
         11    1    3    3    0    0 -0.43845902434E+01 -0.41927312162E+00 -0.45400577582E+01  0.63255471117E+01  0.51100000000E-03 0. -1.
        -11    1    3    3    0    0 -0.32260019551E+00 -0.46124000842E+01 -0.14550135145E+02  0.15267112970E+02  0.51100000000E-03 0.  1.
         12    1    3    3    0    0 -0.24168288334E+02 -0.15906423590E+02 -0.42821502546E+00  0.28936202939E+02  0.00000000000E+00 0. -1.
</event>
<event>
 7    1  0.4520156E-012  0.5052886E+02  0.7816164E-02  0.1300439E+00
        -11   -1    0    0    0    0  0.00000000000E+00  0.00000000000E+00  0.45593999997E+02  0.45594000000E+02  0.51100000000E-03 0. -1.
         11   -1    0    0    0    0 -0.00000000000E+00 -0.00000000000E+00 -0.45593999997E+02  0.45594000000E+02  0.51100000000E-03 0.  1.
    9900012    2    1    2    0    0  0.25361777532E+02  0.17730393578E+02 -0.26373830711E+02  0.50528861269E+02  0.30000004313E+02 0.  0.
         12    1    1    2    0    0 -0.25361777532E+02 -0.17730393578E+02  0.26373830711E+02  0.40659138731E+02  0.00000000000E+00 0. -1.
         11    1    3    3    0    0  0.44281401634E+01  0.12270987908E+02 -0.20726411337E+01  0.13209141193E+02  0.51100000000E-03 0. -1.
        -11    1    3    3    0    0  0.13648788839E+00  0.30986930559E+01  0.20120125728E+01  0.36971235376E+01  0.51100000000E-03 0.  1.
         12    1    3    3    0    0  0.20797149480E+02  0.23607126139E+01 -0.26313202150E+02  0.33622596538E+02  0.00000000000E+00 0. -1.
</event>
<event>
 7    1  0.4520156E-012  0.5052886E+02  0.7816164E-02  0.1300439E+00
        -11   -1    0    0    0    0  0.00000000000E+00  0.00000000000E+00  0.45593999997E+02  0.45594000000E+02  0.51100000000E-03 0. -1.
         11   -1    0    0    0    0 -0.00000000000E+00 -0.00000000000E+00 -0.45593999997E+02  0.45594000000E+02  0.51100000000E-03 0.  1.
    9900012    2    1    2    0    0  0.11475267697E+02 -0.37846677083E+02  0.94399843256E+01  0.50528855408E+02  0.29999986497E+02 0.  0.
        -12    1    1    2    0    0 -0.11475267697E+02  0.37846677083E+02 -0.94399843256E+01  0.40659144592E+02  0.00000000000E+00 0.  1.
         11    1    3    3    0    0 -0.42915025880E+01 -0.87489190914E+01  0.87436563538E+01  0.13092444631E+02  0.51100000000E-03 0. -1.
        -11    1    3    3    0    0 -0.31477296755E+01 -0.10457131115E+01  0.13897168953E+01  0.35962524010E+01  0.51100000000E-03 0.  1.
        -12    1    3    3    0    0  0.18914499960E+02 -0.28052044880E+02 -0.69338892346E+00  0.33840158375E+02  0.00000000000E+00 0.  1.
</event>
<event>
 7    1  0.4520156E-012  0.5052886E+02  0.7816164E-02  0.1300439E+00
        -11   -1    0    0    0    0  0.00000000000E+00  0.00000000000E+00  0.45593999997E+02  0.45594000000E+02  0.51100000000E-03 0.  1.
         11   -1    0    0    0    0 -0.00000000000E+00 -0.00000000000E+00 -0.45593999997E+02  0.45594000000E+02  0.51100000000E-03 0. -1.
    9900012    2    1    2    0    0  0.12742053832E+02  0.28175091076E+02 -0.26400193605E+02  0.50528856927E+02  0.29999991117E+02 0.  0.
         12    1    1    2    0    0 -0.12742053832E+02 -0.28175091076E+02  0.26400193605E+02  0.40659143073E+02  0.00000000000E+00 0. -1.
         11    1    3    3    0    0 -0.24624173075E+01 -0.20954086038E+01  0.16787244493E+01  0.36431239686E+01  0.51100000000E-03 0. -1.
        -11    1    3    3    0    0  0.18632714112E+01 -0.19361098164E+01 -0.20636940019E+01  0.33880871842E+01  0.51100000000E-03 0.  1.
        -12    1    3    3    0    0  0.13341199729E+02  0.32206609496E+02 -0.26015224052E+02  0.43497645775E+02  0.00000000000E+00 0.  1.
</event>
<event>
 7    1  0.4520156E-012  0.5052886E+02  0.7816164E-02  0.1300439E+00
        -11   -1    0    0    0    0  0.00000000000E+00  0.00000000000E+00  0.45593999997E+02  0.45594000000E+02  0.51100000000E-03 0. -1.
         11   -1    0    0    0    0 -0.00000000000E+00 -0.00000000000E+00 -0.45593999997E+02  0.45594000000E+02  0.51100000000E-03 0.  1.
    9900012    2    1    2    0    0  0.52917218139E+01  0.76001981328E+01 -0.39590410116E+02  0.50528857060E+02  0.29999991521E+02 0.  0.
         12    1    1    2    0    0 -0.52917218139E+01 -0.76001981328E+01  0.39590410116E+02  0.40659142940E+02  0.00000000000E+00 0. -1.
         11    1    3    3    0    0  0.33343290719E+01 -0.12776581848E+01 -0.34935453817E+02  0.35117461390E+02  0.51100000000E-03 0. -1.
        -11    1    3    3    0    0 -0.10548296590E+01  0.30735973300E+01 -0.75803744841E+01  0.82475295536E+01  0.51100000000E-03 0.  1.
         12    1    3    3    0    0  0.30122224010E+01  0.58042589875E+01  0.29254181847E+01  0.71638661171E+01  0.00000000000E+00 0. -1.
</event>
<event>
 7    1  0.4520156E-012  0.5052886E+02  0.7816164E-02  0.1300439E+00
        -11   -1    0    0    0    0  0.00000000000E+00  0.00000000000E+00  0.45593999997E+02  0.45594000000E+02  0.51100000000E-03 0.  1.
         11   -1    0    0    0    0 -0.00000000000E+00 -0.00000000000E+00 -0.45593999997E+02  0.45594000000E+02  0.51100000000E-03 0. -1.
    9900012    2    1    2    0    0 -0.21167089598E+02  0.26479816801E+02 -0.22448599511E+02  0.50528855889E+02  0.29999987960E+02 0.  0.
         12    1    1    2    0    0  0.21167089598E+02 -0.26479816801E+02  0.22448599511E+02  0.40659144111E+02  0.00000000000E+00 0. -1.
         11    1    3    3    0    0  0.63286577402E+01  0.62400592306E+01 -0.20580826445E+01  0.91228259014E+01  0.51100000000E-03 0. -1.
        -11    1    3    3    0    0 -0.12643033118E+02  0.47770677187E+01 -0.12930635016E+02  0.18704758341E+02  0.51100000000E-03 0.  1.
        -12    1    3    3    0    0 -0.14852714220E+02  0.15462689852E+02 -0.74598818506E+01  0.22701271647E+02  0.00000000000E+00 0.  1.
</event>
<event>
 7    1  0.4520156E-012  0.5052886E+02  0.7816164E-02  0.1300439E+00
        -11   -1    0    0    0    0  0.00000000000E+00  0.00000000000E+00  0.45593999997E+02  0.45594000000E+02  0.51100000000E-03 0. -1.
         11   -1    0    0    0    0 -0.00000000000E+00 -0.00000000000E+00 -0.45593999997E+02  0.45594000000E+02  0.51100000000E-03 0.  1.
    9900012    2    1    2    0    0 -0.34193386418E+02  0.15174979610E+02 -0.15927906757E+02  0.50528857184E+02  0.29999991896E+02 0.  0.
         12    1    1    2    0    0  0.34193386418E+02 -0.15174979610E+02  0.15927906757E+02  0.40659142816E+02  0.00000000000E+00 0. -1.
         11    1    3    3    0    0 -0.91152810614E+01 -0.58459570602E+01 -0.40774689094E+01  0.11571055084E+02  0.51100000000E-03 0. -1.
        -11    1    3    3    0    0 -0.44222723174E+01  0.12024795046E+01 -0.91142403264E+01  0.10201559998E+02  0.51100000000E-03 0.  1.
         12    1    3    3    0    0 -0.20655833039E+02  0.19818457166E+02 -0.27361975214E+01  0.28756242102E+02  0.00000000000E+00 0. -1.
</event>
<event>
 7    1  0.4520156E-012  0.5052886E+02  0.7816164E-02  0.1300439E+00
        -11   -1    0    0    0    0  0.00000000000E+00  0.00000000000E+00  0.45593999997E+02  0.45594000000E+02  0.51100000000E-03 0. -1.
         11   -1    0    0    0    0 -0.00000000000E+00 -0.00000000000E+00 -0.45593999997E+02  0.45594000000E+02  0.51100000000E-03 0.  1.
    9900012    2    1    2    0    0 -0.54971093152E+01  0.14230879889E+02 -0.37688590655E+02  0.50528855656E+02  0.29999987251E+02 0.  0.
         12    1    1    2    0    0  0.54971093152E+01 -0.14230879889E+02  0.37688590655E+02  0.40659144344E+02  0.00000000000E+00 0. -1.
         11    1    3    3    0    0  0.82435511946E+01  0.56988441068E+01 -0.76567810374E+01  0.12611869670E+02  0.51100000000E-03 0. -1.
        -11    1    3    3    0    0 -0.45744317239E+01  0.11315762074E+02 -0.22985199277E+02  0.26024820518E+02  0.51100000000E-03 0.  1.
         12    1    3    3    0    0 -0.91662287859E+01 -0.27837262918E+01 -0.70466103405E+01  0.11892165468E+02  0.00000000000E+00 0. -1.
</event>
<event>
 7    1  0.4520156E-012  0.5052888E+02  0.7816164E-02  0.1300439E+00
        -11   -1    0    0    0    0  0.00000000000E+00  0.00000000000E+00  0.45593999997E+02  0.45594000000E+02  0.51100000000E-03 0. -1.
         11   -1    0    0    0    0 -0.00000000000E+00 -0.00000000000E+00 -0.45593999997E+02  0.45594000000E+02  0.51100000000E-03 0.  1.
    9900012    2    1    2    0    0 -0.10259285471E+02 -0.39339895072E+02  0.53282397101E+00  0.50528878218E+02  0.30000055832E+02 0.  0.
         12    1    1    2    0    0  0.10259285471E+02  0.39339895072E+02 -0.53282397101E+00  0.40659121782E+02  0.00000000000E+00 0. -1.
         11    1    3    3    0    0 -0.11940371741E+02 -0.22297809415E+02 -0.16242497794E+01  0.25345669642E+02  0.51100000000E-03 0. -1.
        -11    1    3    3    0    0  0.23836829289E+01 -0.13404282998E+02  0.97424562595E+01  0.16741332122E+02  0.51100000000E-03 0.  1.
        -12    1    3    3    0    0 -0.70259665896E+00 -0.36378026599E+01 -0.75853825091E+01  0.84418764541E+01  0.00000000000E+00 0.  1.
</event>
<event>
 7    1  0.4520156E-012  0.5052886E+02  0.7816164E-02  0.1300439E+00
        -11   -1    0    0    0    0  0.00000000000E+00  0.00000000000E+00  0.45593999997E+02  0.45594000000E+02  0.51100000000E-03 0. -1.
         11   -1    0    0    0    0 -0.00000000000E+00 -0.00000000000E+00 -0.45593999997E+02  0.45594000000E+02  0.51100000000E-03 0.  1.
    9900012    2    1    2    0    0  0.43055825054E+01 -0.24608622609E+01 -0.40355567915E+02  0.50528859017E+02  0.29999997467E+02 0.  0.
         12    1    1    2    0    0 -0.43055825054E+01  0.24608622609E+01  0.40355567915E+02  0.40659140983E+02  0.00000000000E+00 0. -1.
         11    1    3    3    0    0 -0.55115037029E+01 -0.36234549864E+01 -0.16605081187E+02  0.17867143605E+02  0.51100000000E-03 0. -1.
        -11    1    3    3    0    0  0.84591674835E+01  0.67282098221E+01 -0.24600368789E+02  0.26870140803E+02  0.51100000000E-03 0.  1.
        -12    1    3    3    0    0  0.13579187248E+01 -0.55656170966E+01  0.84988206220E+00  0.57915746088E+01  0.00000000000E+00 0.  1.
</event>
<event>
 7    1  0.4520156E-012  0.5052884E+02  0.7816164E-02  0.1300439E+00
        -11   -1    0    0    0    0  0.00000000000E+00  0.00000000000E+00  0.45593999997E+02  0.45594000000E+02  0.51100000000E-03 0. -1.
         11   -1    0    0    0    0 -0.00000000000E+00 -0.00000000000E+00 -0.45593999997E+02  0.45594000000E+02  0.51100000000E-03 0.  1.
    9900012    2    1    2    0    0 -0.58992515669E+00 -0.35312757482E+02  0.20145174309E+02  0.50528844812E+02  0.29999954289E+02 0.  0.
        -12    1    1    2    0    0  0.58992515669E+00  0.35312757482E+02 -0.20145174309E+02  0.40659155188E+02  0.00000000000E+00 0.  1.
         11    1    3    3    0    0 -0.76379133012E+01 -0.10991930468E+02  0.12124706371E+02  0.18060142853E+02  0.51100000000E-03 0. -1.
        -11    1    3    3    0    0 -0.45176710746E+01 -0.64548107159E+01  0.79401716496E+01  0.11185716759E+02  0.51100000000E-03 0.  1.
         12    1    3    3    0    0  0.11565659219E+02 -0.17866016298E+02  0.80296288481E-01  0.21282985200E+02  0.00000000000E+00 0. -1.
</event>
<event>
 7    1  0.4520156E-012  0.5052885E+02  0.7816164E-02  0.1300439E+00
        -11   -1    0    0    0    0  0.00000000000E+00  0.00000000000E+00  0.45593999997E+02  0.45594000000E+02  0.51100000000E-03 0. -1.
         11   -1    0    0    0    0 -0.00000000000E+00 -0.00000000000E+00 -0.45593999997E+02  0.45594000000E+02  0.51100000000E-03 0.  1.
    9900012    2    1    2    0    0 -0.32107929527E+02 -0.30137662267E+01 -0.24762163451E+02  0.50528847720E+02  0.29999963130E+02 0.  0.
         12    1    1    2    0    0  0.32107929527E+02  0.30137662267E+01  0.24762163451E+02  0.40659152280E+02  0.00000000000E+00 0. -1.
         11    1    3    3    0    0 -0.74977222341E+01  0.51968019688E+01 -0.15216809692E+01  0.92486811295E+01  0.51100000000E-03 0. -1.
        -11    1    3    3    0    0 -0.84317903500E+01 -0.58369031860E+01 -0.22712168449E+02  0.24920014511E+02  0.51100000000E-03 0.  1.
         12    1    3    3    0    0 -0.16178416943E+02 -0.23736650095E+01 -0.52831403262E+00  0.16360152080E+02  0.00000000000E+00 0. -1.
</event>
<event>
 7    1  0.4520156E-012  0.5052885E+02  0.7816164E-02  0.1300439E+00
        -11   -1    0    0    0    0  0.00000000000E+00  0.00000000000E+00  0.45593999997E+02  0.45594000000E+02  0.51100000000E-03 0. -1.
         11   -1    0    0    0    0 -0.00000000000E+00 -0.00000000000E+00 -0.45593999997E+02  0.45594000000E+02  0.51100000000E-03 0.  1.
    9900012    2    1    2    0    0  0.15699865813E+02 -0.37505710208E+02  0.51861502793E-01  0.50528846365E+02  0.29999959010E+02 0.  0.
         12    1    1    2    0    0 -0.15699865813E+02  0.37505710208E+02 -0.51861502793E-01  0.40659153635E+02  0.00000000000E+00 0. -1.
         11    1    3    3    0    0  0.16745758240E+02 -0.12209183582E+02 -0.51368583801E+01  0.21351156808E+02  0.51100000000E-03 0. -1.
        -11    1    3    3    0    0  0.42395274515E+01 -0.16081496308E+02  0.75985486027E+01  0.18284585247E+02  0.51100000000E-03 0.  1.
        -12    1    3    3    0    0 -0.52854198780E+01 -0.92150303181E+01 -0.24098287199E+01  0.10893104310E+02  0.00000000000E+00 0.  1.
</event>
<event>
 7    1  0.4520156E-012  0.5052887E+02  0.7816164E-02  0.1300439E+00
        -11   -1    0    0    0    0  0.00000000000E+00  0.00000000000E+00  0.45593999997E+02  0.45594000000E+02  0.51100000000E-03 0. -1.
         11   -1    0    0    0    0 -0.00000000000E+00 -0.00000000000E+00 -0.45593999997E+02  0.45594000000E+02  0.51100000000E-03 0.  1.
    9900012    2    1    2    0    0 -0.21854038142E+02  0.24300083228E+02 -0.24188262788E+02  0.50528867143E+02  0.30000022166E+02 0.  0.
         12    1    1    2    0    0  0.21854038142E+02 -0.24300083228E+02  0.24188262788E+02  0.40659132857E+02  0.00000000000E+00 0. -1.
         11    1    3    3    0    0 -0.41061646736E+01  0.16751330448E+01 -0.24111082990E+01  0.50477819421E+01  0.51100000000E-03 0. -1.
        -11    1    3    3    0    0 -0.19482751365E+02  0.53244956366E+01 -0.39519779551E+01  0.20580232859E+02  0.51100000000E-03 0.  1.
         12    1    3    3    0    0  0.17348778962E+01  0.17300454547E+02 -0.17825176534E+02  0.24900852341E+02  0.00000000000E+00 0. -1.
</event>
<event>
 7    1  0.4520156E-012  0.5052890E+02  0.7816164E-02  0.1300439E+00
        -11   -1    0    0    0    0  0.00000000000E+00  0.00000000000E+00  0.45593999997E+02  0.45594000000E+02  0.51100000000E-03 0.  1.
         11   -1    0    0    0    0 -0.00000000000E+00 -0.00000000000E+00 -0.45593999997E+02  0.45594000000E+02  0.51100000000E-03 0. -1.
    9900012    2    1    2    0    0  0.40617634817E+02  0.24379682933E+00  0.18196040165E+01  0.50528897037E+02  0.30000113033E+02 0.  0.
        -12    1    1    2    0    0 -0.40617634817E+02 -0.24379682933E+00 -0.18196040165E+01  0.40659102963E+02  0.00000000000E+00 0.  1.
         11    1    3    3    0    0  0.49017832046E+01  0.21731287328E+01 -0.61711812273E+01  0.81751724798E+01  0.51100000000E-03 0. -1.
        -11    1    3    3    0    0  0.46813366807E+01  0.47525481448E+01  0.82466334555E+01  0.10607006675E+02  0.51100000000E-03 0.  1.
         12    1    3    3    0    0  0.31034514931E+02 -0.66818800482E+01 -0.25584821173E+00  0.31746717882E+02  0.00000000000E+00 0. -1.
</event>
<event>
 7    1  0.4520156E-012  0.5052886E+02  0.7816164E-02  0.1300439E+00
        -11   -1    0    0    0    0  0.00000000000E+00  0.00000000000E+00  0.45593999997E+02  0.45594000000E+02  0.51100000000E-03 0. -1.
         11   -1    0    0    0    0 -0.00000000000E+00 -0.00000000000E+00 -0.45593999997E+02  0.45594000000E+02  0.51100000000E-03 0.  1.
    9900012    2    1    2    0    0 -0.25372596308E+02 -0.40344748723E+01 -0.31513806912E+02  0.50528860105E+02  0.30000000777E+02 0.  0.
         12    1    1    2    0    0  0.25372596308E+02  0.40344748723E+01  0.31513806912E+02  0.40659139895E+02  0.00000000000E+00 0. -1.
         11    1    3    3    0    0  0.14854400439E+01  0.11472632511E+01 -0.46204726389E+00  0.19329337874E+01  0.51100000000E-03 0. -1.
        -11    1    3    3    0    0 -0.52386253319E+01 -0.28628518640E+01  0.41145936527E+01  0.72504480794E+01  0.51100000000E-03 0.  1.
        -12    1    3    3    0    0 -0.21619411020E+02 -0.23188862594E+01 -0.35166353301E+02  0.41345478239E+02  0.00000000000E+00 0.  1.
</event>
<event>
 7    1  0.4520156E-012  0.5052885E+02  0.7816164E-02  0.1300439E+00
        -11   -1    0    0    0    0  0.00000000000E+00  0.00000000000E+00  0.45593999997E+02  0.45594000000E+02  0.51100000000E-03 0. -1.
         11   -1    0    0    0    0 -0.00000000000E+00 -0.00000000000E+00 -0.45593999997E+02  0.45594000000E+02  0.51100000000E-03 0.  1.
    9900012    2    1    2    0    0  0.36617398051E+02  0.98188647975E+00 -0.17645629009E+02  0.50528853868E+02  0.29999981817E+02 0.  0.
         12    1    1    2    0    0 -0.36617398051E+02 -0.98188647975E+00  0.17645629009E+02  0.40659146132E+02  0.00000000000E+00 0. -1.
         11    1    3    3    0    0  0.10812502166E+02 -0.97185087157E+01 -0.12415429055E+02  0.19118119510E+02  0.51100000000E-03 0. -1.
        -11    1    3    3    0    0  0.77164949562E+01 -0.18192766282E+01 -0.50720873410E+01  0.94117018714E+01  0.51100000000E-03 0.  1.
        -12    1    3    3    0    0  0.18088400929E+02  0.12519671824E+02 -0.15811261371E+00  0.21999032486E+02  0.00000000000E+00 0.  1.
</event>
<event>
 7    1  0.4520156E-012  0.5052886E+02  0.7816164E-02  0.1300439E+00
        -11   -1    0    0    0    0  0.00000000000E+00  0.00000000000E+00  0.45593999997E+02  0.45594000000E+02  0.51100000000E-03 0.  1.
         11   -1    0    0    0    0 -0.00000000000E+00 -0.00000000000E+00 -0.45593999997E+02  0.45594000000E+02  0.51100000000E-03 0. -1.
    9900012    2    1    2    0    0 -0.33313163626E+02 -0.21998072986E+02 -0.77125441087E+01  0.50528862988E+02  0.30000009539E+02 0.  0.
         12    1    1    2    0    0  0.33313163626E+02  0.21998072986E+02  0.77125441087E+01  0.40659137012E+02  0.00000000000E+00 0. -1.
         11    1    3    3    0    0 -0.14208983724E+02 -0.10585469537E+02 -0.48976838254E+00  0.17725328124E+02  0.51100000000E-03 0. -1.
        -11    1    3    3    0    0 -0.17597847329E+02 -0.16660093720E+02 -0.62668459376E+00  0.24241198139E+02  0.51100000000E-03 0.  1.
         12    1    3    3    0    0 -0.15063325732E+01  0.52474902705E+01 -0.65960911324E+01  0.85623367247E+01  0.00000000000E+00 0. -1.
</event>
<event>
 7    1  0.4520156E-012  0.5052886E+02  0.7816164E-02  0.1300439E+00
        -11   -1    0    0    0    0  0.00000000000E+00  0.00000000000E+00  0.45593999997E+02  0.45594000000E+02  0.51100000000E-03 0.  1.
         11   -1    0    0    0    0 -0.00000000000E+00 -0.00000000000E+00 -0.45593999997E+02  0.45594000000E+02  0.51100000000E-03 0. -1.
    9900012    2    1    2    0    0 -0.80688106713E+00  0.32624808477E+02  0.24251531489E+02  0.50528856320E+02  0.29999989269E+02 0.  0.
        -12    1    1    2    0    0  0.80688106713E+00 -0.32624808477E+02 -0.24251531489E+02  0.40659143680E+02  0.00000000000E+00 0.  1.
         11    1    3    3    0    0  0.83130335740E+01  0.56447020372E+01  0.58098165061E+01  0.11607030472E+02  0.51100000000E-03 0. -1.
        -11    1    3    3    0    0 -0.21467201323E+00  0.22775794064E+02  0.18057675399E+02  0.29066518890E+02  0.51100000000E-03 0.  1.
         12    1    3    3    0    0 -0.89052426279E+01  0.42043123768E+01  0.38403958460E+00  0.98553069575E+01  0.00000000000E+00 0. -1.
</event>
<event>
 7    1  0.4520156E-012  0.5052886E+02  0.7816164E-02  0.1300439E+00
        -11   -1    0    0    0    0  0.00000000000E+00  0.00000000000E+00  0.45593999997E+02  0.45594000000E+02  0.51100000000E-03 0. -1.
         11   -1    0    0    0    0 -0.00000000000E+00 -0.00000000000E+00 -0.45593999997E+02  0.45594000000E+02  0.51100000000E-03 0.  1.
    9900012    2    1    2    0    0 -0.24995052108E+02 -0.10871357116E+02  0.30169963752E+02  0.50528858983E+02  0.29999997366E+02 0.  0.
        -12    1    1    2    0    0  0.24995052108E+02  0.10871357116E+02 -0.30169963752E+02  0.40659141017E+02  0.00000000000E+00 0.  1.
         11    1    3    3    0    0 -0.22676227799E+02 -0.39974732957E+01  0.11468458915E+02  0.25723853717E+02  0.51100000000E-03 0. -1.
        -11    1    3    3    0    0 -0.60151866906E+01  0.30749294539E+00  0.14499018252E+02  0.15700272398E+02  0.51100000000E-03 0.  1.
        -12    1    3    3    0    0  0.36963623815E+01 -0.71813767655E+01  0.42024865847E+01  0.91047328681E+01  0.00000000000E+00 0.  1.
</event>
<event>
 7    1  0.4520156E-012  0.5052884E+02  0.7816164E-02  0.1300439E+00
        -11   -1    0    0    0    0  0.00000000000E+00  0.00000000000E+00  0.45593999997E+02  0.45594000000E+02  0.51100000000E-03 0. -1.
         11   -1    0    0    0    0 -0.00000000000E+00 -0.00000000000E+00 -0.45593999997E+02  0.45594000000E+02  0.51100000000E-03 0.  1.
    9900012    2    1    2    0    0 -0.39134759209E+01  0.33444158369E+02 -0.22789042612E+02  0.50528837614E+02  0.29999932410E+02 0.  0.
         12    1    1    2    0    0  0.39134759209E+01 -0.33444158369E+02  0.22789042612E+02  0.40659162386E+02  0.00000000000E+00 0. -1.
         11    1    3    3    0    0 -0.41541288051E+01  0.15672184862E+01  0.22608627416E+01  0.49824151283E+01  0.51100000000E-03 0. -1.
        -11    1    3    3    0    0 -0.86655805790E+01  0.60415384866E+01 -0.88282750140E+01  0.13767022701E+02  0.51100000000E-03 0.  1.
         12    1    3    3    0    0  0.89062334631E+01  0.25835401396E+02 -0.16221630340E+02  0.31779399785E+02  0.00000000000E+00 0. -1.
</event>
<event>
 7    1  0.4520156E-012  0.5052887E+02  0.7816164E-02  0.1300439E+00
        -11   -1    0    0    0    0  0.00000000000E+00  0.00000000000E+00  0.45593999997E+02  0.45594000000E+02  0.51100000000E-03 0. -1.
         11   -1    0    0    0    0 -0.00000000000E+00 -0.00000000000E+00 -0.45593999997E+02  0.45594000000E+02  0.51100000000E-03 0.  1.
    9900012    2    1    2    0    0  0.33572436123E+01 -0.42361437746E+01  0.40298253244E+02  0.50528865562E+02  0.30000017362E+02 0.  0.
        -12    1    1    2    0    0 -0.33572436123E+01  0.42361437746E+01 -0.40298253244E+02  0.40659134438E+02  0.00000000000E+00 0.  1.
         11    1    3    3    0    0 -0.64172611026E+00  0.61392094406E+01  0.11357643615E+02  0.12926630408E+02  0.51100000000E-03 0. -1.
        -11    1    3    3    0    0  0.52574856099E+01  0.46212655696E+01  0.17021688278E+02  0.18404758149E+02  0.51100000000E-03 0.  1.
         12    1    3    3    0    0 -0.12585158873E+01 -0.14996618785E+02  0.11918921350E+02  0.19197477005E+02  0.00000000000E+00 0. -1.
</event>
<event>
 7    1  0.4520156E-012  0.5052886E+02  0.7816164E-02  0.1300439E+00
        -11   -1    0    0    0    0  0.00000000000E+00  0.00000000000E+00  0.45593999997E+02  0.45594000000E+02  0.51100000000E-03 0. -1.
         11   -1    0    0    0    0 -0.00000000000E+00 -0.00000000000E+00 -0.45593999997E+02  0.45594000000E+02  0.51100000000E-03 0.  1.
    9900012    2    1    2    0    0 -0.14301572811E+02  0.21565538909E+02  0.31361731053E+02  0.50528860462E+02  0.30000001860E+02 0.  0.
        -12    1    1    2    0    0  0.14301572811E+02 -0.21565538909E+02 -0.31361731053E+02  0.40659139538E+02  0.00000000000E+00 0.  1.
         11    1    3    3    0    0 -0.91732810112E+01  0.18057701717E+02  0.36368252816E+02  0.41627869138E+02  0.51100000000E-03 0. -1.
        -11    1    3    3    0    0 -0.33294496022E+00 -0.78207411611E+00 -0.20959045666E+00  0.87545456208E+00  0.51100000000E-03 0.  1.
         12    1    3    3    0    0 -0.47953468398E+01  0.42899113089E+01 -0.47969313069E+01  0.80255367618E+01  0.00000000000E+00 0. -1.
</event>
<event>
 7    1  0.4520156E-012  0.5052886E+02  0.7816164E-02  0.1300439E+00
        -11   -1    0    0    0    0  0.00000000000E+00  0.00000000000E+00  0.45593999997E+02  0.45594000000E+02  0.51100000000E-03 0.  1.
         11   -1    0    0    0    0 -0.00000000000E+00 -0.00000000000E+00 -0.45593999997E+02  0.45594000000E+02  0.51100000000E-03 0. -1.
    9900012    2    1    2    0    0 -0.32104764098E+02  0.21200198541E+02  0.13152994584E+02  0.50528861267E+02  0.30000004308E+02 0.  0.
        -12    1    1    2    0    0  0.32104764098E+02 -0.21200198541E+02 -0.13152994584E+02  0.40659138733E+02  0.00000000000E+00 0.  1.
         11    1    3    3    0    0 -0.26116159677E+02  0.53491768453E+01  0.18852539102E+01  0.26724926038E+02  0.51100000000E-03 0.  1.
        -11    1    3    3    0    0 -0.86331773123E+00  0.12365316269E+02  0.18546497033E+01  0.12533398969E+02  0.51100000000E-03 0. -1.
        -12    1    3    3    0    0 -0.51252866895E+01  0.34857054273E+01  0.94130909702E+01  0.11270536260E+02  0.00000000000E+00 0.  1.
</event>
<event>
 7    1  0.4520156E-012  0.5052886E+02  0.7816164E-02  0.1300439E+00
        -11   -1    0    0    0    0  0.00000000000E+00  0.00000000000E+00  0.45593999997E+02  0.45594000000E+02  0.51100000000E-03 0. -1.
         11   -1    0    0    0    0 -0.00000000000E+00 -0.00000000000E+00 -0.45593999997E+02  0.45594000000E+02  0.51100000000E-03 0.  1.
    9900012    2    1    2    0    0 -0.69585572155E+01 -0.83708560904E+01  0.39174900395E+02  0.50528861161E+02  0.30000003985E+02 0.  0.
        -12    1    1    2    0    0  0.69585572155E+01  0.83708560904E+01 -0.39174900395E+02  0.40659138839E+02  0.00000000000E+00 0.  1.
         11    1    3    3    0    0 -0.96906456494E+01 -0.74580875820E+01  0.19443756724E+02  0.22969356963E+02  0.51100000000E-03 0.  1.
        -11    1    3    3    0    0  0.44535645582E+00 -0.72621230797E+01  0.19493148587E+02  0.20806720455E+02  0.51100000000E-03 0. -1.
        -12    1    3    3    0    0  0.22867319781E+01  0.63493545714E+01  0.23799508293E+00  0.67527837424E+01  0.00000000000E+00 0.  1.
</event>
<event>
 7    1  0.4520156E-012  0.5052887E+02  0.7816164E-02  0.1300439E+00
        -11   -1    0    0    0    0  0.00000000000E+00  0.00000000000E+00  0.45593999997E+02  0.45594000000E+02  0.51100000000E-03 0. -1.
         11   -1    0    0    0    0 -0.00000000000E+00 -0.00000000000E+00 -0.45593999997E+02  0.45594000000E+02  0.51100000000E-03 0.  1.
    9900012    2    1    2    0    0 -0.16826685177E+01 -0.16886756702E+01 -0.40589188688E+02  0.50528865267E+02  0.30000016466E+02 0.  0.
         12    1    1    2    0    0  0.16826685177E+01  0.16886756702E+01  0.40589188688E+02  0.40659134733E+02  0.00000000000E+00 0. -1.
         11    1    3    3    0    0 -0.57722219356E+01 -0.58798089272E+00  0.18308647710E+01  0.60841050020E+01  0.51100000000E-03 0. -1.
        -11    1    3    3    0    0 -0.33662976739E+01  0.24161835163E+01 -0.22632328238E+02  0.23008524171E+02  0.51100000000E-03 0.  1.
        -12    1    3    3    0    0  0.74558510917E+01 -0.35168782938E+01 -0.19787725222E+02  0.21436236094E+02  0.00000000000E+00 0.  1.
</event>
<event>
 7    1  0.4520156E-012  0.5052887E+02  0.7816164E-02  0.1300439E+00
        -11   -1    0    0    0    0  0.00000000000E+00  0.00000000000E+00  0.45593999997E+02  0.45594000000E+02  0.51100000000E-03 0. -1.
         11   -1    0    0    0    0 -0.00000000000E+00 -0.00000000000E+00 -0.45593999997E+02  0.45594000000E+02  0.51100000000E-03 0.  1.
    9900012    2    1    2    0    0  0.28865150101E+01 -0.22592755927E+02  0.33680864886E+02  0.50528865125E+02  0.30000016034E+02 0.  0.
        -12    1    1    2    0    0 -0.28865150101E+01  0.22592755927E+02 -0.33680864886E+02  0.40659134875E+02  0.00000000000E+00 0.  1.
         11    1    3    3    0    0  0.12448639298E+02 -0.73656042804E+01  0.25894124068E+02  0.29660182203E+02  0.51100000000E-03 0. -1.
        -11    1    3    3    0    0  0.35561608954E+00 -0.92472934185E+00 -0.96894124896E+00  0.13857974469E+01  0.51100000000E-03 0.  1.
        -12    1    3    3    0    0 -0.99177403770E+01 -0.14302422305E+02  0.87556820668E+01  0.19482885475E+02  0.00000000000E+00 0.  1.
</event>
<event>
 7    1  0.4520156E-012  0.5052887E+02  0.7816164E-02  0.1300439E+00
        -11   -1    0    0    0    0  0.00000000000E+00  0.00000000000E+00  0.45593999997E+02  0.45594000000E+02  0.51100000000E-03 0. -1.
         11   -1    0    0    0    0 -0.00000000000E+00 -0.00000000000E+00 -0.45593999997E+02  0.45594000000E+02  0.51100000000E-03 0.  1.
    9900012    2    1    2    0    0 -0.20072424584E+02  0.32333301080E+02  0.14311551342E+02  0.50528867088E+02  0.30000021999E+02 0.  0.
        -12    1    1    2    0    0  0.20072424584E+02 -0.32333301080E+02 -0.14311551342E+02  0.40659132912E+02  0.00000000000E+00 0.  1.
         11    1    3    3    0    0 -0.11935524602E+02  0.78673937816E+01 -0.50125221798E+01  0.15148531655E+02  0.51100000000E-03 0. -1.
        -11    1    3    3    0    0  0.19460543014E+01  0.10494483923E+01 -0.13201685901E+01  0.25751339071E+01  0.51100000000E-03 0.  1.
        -12    1    3    3    0    0 -0.10082954284E+02  0.23416458906E+02  0.20644242111E+02  0.32805201525E+02  0.00000000000E+00 0.  1.
</event>
<event>
 7    1  0.4520156E-012  0.5052885E+02  0.7816164E-02  0.1300439E+00
        -11   -1    0    0    0    0  0.00000000000E+00  0.00000000000E+00  0.45593999997E+02  0.45594000000E+02  0.51100000000E-03 0. -1.
         11   -1    0    0    0    0 -0.00000000000E+00 -0.00000000000E+00 -0.45593999997E+02  0.45594000000E+02  0.51100000000E-03 0.  1.
    9900012    2    1    2    0    0  0.12500848850E+02  0.94414430631E+01  0.37520048338E+02  0.50528854702E+02  0.29999984352E+02 0.  0.
        -12    1    1    2    0    0 -0.12500848850E+02 -0.94414430631E+01 -0.37520048338E+02  0.40659145298E+02  0.00000000000E+00 0.  1.
         11    1    3    3    0    0  0.78018184098E+01  0.11579030950E+02  0.25798879109E+02  0.29334697745E+02  0.51100000000E-03 0. -1.
        -11    1    3    3    0    0  0.38306714462E+01 -0.74324095898E+01  0.13202777318E+02  0.15627798476E+02  0.51100000000E-03 0.  1.
        -12    1    3    3    0    0  0.86835899401E+00  0.52948217025E+01 -0.14816080891E+01  0.55663584805E+01  0.00000000000E+00 0.  1.
</event>
<event>
 7    1  0.4520156E-012  0.5052886E+02  0.7816164E-02  0.1300439E+00
        -11   -1    0    0    0    0  0.00000000000E+00  0.00000000000E+00  0.45593999997E+02  0.45594000000E+02  0.51100000000E-03 0. -1.
         11   -1    0    0    0    0 -0.00000000000E+00 -0.00000000000E+00 -0.45593999997E+02  0.45594000000E+02  0.51100000000E-03 0.  1.
    9900012    2    1    2    0    0 -0.11469339855E+02 -0.10131281743E+02  0.37669315826E+02  0.50528856117E+02  0.29999988654E+02 0.  0.
        -12    1    1    2    0    0  0.11469339855E+02  0.10131281743E+02 -0.37669315826E+02  0.40659143883E+02  0.00000000000E+00 0.  1.
         11    1    3    3    0    0 -0.55860792735E+00 -0.64747933592E+01 -0.56905879192E+00  0.65237121358E+01  0.51100000000E-03 0. -1.
        -11    1    3    3    0    0 -0.42384056891E+01 -0.29192201650E+01 -0.35963622010E-01  0.51465738896E+01  0.51100000000E-03 0.  1.
         12    1    3    3    0    0 -0.66723262388E+01 -0.73726821833E+00  0.38274338240E+02  0.38858570092E+02  0.00000000000E+00 0. -1.
</event>
<event>
 7    1  0.4520156E-012  0.5052885E+02  0.7816164E-02  0.1300439E+00
        -11   -1    0    0    0    0  0.00000000000E+00  0.00000000000E+00  0.45593999997E+02  0.45594000000E+02  0.51100000000E-03 0. -1.
         11   -1    0    0    0    0 -0.00000000000E+00 -0.00000000000E+00 -0.45593999997E+02  0.45594000000E+02  0.51100000000E-03 0.  1.
    9900012    2    1    2    0    0 -0.24055552971E+02  0.15350422564E+02  0.28963098262E+02  0.50528853888E+02  0.29999981877E+02 0.  0.
        -12    1    1    2    0    0  0.24055552971E+02 -0.15350422564E+02 -0.28963098262E+02  0.40659146112E+02  0.00000000000E+00 0.  1.
         11    1    3    3    0    0 -0.75811620536E+01  0.15924720942E+02  0.21020015758E+02  0.27439238654E+02  0.51100000000E-03 0. -1.
        -11    1    3    3    0    0 -0.15284472661E+01  0.51689540753E+01  0.36595185789E+01  0.65150835580E+01  0.51100000000E-03 0.  1.
         12    1    3    3    0    0 -0.14945943652E+02 -0.57432524534E+01  0.42835639250E+01  0.16574531676E+02  0.00000000000E+00 0. -1.
</event>
<event>
 7    1  0.4520156E-012  0.5052886E+02  0.7816164E-02  0.1300439E+00
        -11   -1    0    0    0    0  0.00000000000E+00  0.00000000000E+00  0.45593999997E+02  0.45594000000E+02  0.51100000000E-03 0. -1.
         11   -1    0    0    0    0 -0.00000000000E+00 -0.00000000000E+00 -0.45593999997E+02  0.45594000000E+02  0.51100000000E-03 0.  1.
    9900012    2    1    2    0    0  0.15736937421E+02 -0.16183356335E+02 -0.33817352609E+02  0.50528861308E+02  0.30000004432E+02 0.  0.
         12    1    1    2    0    0 -0.15736937421E+02  0.16183356335E+02  0.33817352609E+02  0.40659138692E+02  0.00000000000E+00 0. -1.
         11    1    3    3    0    0 -0.14598420099E+01 -0.14187452538E+02 -0.21105328320E+02  0.25472530930E+02  0.51100000000E-03 0.  1.
        -11    1    3    3    0    0  0.55801389141E+00  0.21086229971E+01  0.16189737868E+01  0.27163848826E+01  0.51100000000E-03 0. -1.
        -12    1    3    3    0    0  0.16638765540E+02 -0.41045267936E+01 -0.14330998076E+02  0.22339945495E+02  0.00000000000E+00 0.  1.
</event>
<event>
 7    1  0.4520156E-012  0.5052886E+02  0.7816164E-02  0.1300439E+00
        -11   -1    0    0    0    0  0.00000000000E+00  0.00000000000E+00  0.45593999997E+02  0.45594000000E+02  0.51100000000E-03 0. -1.
         11   -1    0    0    0    0 -0.00000000000E+00 -0.00000000000E+00 -0.45593999997E+02  0.45594000000E+02  0.51100000000E-03 0.  1.
    9900012    2    1    2    0    0 -0.18764496209E+02  0.10138171157E+01 -0.36055951644E+02  0.50528858444E+02  0.29999995727E+02 0.  0.
         12    1    1    2    0    0  0.18764496209E+02 -0.10138171157E+01  0.36055951644E+02  0.40659141556E+02  0.00000000000E+00 0. -1.
         11    1    3    3    0    0 -0.77189750506E+01  0.33264115485E+01 -0.26836676614E+01  0.88232455479E+01  0.51100000000E-03 0. -1.
        -11    1    3    3    0    0 -0.80569639888E+01  0.61699661881E+01 -0.38666603920E+01  0.10859752038E+02  0.51100000000E-03 0.  1.
         12    1    3    3    0    0 -0.29885571699E+01 -0.84825606209E+01 -0.29505623590E+02  0.30845860858E+02  0.00000000000E+00 0. -1.
</event>
<event>
 7    1  0.4520156E-012  0.5052885E+02  0.7816164E-02  0.1300439E+00
        -11   -1    0    0    0    0  0.00000000000E+00  0.00000000000E+00  0.45593999997E+02  0.45594000000E+02  0.51100000000E-03 0.  1.
         11   -1    0    0    0    0 -0.00000000000E+00 -0.00000000000E+00 -0.45593999997E+02  0.45594000000E+02  0.51100000000E-03 0. -1.
    9900012    2    1    2    0    0  0.32595872373E+02  0.19524271014E+02  0.14473379759E+02  0.50528846344E+02  0.29999958948E+02 0.  0.
        -12    1    1    2    0    0 -0.32595872373E+02 -0.19524271014E+02 -0.14473379759E+02  0.40659153656E+02  0.00000000000E+00 0.  1.
         11    1    3    3    0    0  0.11259624393E+02  0.83803684134E+01 -0.53241981854E+01  0.15011888715E+02  0.51100000000E-03 0. -1.
        -11    1    3    3    0    0  0.21056292152E+02  0.12910155669E+02  0.11894063557E+02  0.27413651832E+02  0.51100000000E-03 0.  1.
         12    1    3    3    0    0  0.27995582738E+00 -0.17662530688E+01  0.79035143874E+01  0.81033057971E+01  0.00000000000E+00 0. -1.
</event>
<event>
 7    1  0.4520156E-012  0.5052884E+02  0.7816164E-02  0.1300439E+00
        -11   -1    0    0    0    0  0.00000000000E+00  0.00000000000E+00  0.45593999997E+02  0.45594000000E+02  0.51100000000E-03 0. -1.
         11   -1    0    0    0    0 -0.00000000000E+00 -0.00000000000E+00 -0.45593999997E+02  0.45594000000E+02  0.51100000000E-03 0.  1.
    9900012    2    1    2    0    0  0.30453272452E+02 -0.72058091840E+00 -0.26930403918E+02  0.50528835042E+02  0.29999924595E+02 0.  0.
         12    1    1    2    0    0 -0.30453272452E+02  0.72058091840E+00  0.26930403918E+02  0.40659164958E+02  0.00000000000E+00 0. -1.
         11    1    3    3    0    0  0.54751299632E+01 -0.24928702546E+01  0.14442204450E+00  0.60176663424E+01  0.51100000000E-03 0. -1.
        -11    1    3    3    0    0  0.23837484791E+02 -0.64063168986E+01 -0.12283439415E+02  0.27570808140E+02  0.51100000000E-03 0.  1.
        -12    1    3    3    0    0  0.11406576978E+01  0.81786062348E+01 -0.14791386547E+02  0.16940360560E+02  0.00000000000E+00 0.  1.
</event>
<event>
 7    1  0.4520156E-012  0.5052886E+02  0.7816164E-02  0.1300439E+00
        -11   -1    0    0    0    0  0.00000000000E+00  0.00000000000E+00  0.45593999997E+02  0.45594000000E+02  0.51100000000E-03 0. -1.
         11   -1    0    0    0    0 -0.00000000000E+00 -0.00000000000E+00 -0.45593999997E+02  0.45594000000E+02  0.51100000000E-03 0.  1.
    9900012    2    1    2    0    0 -0.27773663905E+02  0.15460609379E+01  0.29654667798E+02  0.50528855477E+02  0.29999986708E+02 0.  0.
        -12    1    1    2    0    0  0.27773663905E+02 -0.15460609379E+01 -0.29654667798E+02  0.40659144523E+02  0.00000000000E+00 0.  1.
         11    1    3    3    0    0 -0.90843061756E+01 -0.23752682017E+01  0.11758952510E+02  0.15047906237E+02  0.51100000000E-03 0. -1.
        -11    1    3    3    0    0  0.19862508920E+01  0.72955957542E+01  0.11151087543E+02  0.13472849129E+02  0.51100000000E-03 0.  1.
         12    1    3    3    0    0 -0.20675608621E+02 -0.33742666146E+01  0.67446277450E+01  0.22008100110E+02  0.00000000000E+00 0. -1.
</event>
<event>
 7    1  0.4520156E-012  0.5052886E+02  0.7816164E-02  0.1300439E+00
        -11   -1    0    0    0    0  0.00000000000E+00  0.00000000000E+00  0.45593999997E+02  0.45594000000E+02  0.51100000000E-03 0.  1.
         11   -1    0    0    0    0 -0.00000000000E+00 -0.00000000000E+00 -0.45593999997E+02  0.45594000000E+02  0.51100000000E-03 0. -1.
    9900012    2    1    2    0    0 -0.24802865644E+02 -0.22662523013E+02  0.22899648585E+02  0.50528855902E+02  0.29999988001E+02 0.  0.
        -12    1    1    2    0    0  0.24802865644E+02  0.22662523013E+02 -0.22899648585E+02  0.40659144098E+02  0.00000000000E+00 0.  1.
         11    1    3    3    0    0 -0.63728748013E+01 -0.15908848102E+02  0.13380873501E+02  0.21742878307E+02  0.51100000000E-03 0.  1.
        -11    1    3    3    0    0 -0.19459770161E+02 -0.10213357289E+02  0.11353735389E+02  0.24736665688E+02  0.51100000000E-03 0. -1.
        -12    1    3    3    0    0  0.10297793186E+01  0.34596823781E+01 -0.18349603050E+01  0.40493119074E+01  0.00000000000E+00 0.  1.
</event>
<event>
 7    1  0.4520156E-012  0.5052887E+02  0.7816164E-02  0.1300439E+00
        -11   -1    0    0    0    0  0.00000000000E+00  0.00000000000E+00  0.45593999997E+02  0.45594000000E+02  0.51100000000E-03 0. -1.
         11   -1    0    0    0    0 -0.00000000000E+00 -0.00000000000E+00 -0.45593999997E+02  0.45594000000E+02  0.51100000000E-03 0.  1.
    9900012    2    1    2    0    0  0.16805498074E+02  0.76239724955E+01  0.36230031355E+02  0.50528869487E+02  0.30000029292E+02 0.  0.
        -12    1    1    2    0    0 -0.16805498074E+02 -0.76239724955E+01 -0.36230031355E+02  0.40659130513E+02  0.00000000000E+00 0.  1.
         11    1    3    3    0    0 -0.16333343558E+01  0.21272910332E+01  0.54600004318E+01  0.60831532312E+01  0.51100000000E-03 0. -1.
        -11    1    3    3    0    0 -0.13343964277E+01  0.70495850969E+00 -0.39361924540E+01  0.42155891193E+01  0.51100000000E-03 0.  1.
         12    1    3    3    0    0  0.19773228857E+02  0.47917229526E+01  0.34706223377E+02  0.40230127136E+02  0.00000000000E+00 0. -1.
</event>
<event>
 7    1  0.4520156E-012  0.5052886E+02  0.7816164E-02  0.1300439E+00
        -11   -1    0    0    0    0  0.00000000000E+00  0.00000000000E+00  0.45593999997E+02  0.45594000000E+02  0.51100000000E-03 0. -1.
         11   -1    0    0    0    0 -0.00000000000E+00 -0.00000000000E+00 -0.45593999997E+02  0.45594000000E+02  0.51100000000E-03 0.  1.
    9900012    2    1    2    0    0  0.12857680135E+02 -0.26430363143E+02  0.28094162203E+02  0.50528856081E+02  0.29999988544E+02 0.  0.
        -12    1    1    2    0    0 -0.12857680135E+02  0.26430363143E+02 -0.28094162203E+02  0.40659143919E+02  0.00000000000E+00 0.  1.
         11    1    3    3    0    0 -0.65865906619E+01 -0.11365891895E+02  0.17010423703E+02  0.21492351894E+02  0.51100000000E-03 0. -1.
        -11    1    3    3    0    0 -0.14415720660E+00  0.10696413368E+01 -0.43948415653E+00  0.11653585176E+01  0.51100000000E-03 0.  1.
         12    1    3    3    0    0  0.19588428003E+02 -0.16134112585E+02  0.11523222657E+02  0.27871145670E+02  0.00000000000E+00 0. -1.
</event>
<event>
 7    1  0.4520156E-012  0.5052887E+02  0.7816164E-02  0.1300439E+00
        -11   -1    0    0    0    0  0.00000000000E+00  0.00000000000E+00  0.45593999997E+02  0.45594000000E+02  0.51100000000E-03 0. -1.
         11   -1    0    0    0    0 -0.00000000000E+00 -0.00000000000E+00 -0.45593999997E+02  0.45594000000E+02  0.51100000000E-03 0.  1.
    9900012    2    1    2    0    0  0.15294532395E+02  0.84290144709E+01  0.36717754966E+02  0.50528873892E+02  0.30000042681E+02 0.  0.
        -12    1    1    2    0    0 -0.15294532395E+02 -0.84290144709E+01 -0.36717754966E+02  0.40659126108E+02  0.00000000000E+00 0.  1.
         11    1    3    3    0    0 -0.48532290009E+01  0.92159582273E+01  0.86507997516E+01  0.13539721356E+02  0.51100000000E-03 0. -1.
        -11    1    3    3    0    0  0.64400669737E+00  0.21478294708E+01  0.99780843686E+01  0.10226929353E+02  0.51100000000E-03 0.  1.
        -12    1    3    3    0    0  0.19503754698E+02 -0.29347732272E+01  0.18088870846E+02  0.26762223183E+02  0.00000000000E+00 0.  1.
</event>
<event>
 7    1  0.4520156E-012  0.5052886E+02  0.7816164E-02  0.1300439E+00
        -11   -1    0    0    0    0  0.00000000000E+00  0.00000000000E+00  0.45593999997E+02  0.45594000000E+02  0.51100000000E-03 0. -1.
         11   -1    0    0    0    0 -0.00000000000E+00 -0.00000000000E+00 -0.45593999997E+02  0.45594000000E+02  0.51100000000E-03 0.  1.
    9900012    2    1    2    0    0  0.35210943399E+01 -0.24464436583E+02 -0.32284033525E+02  0.50528861011E+02  0.30000003529E+02 0.  0.
         12    1    1    2    0    0 -0.35210943399E+01  0.24464436583E+02  0.32284033525E+02  0.40659138989E+02  0.00000000000E+00 0. -1.
         11    1    3    3    0    0 -0.24863832532E+01  0.19201974013E+01 -0.10652384328E+02  0.11105969200E+02  0.51100000000E-03 0. -1.
        -11    1    3    3    0    0  0.49000813762E+01 -0.78777211295E+01 -0.18395562472E+02  0.20602572815E+02  0.51100000000E-03 0.  1.
         12    1    3    3    0    0  0.11073962170E+01 -0.18506912855E+02 -0.32360867253E+01  0.18820318996E+02  0.00000000000E+00 0. -1.
</event>
<event>
 7    1  0.4520156E-012  0.5052885E+02  0.7816164E-02  0.1300439E+00
        -11   -1    0    0    0    0  0.00000000000E+00  0.00000000000E+00  0.45593999997E+02  0.45594000000E+02  0.51100000000E-03 0. -1.
         11   -1    0    0    0    0 -0.00000000000E+00 -0.00000000000E+00 -0.45593999997E+02  0.45594000000E+02  0.51100000000E-03 0.  1.
    9900012    2    1    2    0    0  0.16066193719E+00  0.38721478937E+02 -0.12401105012E+02  0.50528854056E+02  0.29999982390E+02 0.  0.
         12    1    1    2    0    0 -0.16066193719E+00 -0.38721478937E+02  0.12401105012E+02  0.40659145944E+02  0.00000000000E+00 0. -1.
         11    1    3    3    0    0 -0.72655539308E+01  0.10260667293E+02  0.34103690173E+01  0.13026902330E+02  0.51100000000E-03 0. -1.
        -11    1    3    3    0    0 -0.38581140274E+01  0.11725325599E+02 -0.84220292991E+00  0.12372453689E+02  0.51100000000E-03 0.  1.
        -12    1    3    3    0    0  0.11284329895E+02  0.16735486045E+02 -0.14969271099E+02  0.25129498037E+02  0.00000000000E+00 0.  1.
</event>
<event>
 7    1  0.4520156E-012  0.5052886E+02  0.7816164E-02  0.1300439E+00
        -11   -1    0    0    0    0  0.00000000000E+00  0.00000000000E+00  0.45593999997E+02  0.45594000000E+02  0.51100000000E-03 0. -1.
         11   -1    0    0    0    0 -0.00000000000E+00 -0.00000000000E+00 -0.45593999997E+02  0.45594000000E+02  0.51100000000E-03 0.  1.
    9900012    2    1    2    0    0 -0.23752724368E+01  0.15735288091E+02 -0.37415564886E+02  0.50528859500E+02  0.29999998936E+02 0.  0.
         12    1    1    2    0    0  0.23752724368E+01 -0.15735288091E+02  0.37415564886E+02  0.40659140500E+02  0.00000000000E+00 0. -1.
         11    1    3    3    0    0 -0.11716788654E+02  0.63445391998E+01 -0.15817756851E+02  0.20681821634E+02  0.51100000000E-03 0. -1.
        -11    1    3    3    0    0 -0.14940833184E+01  0.88270211738E+01 -0.13937725202E+02  0.16565288160E+02  0.51100000000E-03 0.  1.
         12    1    3    3    0    0  0.10835599536E+02  0.56372771768E+00 -0.76600828331E+01  0.13281749706E+02  0.00000000000E+00 0. -1.
</event>
<event>
 7    1  0.4520156E-012  0.5052886E+02  0.7816164E-02  0.1300439E+00
        -11   -1    0    0    0    0  0.00000000000E+00  0.00000000000E+00  0.45593999997E+02  0.45594000000E+02  0.51100000000E-03 0. -1.
         11   -1    0    0    0    0 -0.00000000000E+00 -0.00000000000E+00 -0.45593999997E+02  0.45594000000E+02  0.51100000000E-03 0.  1.
    9900012    2    1    2    0    0 -0.75561493077E+01  0.21418992745E+02 -0.33723836260E+02  0.50528858658E+02  0.29999996377E+02 0.  0.
         12    1    1    2    0    0  0.75561493077E+01 -0.21418992745E+02  0.33723836260E+02  0.40659141342E+02  0.00000000000E+00 0. -1.
         11    1    3    3    0    0 -0.13791924694E+02  0.88399181365E+01 -0.11611062654E+02  0.20079295696E+02  0.51100000000E-03 0. -1.
        -11    1    3    3    0    0 -0.34948015806E+01  0.59962900237E+00 -0.10650431098E+02  0.11225189346E+02  0.51100000000E-03 0.  1.
        -12    1    3    3    0    0  0.97305769672E+01  0.11979445606E+02 -0.11462342508E+02  0.19224373615E+02  0.00000000000E+00 0.  1.
</event>
<event>
 7    1  0.4520156E-012  0.5052886E+02  0.7816164E-02  0.1300439E+00
        -11   -1    0    0    0    0  0.00000000000E+00  0.00000000000E+00  0.45593999997E+02  0.45594000000E+02  0.51100000000E-03 0. -1.
         11   -1    0    0    0    0 -0.00000000000E+00 -0.00000000000E+00 -0.45593999997E+02  0.45594000000E+02  0.51100000000E-03 0.  1.
    9900012    2    1    2    0    0 -0.25140096667E+02 -0.27549907813E+02  0.16190853874E+02  0.50528860436E+02  0.30000001781E+02 0.  0.
        -12    1    1    2    0    0  0.25140096667E+02  0.27549907813E+02 -0.16190853874E+02  0.40659139564E+02  0.00000000000E+00 0.  1.
         11    1    3    3    0    0 -0.18223524930E+02 -0.21576019088E+02  0.30405764256E+01  0.28405396772E+02  0.51100000000E-03 0. -1.
        -11    1    3    3    0    0 -0.41774828144E+01 -0.62994086907E+01 -0.10736314868E+01  0.76345659567E+01  0.51100000000E-03 0.  1.
        -12    1    3    3    0    0 -0.27390889222E+01  0.32551996498E+00  0.14223908935E+02  0.14488897707E+02  0.00000000000E+00 0.  1.
</event>
<event>
 7    1  0.4520156E-012  0.5052883E+02  0.7816164E-02  0.1300439E+00
        -11   -1    0    0    0    0  0.00000000000E+00  0.00000000000E+00  0.45593999997E+02  0.45594000000E+02  0.51100000000E-03 0. -1.
         11   -1    0    0    0    0 -0.00000000000E+00 -0.00000000000E+00 -0.45593999997E+02  0.45594000000E+02  0.51100000000E-03 0.  1.
    9900012    2    1    2    0    0 -0.26236177275E+02  0.40165720022E+01 -0.30800941908E+02  0.50528832878E+02  0.29999918015E+02 0.  0.
         12    1    1    2    0    0  0.26236177275E+02 -0.40165720022E+01  0.30800941908E+02  0.40659167122E+02  0.00000000000E+00 0. -1.
         11    1    3    3    0    0 -0.39082093730E+01 -0.23356456368E+01  0.37353779274E+01  0.58891756270E+01  0.51100000000E-03 0. -1.
        -11    1    3    3    0    0 -0.41552992445E+01 -0.49315240277E+01 -0.49451262299E+01  0.81265438372E+01  0.51100000000E-03 0.  1.
        -12    1    3    3    0    0 -0.18172668657E+02  0.11283741667E+02 -0.29591193606E+02  0.36513113414E+02  0.00000000000E+00 0.  1.
</event>
<event>
 7    1  0.4520156E-012  0.5052885E+02  0.7816164E-02  0.1300439E+00
        -11   -1    0    0    0    0  0.00000000000E+00  0.00000000000E+00  0.45593999997E+02  0.45594000000E+02  0.51100000000E-03 0. -1.
         11   -1    0    0    0    0 -0.00000000000E+00 -0.00000000000E+00 -0.45593999997E+02  0.45594000000E+02  0.51100000000E-03 0.  1.
    9900012    2    1    2    0    0 -0.18701363750E+02 -0.21376620219E+02 -0.29094076006E+02  0.50528853959E+02  0.29999982095E+02 0.  0.
         12    1    1    2    0    0  0.18701363750E+02  0.21376620219E+02  0.29094076006E+02  0.40659146041E+02  0.00000000000E+00 0. -1.
         11    1    3    3    0    0 -0.14451940057E+02 -0.38195498966E+01 -0.10492692355E+02  0.18263190464E+02  0.51100000000E-03 0. -1.
        -11    1    3    3    0    0 -0.10743344651E+02 -0.47519190516E+01 -0.61441760591E+01  0.13257114643E+02  0.51100000000E-03 0.  1.
         12    1    3    3    0    0  0.64939209573E+01 -0.12805151270E+02 -0.12457207592E+02  0.19008548852E+02  0.00000000000E+00 0. -1.
</event>
<event>
 7    1  0.4520156E-012  0.5052891E+02  0.7816164E-02  0.1300439E+00
        -11   -1    0    0    0    0  0.00000000000E+00  0.00000000000E+00  0.45593999997E+02  0.45594000000E+02  0.51100000000E-03 0. -1.
         11   -1    0    0    0    0 -0.00000000000E+00 -0.00000000000E+00 -0.45593999997E+02  0.45594000000E+02  0.51100000000E-03 0.  1.
    9900012    2    1    2    0    0 -0.21586153867E+02 -0.18264865693E+02  0.29216335830E+02  0.50528909541E+02  0.30000151041E+02 0.  0.
        -12    1    1    2    0    0  0.21586153867E+02  0.18264865693E+02 -0.29216335830E+02  0.40659090459E+02  0.00000000000E+00 0.  1.
         11    1    3    3    0    0 -0.92828987021E+01 -0.10752256951E+02  0.10345757880E+02  0.17573216673E+02  0.51100000000E-03 0. -1.
        -11    1    3    3    0    0 -0.15052921821E+02 -0.13617990167E+02  0.13589688450E+02  0.24427847714E+02  0.51100000000E-03 0.  1.
        -12    1    3    3    0    0  0.27496666555E+01  0.61053814249E+01  0.52808895002E+01  0.85278451541E+01  0.00000000000E+00 0.  1.
</event>
<event>
 7    1  0.4520156E-012  0.5052886E+02  0.7816164E-02  0.1300439E+00
        -11   -1    0    0    0    0  0.00000000000E+00  0.00000000000E+00  0.45593999997E+02  0.45594000000E+02  0.51100000000E-03 0.  1.
         11   -1    0    0    0    0 -0.00000000000E+00 -0.00000000000E+00 -0.45593999997E+02  0.45594000000E+02  0.51100000000E-03 0. -1.
    9900012    2    1    2    0    0 -0.27415593779E+01  0.14362285192E+02  0.37939087363E+02  0.50528859161E+02  0.29999997907E+02 0.  0.
        -12    1    1    2    0    0  0.27415593779E+01 -0.14362285192E+02 -0.37939087363E+02  0.40659140839E+02  0.00000000000E+00 0.  1.
         11    1    3    3    0    0 -0.45160011645E+01  0.25051247150E+01  0.66315806274E+00  0.52066971520E+01  0.51100000000E-03 0. -1.
        -11    1    3    3    0    0 -0.76236953612E+00 -0.43955693180E+01 -0.12577316545E+00  0.44629649437E+01  0.51100000000E-03 0.  1.
        -12    1    3    3    0    0  0.25368113227E+01  0.16252729795E+02  0.37401702466E+02  0.40859197066E+02  0.00000000000E+00 0.  1.
</event>
<event>
 7    1  0.4520156E-012  0.5052888E+02  0.7816164E-02  0.1300439E+00
        -11   -1    0    0    0    0  0.00000000000E+00  0.00000000000E+00  0.45593999997E+02  0.45594000000E+02  0.51100000000E-03 0. -1.
         11   -1    0    0    0    0 -0.00000000000E+00 -0.00000000000E+00 -0.45593999997E+02  0.45594000000E+02  0.51100000000E-03 0.  1.
    9900012    2    1    2    0    0 -0.28023192809E+01 -0.29880175331E+02  0.27431483368E+02  0.50528878626E+02  0.30000057071E+02 0.  0.
        -12    1    1    2    0    0  0.28023192809E+01  0.29880175331E+02 -0.27431483368E+02  0.40659121374E+02  0.00000000000E+00 0.  1.
         11    1    3    3    0    0  0.70468264171E+01  0.36238871871E+00  0.98853044332E+00  0.71250460233E+01  0.51100000000E-03 0. -1.
        -11    1    3    3    0    0  0.28876554417E+00 -0.71691664669E+01  0.43494043173E+00  0.71881504443E+01  0.51100000000E-03 0.  1.
         12    1    3    3    0    0 -0.10137911242E+02 -0.23073397582E+02  0.26008012493E+02  0.36215682158E+02  0.00000000000E+00 0. -1.
</event>
<event>
 7    1  0.4520156E-012  0.5052885E+02  0.7816164E-02  0.1300439E+00
        -11   -1    0    0    0    0  0.00000000000E+00  0.00000000000E+00  0.45593999997E+02  0.45594000000E+02  0.51100000000E-03 0. -1.
         11   -1    0    0    0    0 -0.00000000000E+00 -0.00000000000E+00 -0.45593999997E+02  0.45594000000E+02  0.51100000000E-03 0.  1.
    9900012    2    1    2    0    0 -0.36333723039E+02 -0.37059174589E+01  0.17868780873E+02  0.50528848706E+02  0.29999966127E+02 0.  0.
        -12    1    1    2    0    0  0.36333723039E+02  0.37059174589E+01 -0.17868780873E+02  0.40659151294E+02  0.00000000000E+00 0.  1.
         11    1    3    3    0    0 -0.30149653719E+02  0.39554328331E+01  0.99751811270E+01  0.32002364085E+02  0.51100000000E-03 0. -1.
        -11    1    3    3    0    0 -0.73850971600E+01 -0.47870896878E+01 -0.12293581635E+01  0.88863496160E+01  0.51100000000E-03 0.  1.
         12    1    3    3    0    0  0.12010278404E+01 -0.28742606042E+01  0.91229579095E+01  0.96401350049E+01  0.00000000000E+00 0. -1.
</event>
<event>
 7    1  0.4520156E-012  0.5052886E+02  0.7816164E-02  0.1300439E+00
        -11   -1    0    0    0    0  0.00000000000E+00  0.00000000000E+00  0.45593999997E+02  0.45594000000E+02  0.51100000000E-03 0. -1.
         11   -1    0    0    0    0 -0.00000000000E+00 -0.00000000000E+00 -0.45593999997E+02  0.45594000000E+02  0.51100000000E-03 0.  1.
    9900012    2    1    2    0    0 -0.83816531570E+01  0.19450701737E+02 -0.34707110651E+02  0.50528862805E+02  0.30000008982E+02 0.  0.
         12    1    1    2    0    0  0.83816531570E+01 -0.19450701737E+02  0.34707110651E+02  0.40659137195E+02  0.00000000000E+00 0. -1.
         11    1    3    3    0    0  0.51838298060E+01 -0.26255967334E+01 -0.15313258459E+02  0.16378697584E+02  0.51100000000E-03 0.  1.
        -11    1    3    3    0    0  0.26211643314E+00  0.92313827801E+01 -0.64869646660E+01  0.11285736303E+02  0.51100000000E-03 0. -1.
        -12    1    3    3    0    0 -0.13827599396E+02  0.12844915691E+02 -0.12906887526E+02  0.22864428918E+02  0.00000000000E+00 0.  1.
</event>
<event>
 7    1  0.4520156E-012  0.5052886E+02  0.7816164E-02  0.1300439E+00
        -11   -1    0    0    0    0  0.00000000000E+00  0.00000000000E+00  0.45593999997E+02  0.45594000000E+02  0.51100000000E-03 0. -1.
         11   -1    0    0    0    0 -0.00000000000E+00 -0.00000000000E+00 -0.45593999997E+02  0.45594000000E+02  0.51100000000E-03 0.  1.
    9900012    2    1    2    0    0  0.23312433522E+01  0.42576446722E+01  0.40368347478E+02  0.50528859431E+02  0.29999998725E+02 0.  0.
        -12    1    1    2    0    0 -0.23312433522E+01 -0.42576446722E+01 -0.40368347478E+02  0.40659140569E+02  0.00000000000E+00 0.  1.
         11    1    3    3    0    0 -0.18797950478E+01  0.89699183721E-01  0.36230078789E+01  0.40826292652E+01  0.51100000000E-03 0. -1.
        -11    1    3    3    0    0 -0.10461054052E+02  0.80446107807E+01  0.15926103882E+02  0.20683089702E+02  0.51100000000E-03 0.  1.
        -12    1    3    3    0    0  0.14672092452E+02 -0.38766652922E+01  0.20819235717E+02  0.25763140464E+02  0.00000000000E+00 0.  1.
</event>
<event>
 7    1  0.4520156E-012  0.5052887E+02  0.7816164E-02  0.1300439E+00
        -11   -1    0    0    0    0  0.00000000000E+00  0.00000000000E+00  0.45593999997E+02  0.45594000000E+02  0.51100000000E-03 0. -1.
         11   -1    0    0    0    0 -0.00000000000E+00 -0.00000000000E+00 -0.45593999997E+02  0.45594000000E+02  0.51100000000E-03 0.  1.
    9900012    2    1    2    0    0  0.11217634328E+02 -0.45959987664E+00 -0.39078365251E+02  0.50528865938E+02  0.30000018505E+02 0.  0.
         12    1    1    2    0    0 -0.11217634328E+02  0.45959987664E+00  0.39078365251E+02  0.40659134062E+02  0.00000000000E+00 0. -1.
         11    1    3    3    0    0  0.81587452657E+00 -0.47844086577E+01 -0.89993480455E+01  0.10224699651E+02  0.51100000000E-03 0. -1.
        -11    1    3    3    0    0  0.84098976329E+01  0.11658284373E+02 -0.29336093777E+02  0.32668767517E+02  0.51100000000E-03 0.  1.
         12    1    3    3    0    0  0.19918621682E+01 -0.73334755922E+01 -0.74292342882E+00  0.76353987702E+01  0.00000000000E+00 0. -1.
</event>
<event>
 7    1  0.4520156E-012  0.5052886E+02  0.7816164E-02  0.1300439E+00
        -11   -1    0    0    0    0  0.00000000000E+00  0.00000000000E+00  0.45593999997E+02  0.45594000000E+02  0.51100000000E-03 0. -1.
         11   -1    0    0    0    0 -0.00000000000E+00 -0.00000000000E+00 -0.45593999997E+02  0.45594000000E+02  0.51100000000E-03 0.  1.
    9900012    2    1    2    0    0  0.29364623208E+02 -0.11203115432E+02  0.25794856705E+02  0.50528861741E+02  0.30000005748E+02 0.  0.
        -12    1    1    2    0    0 -0.29364623208E+02  0.11203115432E+02 -0.25794856705E+02  0.40659138259E+02  0.00000000000E+00 0.  1.
         11    1    3    3    0    0  0.92470706729E+01  0.28246676424E+01  0.50527954448E+01  0.10909528193E+02  0.51100000000E-03 0. -1.
        -11    1    3    3    0    0  0.20585985479E+02 -0.71316187354E+01  0.48935644653E+01  0.22329123524E+02  0.51100000000E-03 0.  1.
        -12    1    3    3    0    0 -0.46843294389E+00 -0.68961643390E+01  0.15848496795E+02  0.17290210024E+02  0.00000000000E+00 0.  1.
</event>
<event>
 7    1  0.4520156E-012  0.5052896E+02  0.7816164E-02  0.1300438E+00
        -11   -1    0    0    0    0  0.00000000000E+00  0.00000000000E+00  0.45593999997E+02  0.45594000000E+02  0.51100000000E-03 0. -1.
         11   -1    0    0    0    0 -0.00000000000E+00 -0.00000000000E+00 -0.45593999997E+02  0.45594000000E+02  0.51100000000E-03 0.  1.
    9900012    2    1    2    0    0 -0.23594982548E+02  0.24376462493E+02 -0.22410326214E+02  0.50528956158E+02  0.30000292737E+02 0.  0.
         12    1    1    2    0    0  0.23594982548E+02 -0.24376462493E+02  0.22410326214E+02  0.40659043842E+02  0.00000000000E+00 0. -1.
         11    1    3    3    0    0 -0.90911638062E+01  0.15556134108E+02 -0.27394263732E+01  0.18224901230E+02  0.51100000000E-03 0. -1.
        -11    1    3    3    0    0 -0.12168695097E+02  0.74421524039E+01 -0.23572823755E+02  0.27552509737E+02  0.51100000000E-03 0.  1.
         12    1    3    3    0    0 -0.23351236445E+01  0.13781759814E+01  0.39019239140E+01  0.47515451909E+01  0.00000000000E+00 0. -1.
</event>
<event>
 7    1  0.4520156E-012  0.5052885E+02  0.7816164E-02  0.1300439E+00
        -11   -1    0    0    0    0  0.00000000000E+00  0.00000000000E+00  0.45593999997E+02  0.45594000000E+02  0.51100000000E-03 0. -1.
         11   -1    0    0    0    0 -0.00000000000E+00 -0.00000000000E+00 -0.45593999997E+02  0.45594000000E+02  0.51100000000E-03 0.  1.
    9900012    2    1    2    0    0  0.20998280174E+02  0.22841724434E+02 -0.26277264622E+02  0.50528846278E+02  0.29999958745E+02 0.  0.
         12    1    1    2    0    0 -0.20998280174E+02 -0.22841724434E+02  0.26277264622E+02  0.40659153722E+02  0.00000000000E+00 0. -1.
         11    1    3    3    0    0  0.15214877054E+02  0.13746143656E+02 -0.76987730834E+01  0.21902512559E+02  0.51100000000E-03 0. -1.
        -11    1    3    3    0    0  0.80264413344E+01  0.66173518167E+01 -0.68692596919E+00  0.10425208540E+02  0.51100000000E-03 0.  1.
         12    1    3    3    0    0 -0.22430382139E+01  0.24782289619E+01 -0.17891565569E+02  0.18201125178E+02  0.00000000000E+00 0. -1.
</event>
<event>
 7    1  0.4520156E-012  0.5052878E+02  0.7816164E-02  0.1300439E+00
        -11   -1    0    0    0    0  0.00000000000E+00  0.00000000000E+00  0.45593999997E+02  0.45594000000E+02  0.51100000000E-03 0. -1.
         11   -1    0    0    0    0 -0.00000000000E+00 -0.00000000000E+00 -0.45593999997E+02  0.45594000000E+02  0.51100000000E-03 0.  1.
    9900012    2    1    2    0    0 -0.59123959087E+01 -0.34492343184E+02  0.20700102967E+02  0.50528776858E+02  0.29999747735E+02 0.  0.
        -12    1    1    2    0    0  0.59123959087E+01  0.34492343184E+02 -0.20700102967E+02  0.40659223142E+02  0.00000000000E+00 0.  1.
         11    1    3    3    0    0 -0.11663036316E+02 -0.16282383539E+02  0.76417607173E+01  0.21436859307E+02  0.51100000000E-03 0. -1.
        -11    1    3    3    0    0  0.39915273610E+01 -0.46021265827E+01 -0.39337331191E+01  0.72516285254E+01  0.51100000000E-03 0.  1.
         12    1    3    3    0    0  0.17591130464E+01 -0.13607833062E+02  0.16992075369E+02  0.21840289025E+02  0.00000000000E+00 0. -1.
</event>
<event>
 7    1  0.4520156E-012  0.5052885E+02  0.7816164E-02  0.1300439E+00
        -11   -1    0    0    0    0  0.00000000000E+00  0.00000000000E+00  0.45593999997E+02  0.45594000000E+02  0.51100000000E-03 0. -1.
         11   -1    0    0    0    0 -0.00000000000E+00 -0.00000000000E+00 -0.45593999997E+02  0.45594000000E+02  0.51100000000E-03 0.  1.
    9900012    2    1    2    0    0  0.91354342276E+01  0.26685439217E+02  0.29284761902E+02  0.50528854604E+02  0.29999984054E+02 0.  0.
        -12    1    1    2    0    0 -0.91354342276E+01 -0.26685439217E+02 -0.29284761902E+02  0.40659145396E+02  0.00000000000E+00 0.  1.
         11    1    3    3    0    0  0.71688611297E+01  0.21215696636E+02  0.13660979568E+02  0.26232055136E+02  0.51100000000E-03 0. -1.
        -11    1    3    3    0    0  0.84613141972E+01  0.73502799759E+01  0.65527886605E+01  0.12983046374E+02  0.51100000000E-03 0.  1.
         12    1    3    3    0    0 -0.64947410993E+01 -0.18805373949E+01  0.90709936735E+01  0.11313753094E+02  0.00000000000E+00 0. -1.
</event>
<event>
 7    1  0.4520156E-012  0.5052887E+02  0.7816164E-02  0.1300439E+00
        -11   -1    0    0    0    0  0.00000000000E+00  0.00000000000E+00  0.45593999997E+02  0.45594000000E+02  0.51100000000E-03 0. -1.
         11   -1    0    0    0    0 -0.00000000000E+00 -0.00000000000E+00 -0.45593999997E+02  0.45594000000E+02  0.51100000000E-03 0.  1.
    9900012    2    1    2    0    0 -0.15482529552E+02 -0.44547956333E+01 -0.37331100881E+02  0.50528867958E+02  0.30000024645E+02 0.  0.
         12    1    1    2    0    0  0.15482529552E+02  0.44547956333E+01  0.37331100881E+02  0.40659132042E+02  0.00000000000E+00 0. -1.
         11    1    3    3    0    0 -0.23692217480E+01  0.49563950118E+01 -0.68363169690E+00  0.55359204982E+01  0.51100000000E-03 0. -1.
        -11    1    3    3    0    0 -0.99509939784E+01  0.37604376334E+01 -0.80196785618E+01  0.13322102569E+02  0.51100000000E-03 0.  1.
        -12    1    3    3    0    0 -0.31623138252E+01 -0.13171628278E+02 -0.28627790622E+02  0.31670844891E+02  0.00000000000E+00 0.  1.
</event>
<event>
 7    1  0.4520156E-012  0.5052886E+02  0.7816164E-02  0.1300439E+00
        -11   -1    0    0    0    0  0.00000000000E+00  0.00000000000E+00  0.45593999997E+02  0.45594000000E+02  0.51100000000E-03 0. -1.
         11   -1    0    0    0    0 -0.00000000000E+00 -0.00000000000E+00 -0.45593999997E+02  0.45594000000E+02  0.51100000000E-03 0.  1.
    9900012    2    1    2    0    0 -0.38039464432E+02  0.40173819239E+01  0.13784965451E+02  0.50528862229E+02  0.30000007230E+02 0.  0.
        -12    1    1    2    0    0  0.38039464432E+02 -0.40173819239E+01 -0.13784965451E+02  0.40659137771E+02  0.00000000000E+00 0.  1.
         11    1    3    3    0    0 -0.19335952055E+02  0.90496592241E+01  0.44376008668E+00  0.21353507843E+02  0.51100000000E-03 0. -1.
        -11    1    3    3    0    0 -0.50315127192E+01  0.10285623374E+01 -0.38286044083E+01  0.64056438164E+01  0.51100000000E-03 0.  1.
        -12    1    3    3    0    0 -0.13671999658E+02 -0.60608396376E+01  0.17169809773E+02  0.22769710569E+02  0.00000000000E+00 0.  1.
</event>
<event>
 7    1  0.4520156E-012  0.5052886E+02  0.7816164E-02  0.1300439E+00
        -11   -1    0    0    0    0  0.00000000000E+00  0.00000000000E+00  0.45593999997E+02  0.45594000000E+02  0.51100000000E-03 0. -1.
         11   -1    0    0    0    0 -0.00000000000E+00 -0.00000000000E+00 -0.45593999997E+02  0.45594000000E+02  0.51100000000E-03 0.  1.
    9900012    2    1    2    0    0 -0.31109683447E+01 -0.13801492161E+02  0.38118316159E+02  0.50528864043E+02  0.30000012746E+02 0.  0.
        -12    1    1    2    0    0  0.31109683447E+01  0.13801492161E+02 -0.38118316159E+02  0.40659135957E+02  0.00000000000E+00 0.  1.
         11    1    3    3    0    0  0.55983110780E+00 -0.17704684792E+02  0.14742695816E+02  0.23045961786E+02  0.51100000000E-03 0. -1.
        -11    1    3    3    0    0  0.91341118639E+00 -0.17552268256E+01 -0.87422354203E+00  0.21631939967E+01  0.51100000000E-03 0.  1.
        -12    1    3    3    0    0 -0.45842106388E+01  0.56584194567E+01  0.24249843885E+02  0.25319708260E+02  0.00000000000E+00 0.  1.
</event>
<event>
 7    1  0.4520156E-012  0.5052887E+02  0.7816164E-02  0.1300439E+00
        -11   -1    0    0    0    0  0.00000000000E+00  0.00000000000E+00  0.45593999997E+02  0.45594000000E+02  0.51100000000E-03 0. -1.
         11   -1    0    0    0    0 -0.00000000000E+00 -0.00000000000E+00 -0.45593999997E+02  0.45594000000E+02  0.51100000000E-03 0.  1.
    9900012    2    1    2    0    0  0.18740036049E+02  0.35955933951E+02 -0.30243310991E+01  0.50528871677E+02  0.30000035948E+02 0.  0.
        -12    1    1    2    0    0 -0.18740036049E+02 -0.35955933951E+02  0.30243310991E+01  0.40659128323E+02  0.00000000000E+00 0.  1.
         11    1    3    3    0    0  0.33493947969E+01  0.12870908622E+02 -0.51035122972E+01  0.14245159610E+02  0.51100000000E-03 0. -1.
        -11    1    3    3    0    0  0.13527095993E+02  0.13384864367E+02 -0.93290011715E+01  0.21193564665E+02  0.51100000000E-03 0.  1.
         12    1    3    3    0    0  0.18635452593E+01  0.97001609623E+01  0.11408182370E+02  0.15090147402E+02  0.00000000000E+00 0. -1.
</event>
<event>
 7    1  0.4520156E-012  0.5052885E+02  0.7816164E-02  0.1300439E+00
        -11   -1    0    0    0    0  0.00000000000E+00  0.00000000000E+00  0.45593999997E+02  0.45594000000E+02  0.51100000000E-03 0. -1.
         11   -1    0    0    0    0 -0.00000000000E+00 -0.00000000000E+00 -0.45593999997E+02  0.45594000000E+02  0.51100000000E-03 0.  1.
    9900012    2    1    2    0    0  0.31929488640E+02 -0.17488481025E+02  0.18105991855E+02  0.50528853988E+02  0.29999982182E+02 0.  0.
        -12    1    1    2    0    0 -0.31929488640E+02  0.17488481025E+02 -0.18105991855E+02  0.40659146012E+02  0.00000000000E+00 0.  1.
         11    1    3    3    0    0  0.11720669363E+02  0.13333333545E+01 -0.16444950388E+00  0.11797411244E+02  0.51100000000E-03 0. -1.
        -11    1    3    3    0    0  0.16571090972E+02 -0.17202313249E+01  0.85221739567E+01  0.18713302782E+02  0.51100000000E-03 0.  1.
        -12    1    3    3    0    0  0.36377283053E+01 -0.17101583055E+02  0.97482674024E+01  0.20018139962E+02  0.00000000000E+00 0.  1.
</event>
<event>
 7    1  0.4520156E-012  0.5052886E+02  0.7816164E-02  0.1300439E+00
        -11   -1    0    0    0    0  0.00000000000E+00  0.00000000000E+00  0.45593999997E+02  0.45594000000E+02  0.51100000000E-03 0. -1.
         11   -1    0    0    0    0 -0.00000000000E+00 -0.00000000000E+00 -0.45593999997E+02  0.45594000000E+02  0.51100000000E-03 0.  1.
    9900012    2    1    2    0    0 -0.25558397885E+02  0.20210321593E+02  0.24320301399E+02  0.50528857591E+02  0.29999993133E+02 0.  0.
        -12    1    1    2    0    0  0.25558397885E+02 -0.20210321593E+02 -0.24320301399E+02  0.40659142409E+02  0.00000000000E+00 0.  1.
         11    1    3    3    0    0 -0.85021717393E+01 -0.10718402503E+01  0.69623269718E+01  0.11041275421E+02  0.51100000000E-03 0. -1.
        -11    1    3    3    0    0 -0.20050454990E+02  0.24104157065E+02  0.15323230010E+02  0.34897457090E+02  0.51100000000E-03 0.  1.
         12    1    3    3    0    0  0.29942288451E+01 -0.28219952214E+01  0.20347444167E+01  0.45901250798E+01  0.00000000000E+00 0. -1.
</event>
<event>
 7    1  0.4520156E-012  0.5052894E+02  0.7816164E-02  0.1300439E+00
        -11   -1    0    0    0    0  0.00000000000E+00  0.00000000000E+00  0.45593999997E+02  0.45594000000E+02  0.51100000000E-03 0. -1.
         11   -1    0    0    0    0 -0.00000000000E+00 -0.00000000000E+00 -0.45593999997E+02  0.45594000000E+02  0.51100000000E-03 0.  1.
    9900012    2    1    2    0    0  0.14710439497E+02 -0.75743963947E+01 -0.37140148228E+02  0.50528940477E+02  0.30000245072E+02 0.  0.
         12    1    1    2    0    0 -0.14710439497E+02  0.75743963947E+01  0.37140148228E+02  0.40659059523E+02  0.00000000000E+00 0. -1.
         11    1    3    3    0    0  0.23944408542E+01  0.25729050418E+01 -0.14142346856E+01  0.37885679835E+01  0.51100000000E-03 0. -1.
        -11    1    3    3    0    0  0.99273238843E+01  0.35487432789E+01 -0.29831624465E+02  0.31639708545E+02  0.51100000000E-03 0.  1.
         12    1    3    3    0    0  0.23886747587E+01 -0.13696044715E+02 -0.58942890774E+01  0.15100663948E+02  0.00000000000E+00 0. -1.
</event>
<event>
 7    1  0.4520156E-012  0.5052884E+02  0.7816164E-02  0.1300439E+00
        -11   -1    0    0    0    0  0.00000000000E+00  0.00000000000E+00  0.45593999997E+02  0.45594000000E+02  0.51100000000E-03 0. -1.
         11   -1    0    0    0    0 -0.00000000000E+00 -0.00000000000E+00 -0.45593999997E+02  0.45594000000E+02  0.51100000000E-03 0.  1.
    9900012    2    1    2    0    0 -0.29762880807E+01  0.30993509443E+02  0.26147877784E+02  0.50528838290E+02  0.29999934467E+02 0.  0.
        -12    1    1    2    0    0  0.29762880807E+01 -0.30993509443E+02 -0.26147877784E+02  0.40659161710E+02  0.00000000000E+00 0.  1.
         11    1    3    3    0    0 -0.75811223976E+00  0.13431831341E+02  0.18442240218E+02  0.22827725508E+02  0.51100000000E-03 0. -1.
        -11    1    3    3    0    0 -0.10115615141E+00  0.20336866526E+02  0.10808476560E+02  0.23030882277E+02  0.51100000000E-03 0.  1.
        -12    1    3    3    0    0 -0.21170196895E+01 -0.27751884230E+01 -0.31028389947E+01  0.46702305056E+01  0.00000000000E+00 0.  1.
</event>
<event>
 7    1  0.4520156E-012  0.5052886E+02  0.7816164E-02  0.1300439E+00
        -11   -1    0    0    0    0  0.00000000000E+00  0.00000000000E+00  0.45593999997E+02  0.45594000000E+02  0.51100000000E-03 0. -1.
         11   -1    0    0    0    0 -0.00000000000E+00 -0.00000000000E+00 -0.45593999997E+02  0.45594000000E+02  0.51100000000E-03 0.  1.
    9900012    2    1    2    0    0  0.12859399275E+02 -0.48730969347E+01  0.38262962650E+02  0.50528861615E+02  0.30000005366E+02 0.  0.
        -12    1    1    2    0    0 -0.12859399275E+02  0.48730969347E+01 -0.38262962650E+02  0.40659138385E+02  0.00000000000E+00 0.  1.
         11    1    3    3    0    0  0.13511834091E+02 -0.12953839604E+02  0.30567612120E+02  0.35843416857E+02  0.51100000000E-03 0. -1.
        -11    1    3    3    0    0 -0.64650450756E-01 -0.19979282203E+01  0.12877614297E-01  0.19990154948E+01  0.51100000000E-03 0.  1.
         12    1    3    3    0    0 -0.58778436544E+00  0.10078670890E+02  0.76824729152E+01  0.12686429264E+02  0.00000000000E+00 0. -1.
</event>
<event>
 7    1  0.4520156E-012  0.5052886E+02  0.7816164E-02  0.1300439E+00
        -11   -1    0    0    0    0  0.00000000000E+00  0.00000000000E+00  0.45593999997E+02  0.45594000000E+02  0.51100000000E-03 0. -1.
         11   -1    0    0    0    0 -0.00000000000E+00 -0.00000000000E+00 -0.45593999997E+02  0.45594000000E+02  0.51100000000E-03 0.  1.
    9900012    2    1    2    0    0 -0.19101723221E+01 -0.32707414637E+02  0.24077834107E+02  0.50528858029E+02  0.29999994466E+02 0.  0.
        -12    1    1    2    0    0  0.19101723221E+01  0.32707414637E+02 -0.24077834107E+02  0.40659141971E+02  0.00000000000E+00 0.  1.
         11    1    3    3    0    0 -0.18669939483E+01 -0.88072036076E+00  0.16893910130E+01  0.26674664033E+01  0.51100000000E-03 0. -1.
        -11    1    3    3    0    0 -0.76713759049E+00 -0.35650805614E+02  0.24659662658E+02  0.43355131227E+02  0.51100000000E-03 0.  1.
        -12    1    3    3    0    0  0.72395921672E+00  0.38241113380E+01 -0.22712195648E+01  0.45062603991E+01  0.00000000000E+00 0.  1.
</event>
<event>
 7    1  0.4520156E-012  0.5052885E+02  0.7816164E-02  0.1300439E+00
        -11   -1    0    0    0    0  0.00000000000E+00  0.00000000000E+00  0.45593999997E+02  0.45594000000E+02  0.51100000000E-03 0. -1.
         11   -1    0    0    0    0 -0.00000000000E+00 -0.00000000000E+00 -0.45593999997E+02  0.45594000000E+02  0.51100000000E-03 0.  1.
    9900012    2    1    2    0    0  0.20629363829E+02 -0.27203278268E+02  0.22081163389E+02  0.50528846331E+02  0.29999958907E+02 0.  0.
        -12    1    1    2    0    0 -0.20629363829E+02  0.27203278268E+02 -0.22081163389E+02  0.40659153669E+02  0.00000000000E+00 0.  1.
         11    1    3    3    0    0 -0.90795946076E+00  0.25375755437E+00  0.25925979328E+01  0.27586858432E+01  0.51100000000E-03 0. -1.
        -11    1    3    3    0    0 -0.64438713999E+00  0.44912634563E+01  0.75392393432E+00  0.45994655972E+01  0.51100000000E-03 0.  1.
         12    1    3    3    0    0  0.22181710430E+02 -0.31948299278E+02  0.18734641522E+02  0.43170694890E+02  0.00000000000E+00 0. -1.
</event>
<event>
 7    1  0.4520156E-012  0.5052887E+02  0.7816164E-02  0.1300439E+00
        -11   -1    0    0    0    0  0.00000000000E+00  0.00000000000E+00  0.45593999997E+02  0.45594000000E+02  0.51100000000E-03 0. -1.
         11   -1    0    0    0    0 -0.00000000000E+00 -0.00000000000E+00 -0.45593999997E+02  0.45594000000E+02  0.51100000000E-03 0.  1.
    9900012    2    1    2    0    0  0.70046122243E+01  0.37248622565E+02  0.14718711109E+02  0.50528869019E+02  0.30000027870E+02 0.  0.
        -12    1    1    2    0    0 -0.70046122243E+01 -0.37248622565E+02 -0.14718711109E+02  0.40659130981E+02  0.00000000000E+00 0.  1.
         11    1    3    3    0    0 -0.34772032297E+01  0.92154602452E+01  0.44661132699E+01  0.10814888711E+02  0.51100000000E-03 0. -1.
        -11    1    3    3    0    0 -0.40369357505E+01 -0.23632730858E+01  0.10614553326E+01  0.47967278030E+01  0.51100000000E-03 0.  1.
        -12    1    3    3    0    0  0.14518751205E+02  0.30396435406E+02  0.91911425063E+01  0.34917252505E+02  0.00000000000E+00 0.  1.
</event>
<event>
 7    1  0.4520156E-012  0.5052885E+02  0.7816164E-02  0.1300439E+00
        -11   -1    0    0    0    0  0.00000000000E+00  0.00000000000E+00  0.45593999997E+02  0.45594000000E+02  0.51100000000E-03 0.  1.
         11   -1    0    0    0    0 -0.00000000000E+00 -0.00000000000E+00 -0.45593999997E+02  0.45594000000E+02  0.51100000000E-03 0. -1.
    9900012    2    1    2    0    0 -0.37171519386E+02  0.18709713163E+01 -0.16369009240E+02  0.50528845427E+02  0.29999956160E+02 0.  0.
         12    1    1    2    0    0  0.37171519386E+02 -0.18709713163E+01  0.16369009240E+02  0.40659154573E+02  0.00000000000E+00 0. -1.
         11    1    3    3    0    0 -0.69197201909E+01  0.59881345167E+01 -0.29423659680E+01  0.96123774510E+01  0.51100000000E-03 0. -1.
        -11    1    3    3    0    0 -0.30220538106E+02  0.32805844593E+01 -0.14058816142E+02  0.33491692543E+02  0.51100000000E-03 0.  1.
         12    1    3    3    0    0 -0.31261088744E-01 -0.73977476597E+01  0.63217287015E+00  0.74247754329E+01  0.00000000000E+00 0. -1.
</event>
<event>
 7    1  0.4520156E-012  0.5052893E+02  0.7816164E-02  0.1300439E+00
        -11   -1    0    0    0    0  0.00000000000E+00  0.00000000000E+00  0.45593999997E+02  0.45594000000E+02  0.51100000000E-03 0. -1.
         11   -1    0    0    0    0 -0.00000000000E+00 -0.00000000000E+00 -0.45593999997E+02  0.45594000000E+02  0.51100000000E-03 0.  1.
    9900012    2    1    2    0    0 -0.21759212788E+02  0.68933521333E+00  0.34339792607E+02  0.50528931141E+02  0.30000216696E+02 0.  0.
        -12    1    1    2    0    0  0.21759212788E+02 -0.68933521333E+00 -0.34339792607E+02  0.40659068859E+02  0.00000000000E+00 0.  1.
         11    1    3    3    0    0 -0.53251709409E+01 -0.28765223431E+00 -0.43542505163E+01  0.68847430727E+01  0.51100000000E-03 0. -1.
        -11    1    3    3    0    0  0.17390758233E+01  0.23936298847E+00  0.18209635974E+01  0.25293453785E+01  0.51100000000E-03 0.  1.
         12    1    3    3    0    0 -0.18173117670E+02  0.73762445917E+00  0.36873079526E+02  0.41114842690E+02  0.00000000000E+00 0. -1.
</event>
<event>
 7    1  0.4520156E-012  0.5052883E+02  0.7816164E-02  0.1300439E+00
        -11   -1    0    0    0    0  0.00000000000E+00  0.00000000000E+00  0.45593999997E+02  0.45594000000E+02  0.51100000000E-03 0. -1.
         11   -1    0    0    0    0 -0.00000000000E+00 -0.00000000000E+00 -0.45593999997E+02  0.45594000000E+02  0.51100000000E-03 0.  1.
    9900012    2    1    2    0    0 -0.16443679561E+02  0.98304717154E+01 -0.35862727234E+02  0.50528831584E+02  0.29999914082E+02 0.  0.
         12    1    1    2    0    0  0.16443679561E+02 -0.98304717154E+01  0.35862727234E+02  0.40659168416E+02  0.00000000000E+00 0. -1.
         11    1    3    3    0    0 -0.98811725262E+01  0.27554777215E+01  0.19486889313E+01  0.10441629029E+02  0.51100000000E-03 0. -1.
        -11    1    3    3    0    0 -0.30793346515E+01  0.87636779376E+01 -0.23725540809E+02  0.25479121646E+02  0.51100000000E-03 0.  1.
        -12    1    3    3    0    0 -0.34831723829E+01 -0.16886839437E+01 -0.14085875356E+02  0.14608080909E+02  0.00000000000E+00 0.  1.
</event>
<event>
 7    1  0.4520156E-012  0.5052886E+02  0.7816164E-02  0.1300439E+00
        -11   -1    0    0    0    0  0.00000000000E+00  0.00000000000E+00  0.45593999997E+02  0.45594000000E+02  0.51100000000E-03 0. -1.
         11   -1    0    0    0    0 -0.00000000000E+00 -0.00000000000E+00 -0.45593999997E+02  0.45594000000E+02  0.51100000000E-03 0.  1.
    9900012    2    1    2    0    0  0.32446892416E+01  0.12575857152E+02  0.38529020191E+02  0.50528860950E+02  0.30000003344E+02 0.  0.
        -12    1    1    2    0    0 -0.32446892416E+01 -0.12575857152E+02 -0.38529020191E+02  0.40659139050E+02  0.00000000000E+00 0.  1.
         11    1    3    3    0    0 -0.26480823847E+01 -0.97668454258E+00  0.11952071034E+02  0.12280808413E+02  0.51100000000E-03 0. -1.
        -11    1    3    3    0    0 -0.77824839811E+01  0.26823437330E+01  0.15536436063E+02  0.17582459174E+02  0.51100000000E-03 0.  1.
         12    1    3    3    0    0  0.13675255607E+02  0.10870197962E+02  0.11040513094E+02  0.20665593363E+02  0.00000000000E+00 0. -1.
</event>
<event>
 7    1  0.4520156E-012  0.5052898E+02  0.7816164E-02  0.1300438E+00
        -11   -1    0    0    0    0  0.00000000000E+00  0.00000000000E+00  0.45593999997E+02  0.45594000000E+02  0.51100000000E-03 0. -1.
         11   -1    0    0    0    0 -0.00000000000E+00 -0.00000000000E+00 -0.45593999997E+02  0.45594000000E+02  0.51100000000E-03 0.  1.
    9900012    2    1    2    0    0 -0.81252788666E+01 -0.19314921620E+02 -0.34843505836E+02  0.50528975752E+02  0.30000352294E+02 0.  0.
         12    1    1    2    0    0  0.81252788666E+01  0.19314921620E+02  0.34843505836E+02  0.40659024248E+02  0.00000000000E+00 0. -1.
         11    1    3    3    0    0 -0.11040094476E+01 -0.13304997096E+02 -0.15327574045E+02  0.20326738818E+02  0.51100000000E-03 0. -1.
        -11    1    3    3    0    0  0.21162765964E+01 -0.70253460897E+01 -0.19683905600E+02  0.21006909679E+02  0.51100000000E-03 0.  1.
         12    1    3    3    0    0 -0.91375460154E+01  0.10154215654E+01  0.16797380991E+00  0.91953272558E+01  0.00000000000E+00 0. -1.
</event>
<event>
 7    1  0.4520156E-012  0.5052886E+02  0.7816164E-02  0.1300439E+00
        -11   -1    0    0    0    0  0.00000000000E+00  0.00000000000E+00  0.45593999997E+02  0.45594000000E+02  0.51100000000E-03 0. -1.
         11   -1    0    0    0    0 -0.00000000000E+00 -0.00000000000E+00 -0.45593999997E+02  0.45594000000E+02  0.51100000000E-03 0.  1.
    9900012    2    1    2    0    0 -0.22061855740E+02  0.28792543008E+01  0.34031607913E+02  0.50528856856E+02  0.29999990901E+02 0.  0.
        -12    1    1    2    0    0  0.22061855740E+02 -0.28792543008E+01 -0.34031607913E+02  0.40659143144E+02  0.00000000000E+00 0.  1.
         11    1    3    3    0    0 -0.16713422862E+02  0.50051365649E+01  0.31372302809E+02  0.35897232199E+02  0.51100000000E-03 0.  1.
        -11    1    3    3    0    0 -0.27710459743E+01 -0.35738368295E+01  0.76176501914E+01  0.88588712698E+01  0.51100000000E-03 0. -1.
        -12    1    3    3    0    0 -0.25773869029E+01  0.14479545655E+01 -0.49583450865E+01  0.57727533871E+01  0.00000000000E+00 0.  1.
</event>
<event>
 7    1  0.4520156E-012  0.5052886E+02  0.7816164E-02  0.1300439E+00
        -11   -1    0    0    0    0  0.00000000000E+00  0.00000000000E+00  0.45593999997E+02  0.45594000000E+02  0.51100000000E-03 0. -1.
         11   -1    0    0    0    0 -0.00000000000E+00 -0.00000000000E+00 -0.45593999997E+02  0.45594000000E+02  0.51100000000E-03 0.  1.
    9900012    2    1    2    0    0 -0.63544456662E+01 -0.19853473024E+02  0.34908824114E+02  0.50528863612E+02  0.30000011434E+02 0.  0.
        -12    1    1    2    0    0  0.63544456662E+01  0.19853473024E+02 -0.34908824114E+02  0.40659136388E+02  0.00000000000E+00 0.  1.
         11    1    3    3    0    0 -0.35778337723E+01  0.45155649616E+00  0.89345995019E+00  0.37152481364E+01  0.51100000000E-03 0.  1.
        -11    1    3    3    0    0 -0.45168820744E+01  0.48072648569E+01  0.10287940543E+02  0.12221036779E+02  0.51100000000E-03 0. -1.
        -12    1    3    3    0    0  0.17402701806E+01 -0.25112294377E+02  0.23727423620E+02  0.34592578696E+02  0.00000000000E+00 0.  1.
</event>
<event>
 7    1  0.4520156E-012  0.5052883E+02  0.7816164E-02  0.1300439E+00
        -11   -1    0    0    0    0  0.00000000000E+00  0.00000000000E+00  0.45593999997E+02  0.45594000000E+02  0.51100000000E-03 0. -1.
         11   -1    0    0    0    0 -0.00000000000E+00 -0.00000000000E+00 -0.45593999997E+02  0.45594000000E+02  0.51100000000E-03 0.  1.
    9900012    2    1    2    0    0 -0.69055350754E+01 -0.11170295534E+01  0.40052885174E+02  0.50528833992E+02  0.29999921401E+02 0.  0.
        -12    1    1    2    0    0  0.69055350754E+01  0.11170295534E+01 -0.40052885174E+02  0.40659166008E+02  0.00000000000E+00 0.  1.
         11    1    3    3    0    0 -0.43848010477E+01  0.87089279480E+01  0.35662904801E+02  0.36971809332E+02  0.51100000000E-03 0. -1.
        -11    1    3    3    0    0  0.11479646240E+01 -0.74536218697E+01  0.51368023825E+01  0.91247488039E+01  0.51100000000E-03 0.  1.
        -12    1    3    3    0    0 -0.36686986517E+01 -0.23723356317E+01 -0.74682200883E+00  0.44322758555E+01  0.00000000000E+00 0.  1.
</event>
<event>
 7    1  0.4520156E-012  0.5052886E+02  0.7816164E-02  0.1300439E+00
        -11   -1    0    0    0    0  0.00000000000E+00  0.00000000000E+00  0.45593999997E+02  0.45594000000E+02  0.51100000000E-03 0. -1.
         11   -1    0    0    0    0 -0.00000000000E+00 -0.00000000000E+00 -0.45593999997E+02  0.45594000000E+02  0.51100000000E-03 0.  1.
    9900012    2    1    2    0    0  0.12326176469E+02 -0.25838012072E+02 -0.28872617942E+02  0.50528861285E+02  0.30000004363E+02 0.  0.
         12    1    1    2    0    0 -0.12326176469E+02  0.25838012072E+02  0.28872617942E+02  0.40659138715E+02  0.00000000000E+00 0. -1.
         11    1    3    3    0    0  0.69581986351E+01 -0.20821024922E+02 -0.10600564176E+02  0.24378342195E+02  0.51100000000E-03 0. -1.
        -11    1    3    3    0    0 -0.58695360206E+00 -0.10328515076E+02 -0.76563917398E+01  0.12870239817E+02  0.51100000000E-03 0.  1.
         12    1    3    3    0    0  0.59549314364E+01  0.53115279263E+01 -0.10615662027E+02  0.13280279274E+02  0.00000000000E+00 0. -1.
</event>
<event>
 7    1  0.4520156E-012  0.5052886E+02  0.7816164E-02  0.1300439E+00
        -11   -1    0    0    0    0  0.00000000000E+00  0.00000000000E+00  0.45593999997E+02  0.45594000000E+02  0.51100000000E-03 0. -1.
         11   -1    0    0    0    0 -0.00000000000E+00 -0.00000000000E+00 -0.45593999997E+02  0.45594000000E+02  0.51100000000E-03 0.  1.
    9900012    2    1    2    0    0 -0.22908745485E+02  0.97061071930E+01  0.32158146000E+02  0.50528862150E+02  0.30000006992E+02 0.  0.
        -12    1    1    2    0    0  0.22908745485E+02 -0.97061071930E+01 -0.32158146000E+02  0.40659137850E+02  0.00000000000E+00 0.  1.
         11    1    3    3    0    0 -0.25215849332E+02  0.24205614443E+01  0.33623317091E+02  0.42097810248E+02  0.51100000000E-03 0. -1.
        -11    1    3    3    0    0 -0.19664076493E+00  0.14804862228E+01  0.82601390177E+00  0.17066945460E+01  0.51100000000E-03 0.  1.
        -12    1    3    3    0    0  0.25037446117E+01  0.58050595259E+01 -0.22911849931E+01  0.67243573561E+01  0.00000000000E+00 0.  1.
</event>
<event>
 7    1  0.4520156E-012  0.5052886E+02  0.7816164E-02  0.1300439E+00
        -11   -1    0    0    0    0  0.00000000000E+00  0.00000000000E+00  0.45593999997E+02  0.45594000000E+02  0.51100000000E-03 0. -1.
         11   -1    0    0    0    0 -0.00000000000E+00 -0.00000000000E+00 -0.45593999997E+02  0.45594000000E+02  0.51100000000E-03 0.  1.
    9900012    2    1    2    0    0 -0.15936157994E+02 -0.31093866489E+02 -0.20793652237E+02  0.50528860336E+02  0.30000001478E+02 0.  0.
         12    1    1    2    0    0  0.15936157994E+02  0.31093866489E+02  0.20793652237E+02  0.40659139664E+02  0.00000000000E+00 0. -1.
         11    1    3    3    0    0  0.23932783642E+01 -0.28072378892E+01  0.24994250261E+01  0.44559501363E+01  0.51100000000E-03 0. -1.
        -11    1    3    3    0    0 -0.25475500867E+01 -0.13212068352E+01  0.37696998315E+01  0.47377458803E+01  0.51100000000E-03 0.  1.
        -12    1    3    3    0    0 -0.15781886272E+02 -0.26965421765E+02 -0.27062777095E+02  0.41335164319E+02  0.00000000000E+00 0.  1.
</event>
<event>
 7    1  0.4520156E-012  0.5052886E+02  0.7816164E-02  0.1300439E+00
        -11   -1    0    0    0    0  0.00000000000E+00  0.00000000000E+00  0.45593999997E+02  0.45594000000E+02  0.51100000000E-03 0. -1.
         11   -1    0    0    0    0 -0.00000000000E+00 -0.00000000000E+00 -0.45593999997E+02  0.45594000000E+02  0.51100000000E-03 0.  1.
    9900012    2    1    2    0    0 -0.26101997206E+02  0.20146656963E+02  0.23789990308E+02  0.50528859776E+02  0.29999999775E+02 0.  0.
        -12    1    1    2    0    0  0.26101997206E+02 -0.20146656963E+02 -0.23789990308E+02  0.40659140224E+02  0.00000000000E+00 0.  1.
         11    1    3    3    0    0 -0.72130120639E+01  0.11041588551E+02  0.70044840953E+01  0.14933419516E+02  0.51100000000E-03 0.  1.
        -11    1    3    3    0    0 -0.18530091509E+02  0.15043180492E+02  0.17511152504E+02  0.29602399107E+02  0.51100000000E-03 0. -1.
        -12    1    3    3    0    0 -0.35889363348E+00 -0.59381120797E+01 -0.72564629169E+00  0.59930411522E+01  0.00000000000E+00 0.  1.
</event>
<event>
 7    1  0.4520156E-012  0.5052881E+02  0.7816164E-02  0.1300439E+00
        -11   -1    0    0    0    0  0.00000000000E+00  0.00000000000E+00  0.45593999997E+02  0.45594000000E+02  0.51100000000E-03 0. -1.
         11   -1    0    0    0    0 -0.00000000000E+00 -0.00000000000E+00 -0.45593999997E+02  0.45594000000E+02  0.51100000000E-03 0.  1.
    9900012    2    1    2    0    0  0.14361402831E+02  0.22043116823E+02  0.31000331947E+02  0.50528813198E+02  0.29999858196E+02 0.  0.
        -12    1    1    2    0    0 -0.14361402831E+02 -0.22043116823E+02 -0.31000331947E+02  0.40659186802E+02  0.00000000000E+00 0.  1.
         11    1    3    3    0    0  0.17033828711E+02  0.11288937823E+02  0.15342298788E+02  0.25553425799E+02  0.51100000000E-03 0. -1.
        -11    1    3    3    0    0  0.49954151801E+01 -0.11470326933E+01  0.27488623367E+01  0.58160210821E+01  0.51100000000E-03 0.  1.
        -12    1    3    3    0    0 -0.76678410601E+01  0.11901211694E+02  0.12909170823E+02  0.19159366316E+02  0.00000000000E+00 0.  1.
</event>
<event>
 7    1  0.4520156E-012  0.5052886E+02  0.7816164E-02  0.1300439E+00
        -11   -1    0    0    0    0  0.00000000000E+00  0.00000000000E+00  0.45593999997E+02  0.45594000000E+02  0.51100000000E-03 0. -1.
         11   -1    0    0    0    0 -0.00000000000E+00 -0.00000000000E+00 -0.45593999997E+02  0.45594000000E+02  0.51100000000E-03 0.  1.
    9900012    2    1    2    0    0  0.28081114951E+01  0.93747197782E+01  0.39463837259E+02  0.50528864344E+02  0.30000013661E+02 0.  0.
        -12    1    1    2    0    0 -0.28081114951E+01 -0.93747197782E+01 -0.39463837259E+02  0.40659135656E+02  0.00000000000E+00 0.  1.
         11    1    3    3    0    0  0.65387683773E+01  0.78188089749E+01  0.86354679935E+01  0.13358913631E+02  0.51100000000E-03 0. -1.
        -11    1    3    3    0    0  0.81366587938E+01  0.17209104833E+01  0.17151290712E+02  0.19061309572E+02  0.51100000000E-03 0.  1.
         12    1    3    3    0    0 -0.11867315676E+02 -0.16499967994E+00  0.13677078553E+02  0.18108641141E+02  0.00000000000E+00 0. -1.
</event>
<event>
 7    1  0.4520156E-012  0.5052885E+02  0.7816164E-02  0.1300439E+00
        -11   -1    0    0    0    0  0.00000000000E+00  0.00000000000E+00  0.45593999997E+02  0.45594000000E+02  0.51100000000E-03 0. -1.
         11   -1    0    0    0    0 -0.00000000000E+00 -0.00000000000E+00 -0.45593999997E+02  0.45594000000E+02  0.51100000000E-03 0.  1.
    9900012    2    1    2    0    0 -0.12796103800E+02  0.49314914099E+01  0.38276711233E+02  0.50528849704E+02  0.29999969160E+02 0.  0.
        -12    1    1    2    0    0  0.12796103800E+02 -0.49314914099E+01 -0.38276711233E+02  0.40659150296E+02  0.00000000000E+00 0.  1.
         11    1    3    3    0    0 -0.10570330436E+01 -0.89000368958E+00 -0.14302226336E+00  0.13892015878E+01  0.51100000000E-03 0. -1.
        -11    1    3    3    0    0 -0.31000400041E+01 -0.10927746004E+02  0.18569126962E+02  0.21767828490E+02  0.51100000000E-03 0.  1.
         12    1    3    3    0    0 -0.86390307520E+01  0.16749241104E+02  0.19850606534E+02  0.27371819626E+02  0.00000000000E+00 0. -1.
</event>
<event>
 7    1  0.4520156E-012  0.5052885E+02  0.7816164E-02  0.1300439E+00
        -11   -1    0    0    0    0  0.00000000000E+00  0.00000000000E+00  0.45593999997E+02  0.45594000000E+02  0.51100000000E-03 0. -1.
         11   -1    0    0    0    0 -0.00000000000E+00 -0.00000000000E+00 -0.45593999997E+02  0.45594000000E+02  0.51100000000E-03 0.  1.
    9900012    2    1    2    0    0 -0.17073438459E+02 -0.28109609135E+02 -0.23906353758E+02  0.50528853716E+02  0.29999981356E+02 0.  0.
         12    1    1    2    0    0  0.17073438459E+02  0.28109609135E+02  0.23906353758E+02  0.40659146284E+02  0.00000000000E+00 0. -1.
         11    1    3    3    0    0 -0.50837809153E+01 -0.69915053387E+01 -0.17715440185E+02  0.19711996259E+02  0.51100000000E-03 0. -1.
        -11    1    3    3    0    0 -0.94440297316E+01 -0.54008297834E+01 -0.96282398177E+01  0.14527961391E+02  0.51100000000E-03 0.  1.
         12    1    3    3    0    0 -0.25456278124E+01 -0.15717274013E+02  0.34373262451E+01  0.16288896066E+02  0.00000000000E+00 0. -1.
</event>
<event>
 7    1  0.4520156E-012  0.5052886E+02  0.7816164E-02  0.1300439E+00
        -11   -1    0    0    0    0  0.00000000000E+00  0.00000000000E+00  0.45593999997E+02  0.45594000000E+02  0.51100000000E-03 0.  1.
         11   -1    0    0    0    0 -0.00000000000E+00 -0.00000000000E+00 -0.45593999997E+02  0.45594000000E+02  0.51100000000E-03 0. -1.
    9900012    2    1    2    0    0  0.73125960385E+01  0.38158124491E+02  0.11985382022E+02  0.50528857023E+02  0.29999991406E+02 0.  0.
        -12    1    1    2    0    0 -0.73125960385E+01 -0.38158124491E+02 -0.11985382022E+02  0.40659142977E+02  0.00000000000E+00 0.  1.
         11    1    3    3    0    0 -0.82473878560E+01  0.10486481753E+02  0.29845137592E+01  0.13670882512E+02  0.51100000000E-03 0. -1.
        -11    1    3    3    0    0 -0.63971152911E+00 -0.77844698554E+00 -0.20664389231E+01  0.22989955706E+01  0.51100000000E-03 0.  1.
         12    1    3    3    0    0  0.16199695424E+02  0.28450089723E+02  0.11067307186E+02  0.34558978940E+02  0.00000000000E+00 0. -1.
</event>
<event>
 7    1  0.4520156E-012  0.5052884E+02  0.7816164E-02  0.1300439E+00
        -11   -1    0    0    0    0  0.00000000000E+00  0.00000000000E+00  0.45593999997E+02  0.45594000000E+02  0.51100000000E-03 0. -1.
         11   -1    0    0    0    0 -0.00000000000E+00 -0.00000000000E+00 -0.45593999997E+02  0.45594000000E+02  0.51100000000E-03 0.  1.
    9900012    2    1    2    0    0 -0.64430296136E+01  0.20467388160E+02  0.34536076153E+02  0.50528841564E+02  0.29999944417E+02 0.  0.
        -12    1    1    2    0    0  0.64430296136E+01 -0.20467388160E+02 -0.34536076153E+02  0.40659158436E+02  0.00000000000E+00 0.  1.
         11    1    3    3    0    0  0.53513442287E+01  0.16471621377E+02  0.33868274542E+02  0.38039600636E+02  0.51100000000E-03 0. -1.
        -11    1    3    3    0    0 -0.10018042920E+01  0.49016401520E+00  0.19152401846E+00  0.11316157970E+01  0.51100000000E-03 0.  1.
         12    1    3    3    0    0 -0.10792569550E+02  0.35056027677E+01  0.47627759303E+00  0.11357625131E+02  0.00000000000E+00 0. -1.
</event>
<event>
 7    1  0.5190589E-012  0.5052886E+02  0.7816164E-02  0.1300439E+00
        -11   -1    0    0    0    0  0.00000000000E+00  0.00000000000E+00  0.45593999997E+02  0.45594000000E+02  0.51100000000E-03 0. -1.
         11   -1    0    0    0    0 -0.00000000000E+00 -0.00000000000E+00 -0.45593999997E+02  0.45594000000E+02  0.51100000000E-03 0.  1.
    9900012    2    1    2    0    0  0.30839200371E+02  0.19447133755E+02  0.17997732650E+02  0.50528859929E+02  0.30000000240E+02 0.  0.
        -12    1    1    2    0    0 -0.30839200371E+02 -0.19447133755E+02 -0.17997732650E+02  0.40659140071E+02  0.00000000000E+00 0.  1.
         11    1    3    3    0    0  0.49565816224E+00 -0.32298442595E+01 -0.75732816077E+00  0.33542684983E+01  0.51100000000E-03 0. -1.
        -11    1    3    3    0    0  0.80802219173E+00 -0.16981832260E+01  0.68026515044E+01  0.70578179264E+01  0.51100000000E-03 0.  1.
         12    1    3    3    0    0  0.29535520017E+02  0.24375161240E+02  0.11952409306E+02  0.40116773504E+02  0.00000000000E+00 0. -1.
</event>
<event>
 7    1  0.4520156E-012  0.5052886E+02  0.7816164E-02  0.1300439E+00
        -11   -1    0    0    0    0  0.00000000000E+00  0.00000000000E+00  0.45593999997E+02  0.45594000000E+02  0.51100000000E-03 0. -1.
         11   -1    0    0    0    0 -0.00000000000E+00 -0.00000000000E+00 -0.45593999997E+02  0.45594000000E+02  0.51100000000E-03 0.  1.
    9900012    2    1    2    0    0 -0.28751663116E+01  0.44899215057E+01  0.40308062838E+02  0.50528857041E+02  0.29999991462E+02 0.  0.
        -12    1    1    2    0    0  0.28751663116E+01 -0.44899215057E+01 -0.40308062838E+02  0.40659142959E+02  0.00000000000E+00 0.  1.
         11    1    3    3    0    0  0.71457082633E+01 -0.26914371535E+01  0.72921895578E+01  0.10558456769E+02  0.51100000000E-03 0. -1.
        -11    1    3    3    0    0 -0.72389876855E+01 -0.36215179038E+01  0.24879490557E+02  0.26163092044E+02  0.51100000000E-03 0.  1.
        -12    1    3    3    0    0 -0.27818868894E+01  0.10802876563E+02  0.81363827226E+01  0.13807308228E+02  0.00000000000E+00 0.  1.
</event>
<event>
 7    1  0.4520156E-012  0.5052887E+02  0.7816164E-02  0.1300439E+00
        -11   -1    0    0    0    0  0.00000000000E+00  0.00000000000E+00  0.45593999997E+02  0.45594000000E+02  0.51100000000E-03 0. -1.
         11   -1    0    0    0    0 -0.00000000000E+00 -0.00000000000E+00 -0.45593999997E+02  0.45594000000E+02  0.51100000000E-03 0.  1.
    9900012    2    1    2    0    0 -0.35564228462E+02 -0.17949301050E+01  0.19624699946E+02  0.50528868576E+02  0.30000026523E+02 0.  0.
        -12    1    1    2    0    0  0.35564228462E+02  0.17949301050E+01 -0.19624699946E+02  0.40659131424E+02  0.00000000000E+00 0.  1.
         11    1    3    3    0    0 -0.14165321679E+02 -0.28672760119E+01  0.81857504165E+00  0.14475761650E+02  0.51100000000E-03 0.  1.
        -11    1    3    3    0    0 -0.99264658044E+01  0.10410307424E+02  0.35769323177E+01  0.14822404295E+02  0.51100000000E-03 0. -1.
         12    1    3    3    0    0 -0.11472440979E+02 -0.93379615172E+01  0.15229192587E+02  0.21230702630E+02  0.00000000000E+00 0. -1.
</event>
<event>
 7    1  0.4520156E-012  0.5052886E+02  0.7816164E-02  0.1300439E+00
        -11   -1    0    0    0    0  0.00000000000E+00  0.00000000000E+00  0.45593999997E+02  0.45594000000E+02  0.51100000000E-03 0. -1.
         11   -1    0    0    0    0 -0.00000000000E+00 -0.00000000000E+00 -0.45593999997E+02  0.45594000000E+02  0.51100000000E-03 0.  1.
    9900012    2    1    2    0    0  0.28993726112E+02 -0.48547424548E+01  0.28088442588E+02  0.50528864677E+02  0.30000014672E+02 0.  0.
        -12    1    1    2    0    0 -0.28993726112E+02  0.48547424548E+01 -0.28088442588E+02  0.40659135323E+02  0.00000000000E+00 0.  1.
         11    1    3    3    0    0  0.50940805094E+00  0.68012848639E+00 -0.50932258620E+00  0.99069726875E+00  0.51100000000E-03 0. -1.
        -11    1    3    3    0    0  0.14806695682E+02 -0.12348191924E+02  0.26996017049E+01  0.19468023280E+02  0.51100000000E-03 0.  1.
         12    1    3    3    0    0  0.13677622380E+02  0.68133209831E+01  0.25898163470E+02  0.30070144128E+02  0.00000000000E+00 0. -1.
</event>
<event>
 7    1  0.4520156E-012  0.5052886E+02  0.7816164E-02  0.1300439E+00
        -11   -1    0    0    0    0  0.00000000000E+00  0.00000000000E+00  0.45593999997E+02  0.45594000000E+02  0.51100000000E-03 0. -1.
         11   -1    0    0    0    0 -0.00000000000E+00 -0.00000000000E+00 -0.45593999997E+02  0.45594000000E+02  0.51100000000E-03 0.  1.
    9900012    2    1    2    0    0 -0.22760689251E+02 -0.31786604701E+02 -0.11168187304E+02  0.50528860544E+02  0.30000002111E+02 0.  0.
         12    1    1    2    0    0  0.22760689251E+02  0.31786604701E+02  0.11168187304E+02  0.40659139456E+02  0.00000000000E+00 0. -1.
         11    1    3    3    0    0 -0.78609817011E+01 -0.16012316663E+02 -0.14536386253E+02  0.23010776688E+02  0.51100000000E-03 0.  1.
        -11    1    3    3    0    0 -0.12858431520E+01 -0.68734585388E+01 -0.55868918071E+01  0.89504851947E+01  0.51100000000E-03 0. -1.
         12    1    3    3    0    0 -0.13613864398E+02 -0.89008294995E+01  0.89550907561E+01  0.18567598662E+02  0.00000000000E+00 0. -1.
</event>
<event>
 7    1  0.4584522E-012  0.5052888E+02  0.7816164E-02  0.1300439E+00
        -11   -1    0    0    0    0  0.00000000000E+00  0.00000000000E+00  0.45593999997E+02  0.45594000000E+02  0.51100000000E-03 0. -1.
         11   -1    0    0    0    0 -0.00000000000E+00 -0.00000000000E+00 -0.45593999997E+02  0.45594000000E+02  0.51100000000E-03 0.  1.
    9900012    2    1    2    0    0  0.34088007425E+02  0.41972668381E+00  0.22158425194E+02  0.50528877681E+02  0.30000054198E+02 0.  0.
        -12    1    1    2    0    0 -0.34088007425E+02 -0.41972668381E+00 -0.22158425194E+02  0.40659122319E+02  0.00000000000E+00 0.  1.
         11    1    3    3    0    0  0.24178156926E+02 -0.39996527987E+01  0.45861088225E+01  0.24932165755E+02  0.51100000000E-03 0. -1.
        -11    1    3    3    0    0  0.61894201040E+01  0.32725363815E+01 -0.58593928756E+00  0.70257911086E+01  0.51100000000E-03 0.  1.
         12    1    3    3    0    0  0.37204303955E+01  0.11468431011E+01  0.18158255659E+02  0.18570920817E+02  0.00000000000E+00 0. -1.
</event>
<event>
 7    1  0.4520156E-012  0.5052885E+02  0.7816164E-02  0.1300439E+00
        -11   -1    0    0    0    0  0.00000000000E+00  0.00000000000E+00  0.45593999997E+02  0.45594000000E+02  0.51100000000E-03 0. -1.
         11   -1    0    0    0    0 -0.00000000000E+00 -0.00000000000E+00 -0.45593999997E+02  0.45594000000E+02  0.51100000000E-03 0.  1.
    9900012    2    1    2    0    0 -0.18352697768E+02  0.30736605391E+02 -0.19277093478E+02  0.50528846550E+02  0.29999959573E+02 0.  0.
         12    1    1    2    0    0  0.18352697768E+02 -0.30736605391E+02  0.19277093478E+02  0.40659153450E+02  0.00000000000E+00 0. -1.
         11    1    3    3    0    0 -0.93324049560E+01  0.16102537579E+01  0.32835387461E+01  0.10023388967E+02  0.51100000000E-03 0. -1.
        -11    1    3    3    0    0  0.32718744925E+01  0.70590251859E+01 -0.87788423037E+01  0.11730433569E+02  0.51100000000E-03 0.  1.
        -12    1    3    3    0    0 -0.12292167304E+02  0.22067326448E+02 -0.13781789920E+02  0.28775024013E+02  0.00000000000E+00 0.  1.
</event>
<event>
 7    1  0.4520156E-012  0.5052887E+02  0.7816164E-02  0.1300439E+00
        -11   -1    0    0    0    0  0.00000000000E+00  0.00000000000E+00  0.45593999997E+02  0.45594000000E+02  0.51100000000E-03 0. -1.
         11   -1    0    0    0    0 -0.00000000000E+00 -0.00000000000E+00 -0.45593999997E+02  0.45594000000E+02  0.51100000000E-03 0.  1.
    9900012    2    1    2    0    0  0.70666193090E+01 -0.10173941164E+02 -0.38726206098E+02  0.50528865405E+02  0.30000016885E+02 0.  0.
         12    1    1    2    0    0 -0.70666193090E+01  0.10173941164E+02  0.38726206098E+02  0.40659134595E+02  0.00000000000E+00 0. -1.
         11    1    3    3    0    0 -0.37609132906E+01 -0.70217596080E+01 -0.85430360322E+01  0.11680455543E+02  0.51100000000E-03 0. -1.
        -11    1    3    3    0    0  0.80503155782E+01  0.53710163160E+01 -0.27995609106E+02  0.29621099349E+02  0.51100000000E-03 0.  1.
         12    1    3    3    0    0  0.27772170215E+01 -0.85231978721E+01 -0.21875609597E+01  0.92273105131E+01  0.00000000000E+00 0. -1.
</event>
<event>
 7    1  0.4520156E-012  0.5052886E+02  0.7816164E-02  0.1300439E+00
        -11   -1    0    0    0    0  0.00000000000E+00  0.00000000000E+00  0.45593999997E+02  0.45594000000E+02  0.51100000000E-03 0. -1.
         11   -1    0    0    0    0 -0.00000000000E+00 -0.00000000000E+00 -0.45593999997E+02  0.45594000000E+02  0.51100000000E-03 0.  1.
    9900012    2    1    2    0    0 -0.15144097669E+01 -0.14813453896E+02  0.37834293124E+02  0.50528860936E+02  0.30000003300E+02 0.  0.
        -12    1    1    2    0    0  0.15144097669E+01  0.14813453896E+02 -0.37834293124E+02  0.40659139064E+02  0.00000000000E+00 0.  1.
         11    1    3    3    0    0  0.43638060238E+00 -0.45285235186E+00  0.28390234475E+02  0.28397199107E+02  0.51100000000E-03 0.  1.
        -11    1    3    3    0    0  0.31085023736E+01 -0.49907066220E+01  0.98544744552E+01  0.11475217063E+02  0.51100000000E-03 0. -1.
        -12    1    3    3    0    0 -0.50592927428E+01 -0.93698949224E+01 -0.41041580681E+00  0.10656444766E+02  0.00000000000E+00 0.  1.
</event>
<event>
 7    1  0.4520156E-012  0.5052886E+02  0.7816164E-02  0.1300439E+00
        -11   -1    0    0    0    0  0.00000000000E+00  0.00000000000E+00  0.45593999997E+02  0.45594000000E+02  0.51100000000E-03 0. -1.
         11   -1    0    0    0    0 -0.00000000000E+00 -0.00000000000E+00 -0.45593999997E+02  0.45594000000E+02  0.51100000000E-03 0.  1.
    9900012    2    1    2    0    0 -0.25426033787E+02  0.12363984090E+02 -0.29220107782E+02  0.50528855942E+02  0.29999988121E+02 0.  0.
         12    1    1    2    0    0  0.25426033787E+02 -0.12363984090E+02  0.29220107782E+02  0.40659144058E+02  0.00000000000E+00 0. -1.
         11    1    3    3    0    0 -0.17320105377E+02  0.13339778222E+01 -0.72153155121E+01  0.18810271802E+02  0.51100000000E-03 0.  1.
        -11    1    3    3    0    0 -0.68691710842E+01  0.10895419088E+00  0.27476164121E+00  0.68755273703E+01  0.51100000000E-03 0. -1.
        -12    1    3    3    0    0 -0.12367573264E+01  0.10921052077E+02 -0.22279553911E+02  0.24843056769E+02  0.00000000000E+00 0.  1.
</event>
<event>
 7    1  0.4520156E-012  0.5052884E+02  0.7816164E-02  0.1300439E+00
        -11   -1    0    0    0    0  0.00000000000E+00  0.00000000000E+00  0.45593999997E+02  0.45594000000E+02  0.51100000000E-03 0. -1.
         11   -1    0    0    0    0 -0.00000000000E+00 -0.00000000000E+00 -0.45593999997E+02  0.45594000000E+02  0.51100000000E-03 0.  1.
    9900012    2    1    2    0    0 -0.15813310400E+02  0.34701895086E+02  0.14102647499E+02  0.50528843899E+02  0.29999951516E+02 0.  0.
        -12    1    1    2    0    0  0.15813310400E+02 -0.34701895086E+02 -0.14102647499E+02  0.40659156101E+02  0.00000000000E+00 0.  1.
         11    1    3    3    0    0 -0.83166365501E+01  0.28455913592E+01  0.17988582641E+01  0.89721638976E+01  0.51100000000E-03 0. -1.
        -11    1    3    3    0    0 -0.30691860675E+01  0.25965968878E+02  0.18417333244E+02  0.31982020057E+02  0.51100000000E-03 0.  1.
         12    1    3    3    0    0 -0.44274877826E+01  0.58903348489E+01 -0.61135440089E+01  0.95746599441E+01  0.00000000000E+00 0. -1.
</event>
<event>
 7    1  0.4520156E-012  0.5052886E+02  0.7816164E-02  0.1300439E+00
        -11   -1    0    0    0    0  0.00000000000E+00  0.00000000000E+00  0.45593999997E+02  0.45594000000E+02  0.51100000000E-03 0. -1.
         11   -1    0    0    0    0 -0.00000000000E+00 -0.00000000000E+00 -0.45593999997E+02  0.45594000000E+02  0.51100000000E-03 0.  1.
    9900012    2    1    2    0    0  0.27356870966E+02 -0.25081356126E+02 -0.16603992648E+02  0.50528863437E+02  0.30000010904E+02 0.  0.
         12    1    1    2    0    0 -0.27356870966E+02  0.25081356126E+02  0.16603992648E+02  0.40659136563E+02  0.00000000000E+00 0. -1.
         11    1    3    3    0    0  0.11599238819E+01 -0.42082684355E+01 -0.55040822051E+01  0.70249461079E+01  0.51100000000E-03 0. -1.
        -11    1    3    3    0    0  0.30772955472E+02 -0.14099617874E+02 -0.81791693835E+01  0.34823452224E+02  0.51100000000E-03 0.  1.
         12    1    3    3    0    0 -0.45760083880E+01 -0.67734698157E+01 -0.29207410598E+01  0.86804651056E+01  0.00000000000E+00 0. -1.
</event>
<event>
 7    1  0.4520156E-012  0.5052886E+02  0.7816164E-02  0.1300439E+00
        -11   -1    0    0    0    0  0.00000000000E+00  0.00000000000E+00  0.45593999997E+02  0.45594000000E+02  0.51100000000E-03 0. -1.
         11   -1    0    0    0    0 -0.00000000000E+00 -0.00000000000E+00 -0.45593999997E+02  0.45594000000E+02  0.51100000000E-03 0.  1.
    9900012    2    1    2    0    0 -0.25375607834E+02 -0.18841132571E+02  0.25578431376E+02  0.50528857102E+02  0.29999991648E+02 0.  0.
        -12    1    1    2    0    0  0.25375607834E+02  0.18841132571E+02 -0.25578431376E+02  0.40659142898E+02  0.00000000000E+00 0.  1.
         11    1    3    3    0    0  0.36784676215E+01  0.86165312778E+00  0.25924227257E+01  0.45819456572E+01  0.51100000000E-03 0. -1.
        -11    1    3    3    0    0 -0.22912255387E+01 -0.83440117134E+01  0.12157286952E+02  0.14922193948E+02  0.51100000000E-03 0.  1.
         12    1    3    3    0    0 -0.26762849917E+02 -0.11358773986E+02  0.10828721699E+02  0.31024717497E+02  0.00000000000E+00 0. -1.
</event>
<event>
 7    1  0.4520156E-012  0.5052885E+02  0.7816164E-02  0.1300439E+00
        -11   -1    0    0    0    0  0.00000000000E+00  0.00000000000E+00  0.45593999997E+02  0.45594000000E+02  0.51100000000E-03 0. -1.
         11   -1    0    0    0    0 -0.00000000000E+00 -0.00000000000E+00 -0.45593999997E+02  0.45594000000E+02  0.51100000000E-03 0.  1.
    9900012    2    1    2    0    0 -0.13082128937E+02 -0.19553369634E+02 -0.33161571942E+02  0.50528853240E+02  0.29999979908E+02 0.  0.
         12    1    1    2    0    0  0.13082128937E+02  0.19553369634E+02  0.33161571942E+02  0.40659146760E+02  0.00000000000E+00 0. -1.
         11    1    3    3    0    0 -0.17974912025E+01  0.42617328029E+01 -0.39561435019E+01  0.60864121431E+01  0.51100000000E-03 0. -1.
        -11    1    3    3    0    0  0.51459197266E+01 -0.10491200183E+02 -0.14765525217E+02  0.18829936439E+02  0.51100000000E-03 0.  1.
        -12    1    3    3    0    0 -0.16430557461E+02 -0.13323902254E+02 -0.14439903224E+02  0.25612504658E+02  0.00000000000E+00 0.  1.
</event>
<event>
 7    1  0.4520156E-012  0.5052886E+02  0.7816164E-02  0.1300439E+00
        -11   -1    0    0    0    0  0.00000000000E+00  0.00000000000E+00  0.45593999997E+02  0.45594000000E+02  0.51100000000E-03 0. -1.
         11   -1    0    0    0    0 -0.00000000000E+00 -0.00000000000E+00 -0.45593999997E+02  0.45594000000E+02  0.51100000000E-03 0.  1.
    9900012    2    1    2    0    0 -0.79604092714E+01  0.24672834591E+02 -0.31321694521E+02  0.50528862894E+02  0.30000009253E+02 0.  0.
         12    1    1    2    0    0  0.79604092714E+01 -0.24672834591E+02  0.31321694521E+02  0.40659137106E+02  0.00000000000E+00 0. -1.
         11    1    3    3    0    0  0.43749758891E+00  0.75914896706E+00  0.99273244650E+00  0.13240956408E+01  0.51100000000E-03 0. -1.
        -11    1    3    3    0    0  0.72841212816E+01  0.19127435487E+02 -0.20711221187E+02  0.29118239893E+02  0.51100000000E-03 0.  1.
         12    1    3    3    0    0 -0.15682028142E+02  0.47862501369E+01 -0.11603205780E+02  0.20086527360E+02  0.00000000000E+00 0. -1.
</event>
<event>
 7    1  0.4520156E-012  0.5052881E+02  0.7816164E-02  0.1300439E+00
        -11   -1    0    0    0    0  0.00000000000E+00  0.00000000000E+00  0.45593999997E+02  0.45594000000E+02  0.51100000000E-03 0. -1.
         11   -1    0    0    0    0 -0.00000000000E+00 -0.00000000000E+00 -0.45593999997E+02  0.45594000000E+02  0.51100000000E-03 0.  1.
    9900012    2    1    2    0    0  0.19003929316E+01  0.16251712078E+02  0.37221504202E+02  0.50528806528E+02  0.29999837922E+02 0.  0.
        -12    1    1    2    0    0 -0.19003929316E+01 -0.16251712078E+02 -0.37221504202E+02  0.40659193472E+02  0.00000000000E+00 0.  1.
         11    1    3    3    0    0 -0.12784660341E+00  0.65910949540E+01  0.10873188181E+02  0.12715545561E+02  0.51100000000E-03 0. -1.
        -11    1    3    3    0    0  0.26746334823E+01  0.10155931880E+02  0.31186324493E+02  0.32907194537E+02  0.51100000000E-03 0.  1.
        -12    1    3    3    0    0 -0.64639394728E+00 -0.49531475576E+00 -0.48380084722E+01  0.49060664304E+01  0.00000000000E+00 0.  1.
</event>
<event>
 7    1  0.5128425E-012  0.5052887E+02  0.7816164E-02  0.1300439E+00
        -11   -1    0    0    0    0  0.00000000000E+00  0.00000000000E+00  0.45593999997E+02  0.45594000000E+02  0.51100000000E-03 0. -1.
         11   -1    0    0    0    0 -0.00000000000E+00 -0.00000000000E+00 -0.45593999997E+02  0.45594000000E+02  0.51100000000E-03 0.  1.
    9900012    2    1    2    0    0 -0.24869356467E+02 -0.76068316483E+01  0.31254062294E+02  0.50528865864E+02  0.30000018279E+02 0.  0.
        -12    1    1    2    0    0  0.24869356467E+02  0.76068316483E+01 -0.31254062294E+02  0.40659134136E+02  0.00000000000E+00 0.  1.
         11    1    3    3    0    0 -0.12510653884E+02  0.14723205363E+01  0.12058203035E+02  0.17438017349E+02  0.51100000000E-03 0. -1.
        -11    1    3    3    0    0 -0.39852827432E+01  0.37729933631E+01  0.16663557118E+02  0.17544004490E+02  0.51100000000E-03 0.  1.
         12    1    3    3    0    0 -0.83734198403E+01 -0.12852145548E+02  0.25323021414E+01  0.15546844025E+02  0.00000000000E+00 0. -1.
</event>
<event>
 7    1  0.4520156E-012  0.5052885E+02  0.7816164E-02  0.1300439E+00
        -11   -1    0    0    0    0  0.00000000000E+00  0.00000000000E+00  0.45593999997E+02  0.45594000000E+02  0.51100000000E-03 0. -1.
         11   -1    0    0    0    0 -0.00000000000E+00 -0.00000000000E+00 -0.45593999997E+02  0.45594000000E+02  0.51100000000E-03 0.  1.
    9900012    2    1    2    0    0  0.32553485051E+02  0.22387193773E+01 -0.24257470841E+02  0.50528854103E+02  0.29999982532E+02 0.  0.
         12    1    1    2    0    0 -0.32553485051E+02 -0.22387193773E+01  0.24257470841E+02  0.40659145897E+02  0.00000000000E+00 0. -1.
         11    1    3    3    0    0  0.65286815291E+01  0.10272516195E+02 -0.13531554056E+02  0.18200308430E+02  0.51100000000E-03 0. -1.
        -11    1    3    3    0    0  0.37555381434E+01  0.35436513017E+01 -0.36886378795E+00  0.51766390689E+01  0.51100000000E-03 0.  1.
         12    1    3    3    0    0  0.22269265379E+02 -0.11577448120E+02 -0.10357052997E+02  0.27151906605E+02  0.00000000000E+00 0. -1.
</event>
<event>
 7    1  0.4520156E-012  0.5052888E+02  0.7816164E-02  0.1300439E+00
        -11   -1    0    0    0    0  0.00000000000E+00  0.00000000000E+00  0.45593999997E+02  0.45594000000E+02  0.51100000000E-03 0. -1.
         11   -1    0    0    0    0 -0.00000000000E+00 -0.00000000000E+00 -0.45593999997E+02  0.45594000000E+02  0.51100000000E-03 0.  1.
    9900012    2    1    2    0    0  0.18610037304E+02 -0.95770378634E+01  0.34858439627E+02  0.50528881024E+02  0.30000064360E+02 0.  0.
        -12    1    1    2    0    0 -0.18610037304E+02  0.95770378634E+01 -0.34858439627E+02  0.40659118976E+02  0.00000000000E+00 0.  1.
         11    1    3    3    0    0  0.12997407565E+02  0.36978084712E+01  0.84841631644E+01  0.15955795680E+02  0.51100000000E-03 0. -1.
        -11    1    3    3    0    0 -0.50972436597E+01 -0.33839146581E+01  0.25203522687E+01  0.66170195072E+01  0.51100000000E-03 0.  1.
         12    1    3    3    0    0  0.10709873398E+02 -0.98909316765E+01  0.23853924194E+02  0.27956065837E+02  0.00000000000E+00 0. -1.
</event>
<event>
 7    1  0.4520156E-012  0.5052891E+02  0.7816164E-02  0.1300439E+00
        -11   -1    0    0    0    0  0.00000000000E+00  0.00000000000E+00  0.45593999997E+02  0.45594000000E+02  0.51100000000E-03 0. -1.
         11   -1    0    0    0    0 -0.00000000000E+00 -0.00000000000E+00 -0.45593999997E+02  0.45594000000E+02  0.51100000000E-03 0.  1.
    9900012    2    1    2    0    0 -0.14824482630E+01  0.69543385569E+01  0.40032503280E+02  0.50528907579E+02  0.30000145076E+02 0.  0.
        -12    1    1    2    0    0  0.14824482630E+01 -0.69543385569E+01 -0.40032503280E+02  0.40659092421E+02  0.00000000000E+00 0.  1.
         11    1    3    3    0    0 -0.70975575766E+01  0.83330780503E+01  0.56557642073E+01  0.12320843412E+02  0.51100000000E-03 0. -1.
        -11    1    3    3    0    0  0.42764565977E+01  0.57529770689E+01  0.26696360495E+02  0.27642005899E+02  0.51100000000E-03 0.  1.
         12    1    3    3    0    0  0.13386527160E+01 -0.71317165623E+01  0.76803785778E+01  0.10566058268E+02  0.00000000000E+00 0. -1.
</event>
<event>
 7    1  0.4520156E-012  0.5052886E+02  0.7816164E-02  0.1300439E+00
        -11   -1    0    0    0    0  0.00000000000E+00  0.00000000000E+00  0.45593999997E+02  0.45594000000E+02  0.51100000000E-03 0. -1.
         11   -1    0    0    0    0 -0.00000000000E+00 -0.00000000000E+00 -0.45593999997E+02  0.45594000000E+02  0.51100000000E-03 0.  1.
    9900012    2    1    2    0    0 -0.31474676178E+02  0.54919674618E+01 -0.25146548354E+02  0.50528857839E+02  0.29999993888E+02 0.  0.
         12    1    1    2    0    0  0.31474676178E+02 -0.54919674618E+01  0.25146548354E+02  0.40659142161E+02  0.00000000000E+00 0. -1.
         11    1    3    3    0    0 -0.24506268661E+02  0.11325820552E+02 -0.19209965179E+02  0.33133882617E+02  0.51100000000E-03 0. -1.
        -11    1    3    3    0    0 -0.30976746436E+01  0.43026035325E+01 -0.32443163796E+01  0.62155912339E+01  0.51100000000E-03 0.  1.
         12    1    3    3    0    0 -0.38707328735E+01 -0.10136456623E+02 -0.26922667959E+01  0.11179383988E+02  0.00000000000E+00 0. -1.
</event>
<event>
 7    1  0.4520156E-012  0.5052887E+02  0.7816164E-02  0.1300439E+00
        -11   -1    0    0    0    0  0.00000000000E+00  0.00000000000E+00  0.45593999997E+02  0.45594000000E+02  0.51100000000E-03 0. -1.
         11   -1    0    0    0    0 -0.00000000000E+00 -0.00000000000E+00 -0.45593999997E+02  0.45594000000E+02  0.51100000000E-03 0.  1.
    9900012    2    1    2    0    0  0.26151367935E+02  0.25565580055E+02  0.17767158365E+02  0.50528870093E+02  0.30000031135E+02 0.  0.
        -12    1    1    2    0    0 -0.26151367935E+02 -0.25565580055E+02 -0.17767158365E+02  0.40659129907E+02  0.00000000000E+00 0.  1.
         11    1    3    3    0    0  0.50633921873E+01  0.34378979941E+01  0.46919292166E+01  0.77117626451E+01  0.51100000000E-03 0. -1.
        -11    1    3    3    0    0  0.20848873949E+02  0.25103511890E+02  0.35379062620E+01  0.32823446424E+02  0.51100000000E-03 0.  1.
         12    1    3    3    0    0  0.23910179851E+00 -0.29758298283E+01  0.95373228860E+01  0.99936610243E+01  0.00000000000E+00 0. -1.
</event>
<event>
 7    1  0.4520156E-012  0.5052886E+02  0.7816164E-02  0.1300439E+00
        -11   -1    0    0    0    0  0.00000000000E+00  0.00000000000E+00  0.45593999997E+02  0.45594000000E+02  0.51100000000E-03 0. -1.
         11   -1    0    0    0    0 -0.00000000000E+00 -0.00000000000E+00 -0.45593999997E+02  0.45594000000E+02  0.51100000000E-03 0.  1.
    9900012    2    1    2    0    0  0.17880491043E+02  0.98056679304E+01 -0.35175313186E+02  0.50528859069E+02  0.29999997627E+02 0.  0.
         12    1    1    2    0    0 -0.17880491043E+02 -0.98056679304E+01  0.35175313186E+02  0.40659140931E+02  0.00000000000E+00 0. -1.
         11    1    3    3    0    0  0.10609777202E+02  0.93560908151E+01 -0.83987955350E+01  0.16451248412E+02  0.51100000000E-03 0. -1.
        -11    1    3    3    0    0  0.59757700898E+01  0.95677727320E+01 -0.18644589696E+02  0.21791577006E+02  0.51100000000E-03 0.  1.
        -12    1    3    3    0    0  0.12949437517E+01 -0.91181956167E+01 -0.81319279548E+01  0.12286033651E+02  0.00000000000E+00 0.  1.
</event>
<event>
 7    1  0.4520156E-012  0.5052884E+02  0.7816164E-02  0.1300439E+00
        -11   -1    0    0    0    0  0.00000000000E+00  0.00000000000E+00  0.45593999997E+02  0.45594000000E+02  0.51100000000E-03 0. -1.
         11   -1    0    0    0    0 -0.00000000000E+00 -0.00000000000E+00 -0.45593999997E+02  0.45594000000E+02  0.51100000000E-03 0.  1.
    9900012    2    1    2    0    0 -0.15729117458E+02 -0.13090828580E+02  0.35133919697E+02  0.50528840611E+02  0.29999941520E+02 0.  0.
        -12    1    1    2    0    0  0.15729117458E+02  0.13090828580E+02 -0.35133919697E+02  0.40659159389E+02  0.00000000000E+00 0.  1.
         11    1    3    3    0    0 -0.63402593429E+01 -0.23894120542E+01  0.24770595561E+02  0.25680548732E+02  0.51100000000E-03 0. -1.
        -11    1    3    3    0    0  0.26638995429E+01  0.20201166380E+01 -0.15222327056E+01  0.36734758305E+01  0.51100000000E-03 0.  1.
        -12    1    3    3    0    0 -0.12052757658E+02 -0.12721533164E+02  0.11885556842E+02  0.21174816048E+02  0.00000000000E+00 0.  1.
</event>
<event>
 7    1  0.4520156E-012  0.5052886E+02  0.7816164E-02  0.1300439E+00
        -11   -1    0    0    0    0  0.00000000000E+00  0.00000000000E+00  0.45593999997E+02  0.45594000000E+02  0.51100000000E-03 0. -1.
         11   -1    0    0    0    0 -0.00000000000E+00 -0.00000000000E+00 -0.45593999997E+02  0.45594000000E+02  0.51100000000E-03 0.  1.
    9900012    2    1    2    0    0  0.20123500602E+02 -0.25405973842E+02 -0.24550905422E+02  0.50528859080E+02  0.29999997658E+02 0.  0.
         12    1    1    2    0    0 -0.20123500602E+02  0.25405973842E+02  0.24550905422E+02  0.40659140920E+02  0.00000000000E+00 0. -1.
         11    1    3    3    0    0  0.10919207863E+02 -0.77570151471E+01 -0.16562515841E+02  0.21300641201E+02  0.51100000000E-03 0. -1.
        -11    1    3    3    0    0  0.74184383633E+01 -0.95782499414E+01 -0.14362679622E+02  0.18789961838E+02  0.51100000000E-03 0.  1.
         12    1    3    3    0    0  0.17858543756E+01 -0.80707087536E+01  0.63742900407E+01  0.10438256040E+02  0.00000000000E+00 0. -1.
</event>
<event>
 7    1  0.4520156E-012  0.5052885E+02  0.7816164E-02  0.1300439E+00
        -11   -1    0    0    0    0  0.00000000000E+00  0.00000000000E+00  0.45593999997E+02  0.45594000000E+02  0.51100000000E-03 0. -1.
         11   -1    0    0    0    0 -0.00000000000E+00 -0.00000000000E+00 -0.45593999997E+02  0.45594000000E+02  0.51100000000E-03 0.  1.
    9900012    2    1    2    0    0  0.16834593896E+02 -0.52654666483E+01 -0.36633831174E+02  0.50528852479E+02  0.29999977595E+02 0.  0.
         12    1    1    2    0    0 -0.16834593896E+02  0.52654666483E+01  0.36633831174E+02  0.40659147521E+02  0.00000000000E+00 0. -1.
         11    1    3    3    0    0  0.78097742536E+01 -0.16172595020E+01 -0.45762230186E+01  0.91951030210E+01  0.51100000000E-03 0. -1.
        -11    1    3    3    0    0  0.15291054452E+02 -0.81023933017E+01 -0.16171241287E+02  0.23684893255E+02  0.51100000000E-03 0.  1.
         12    1    3    3    0    0 -0.62662348098E+01  0.44541861554E+01 -0.15886366868E+02  0.17648856203E+02  0.00000000000E+00 0. -1.
</event>
<event>
 7    1  0.4520156E-012  0.5052886E+02  0.7816164E-02  0.1300439E+00
        -11   -1    0    0    0    0  0.00000000000E+00  0.00000000000E+00  0.45593999997E+02  0.45594000000E+02  0.51100000000E-03 0. -1.
         11   -1    0    0    0    0 -0.00000000000E+00 -0.00000000000E+00 -0.45593999997E+02  0.45594000000E+02  0.51100000000E-03 0.  1.
    9900012    2    1    2    0    0  0.71582945958E+01 -0.27024597671E+01 -0.39932709077E+02  0.50528859274E+02  0.29999998250E+02 0.  0.
         12    1    1    2    0    0 -0.71582945958E+01  0.27024597671E+01  0.39932709077E+02  0.40659140726E+02  0.00000000000E+00 0. -1.
         11    1    3    3    0    0  0.11215477764E+02  0.22242623297E+01 -0.30943225372E+01  0.11845214925E+02  0.51100000000E-03 0. -1.
        -11    1    3    3    0    0 -0.51727366209E+01  0.16023230192E-01 -0.89384501084E+01  0.10327310952E+02  0.51100000000E-03 0.  1.
        -12    1    3    3    0    0  0.11155534524E+01 -0.49427453270E+01 -0.27899936431E+02  0.28356333398E+02  0.00000000000E+00 0.  1.
</event>
<event>
 7    1  0.4520156E-012  0.5052886E+02  0.7816164E-02  0.1300439E+00
        -11   -1    0    0    0    0  0.00000000000E+00  0.00000000000E+00  0.45593999997E+02  0.45594000000E+02  0.51100000000E-03 0. -1.
         11   -1    0    0    0    0 -0.00000000000E+00 -0.00000000000E+00 -0.45593999997E+02  0.45594000000E+02  0.51100000000E-03 0.  1.
    9900012    2    1    2    0    0 -0.32557494251E+02 -0.13914508361E+02  0.19989032285E+02  0.50528863432E+02  0.30000010887E+02 0.  0.
        -12    1    1    2    0    0  0.32557494251E+02  0.13914508361E+02 -0.19989032285E+02  0.40659136568E+02  0.00000000000E+00 0.  1.
         11    1    3    3    0    0 -0.74381152718E+01  0.73947594809E+00 -0.31373840206E+01  0.81065135680E+01  0.51100000000E-03 0.  1.
        -11    1    3    3    0    0 -0.10840062457E+02 -0.56365047189E+00 -0.11663543608E+01  0.10917190054E+02  0.51100000000E-03 0. -1.
        -12    1    3    3    0    0 -0.14279316522E+02 -0.14090333837E+02  0.24292770666E+02  0.31505159809E+02  0.00000000000E+00 0.  1.
</event>
<event>
 7    1  0.4520156E-012  0.5052887E+02  0.7816164E-02  0.1300439E+00
        -11   -1    0    0    0    0  0.00000000000E+00  0.00000000000E+00  0.45593999997E+02  0.45594000000E+02  0.51100000000E-03 0.  1.
         11   -1    0    0    0    0 -0.00000000000E+00 -0.00000000000E+00 -0.45593999997E+02  0.45594000000E+02  0.51100000000E-03 0. -1.
    9900012    2    1    2    0    0  0.37733871864E+02  0.14501010916E+02  0.43635387791E+01  0.50528869733E+02  0.30000030040E+02 0.  0.
        -12    1    1    2    0    0 -0.37733871864E+02 -0.14501010916E+02 -0.43635387791E+01  0.40659130267E+02  0.00000000000E+00 0.  1.
         11    1    3    3    0    0  0.28709387784E+02  0.18441646553E+02 -0.70507767523E+01  0.34843029828E+02  0.51100000000E-03 0. -1.
        -11    1    3    3    0    0  0.26438946271E+01 -0.34774689201E+00  0.60405854278E+01  0.66030128935E+01  0.51100000000E-03 0.  1.
        -12    1    3    3    0    0  0.63805894526E+01 -0.35928887451E+01  0.53737301036E+01  0.90828270116E+01  0.00000000000E+00 0.  1.
</event>
<event>
 7    1  0.4520156E-012  0.5052886E+02  0.7816164E-02  0.1300439E+00
        -11   -1    0    0    0    0  0.00000000000E+00  0.00000000000E+00  0.45593999997E+02  0.45594000000E+02  0.51100000000E-03 0. -1.
         11   -1    0    0    0    0 -0.00000000000E+00 -0.00000000000E+00 -0.45593999997E+02  0.45594000000E+02  0.51100000000E-03 0.  1.
    9900012    2    1    2    0    0  0.32665522230E+02 -0.37953012351E+01  0.23910769536E+02  0.50528861374E+02  0.30000004631E+02 0.  0.
        -12    1    1    2    0    0 -0.32665522230E+02  0.37953012351E+01 -0.23910769536E+02  0.40659138626E+02  0.00000000000E+00 0.  1.
         11    1    3    3    0    0  0.32623469079E+01 -0.34536339160E+00  0.98958089081E+01  0.10425412099E+02  0.51100000000E-03 0. -1.
        -11    1    3    3    0    0  0.99562011724E+01  0.49412516670E+01  0.15269189990E+02  0.18886240310E+02  0.51100000000E-03 0.  1.
        -12    1    3    3    0    0  0.19446974150E+02 -0.83911895105E+01 -0.12542293618E+01  0.21217208965E+02  0.00000000000E+00 0.  1.
</event>
<event>
 7    1  0.4520156E-012  0.5052886E+02  0.7816164E-02  0.1300439E+00
        -11   -1    0    0    0    0  0.00000000000E+00  0.00000000000E+00  0.45593999997E+02  0.45594000000E+02  0.51100000000E-03 0. -1.
         11   -1    0    0    0    0 -0.00000000000E+00 -0.00000000000E+00 -0.45593999997E+02  0.45594000000E+02  0.51100000000E-03 0.  1.
    9900012    2    1    2    0    0  0.10796723978E+02  0.13646531992E+01 -0.39175683226E+02  0.50528859782E+02  0.29999999794E+02 0.  0.
         12    1    1    2    0    0 -0.10796723978E+02 -0.13646531992E+01  0.39175683226E+02  0.40659140218E+02  0.00000000000E+00 0. -1.
         11    1    3    3    0    0  0.75486394165E+01 -0.51342460216E+01 -0.53672950503E+01  0.10590103667E+02  0.51100000000E-03 0. -1.
        -11    1    3    3    0    0 -0.76882947070E+01 -0.71330171271E+00 -0.16630222834E+02  0.18335293470E+02  0.51100000000E-03 0.  1.
         12    1    3    3    0    0  0.10936379268E+02  0.72122009335E+01 -0.17178165342E+02  0.21603462646E+02  0.00000000000E+00 0. -1.
</event>
<event>
 7    1  0.4520156E-012  0.5052886E+02  0.7816164E-02  0.1300439E+00
        -11   -1    0    0    0    0  0.00000000000E+00  0.00000000000E+00  0.45593999997E+02  0.45594000000E+02  0.51100000000E-03 0. -1.
         11   -1    0    0    0    0 -0.00000000000E+00 -0.00000000000E+00 -0.45593999997E+02  0.45594000000E+02  0.51100000000E-03 0.  1.
    9900012    2    1    2    0    0 -0.30482951534E+02 -0.20425350530E+02  0.17514567612E+02  0.50528863793E+02  0.30000011984E+02 0.  0.
        -12    1    1    2    0    0  0.30482951534E+02  0.20425350530E+02 -0.17514567612E+02  0.40659136207E+02  0.00000000000E+00 0.  1.
         11    1    3    3    0    0 -0.16108169089E+02 -0.24188253281E+02  0.76392156626E+01  0.30048333138E+02  0.51100000000E-03 0. -1.
        -11    1    3    3    0    0 -0.12360561266E+02 -0.11126551741E+01  0.52898065740E+01  0.13490868401E+02  0.51100000000E-03 0.  1.
        -12    1    3    3    0    0 -0.20142211779E+01  0.48755579244E+01  0.45855453755E+01  0.69896622535E+01  0.00000000000E+00 0.  1.
</event>
<event>
 7    1  0.4520156E-012  0.5052884E+02  0.7816164E-02  0.1300439E+00
        -11   -1    0    0    0    0  0.00000000000E+00  0.00000000000E+00  0.45593999997E+02  0.45594000000E+02  0.51100000000E-03 0. -1.
         11   -1    0    0    0    0 -0.00000000000E+00 -0.00000000000E+00 -0.45593999997E+02  0.45594000000E+02  0.51100000000E-03 0.  1.
    9900012    2    1    2    0    0  0.23139290579E+02 -0.32942763957E+02 -0.57021781763E+01  0.50528839881E+02  0.29999939304E+02 0.  0.
        -12    1    1    2    0    0 -0.23139290579E+02  0.32942763957E+02  0.57021781763E+01  0.40659160119E+02  0.00000000000E+00 0.  1.
         11    1    3    3    0    0 -0.25261884838E+01 -0.59678166712E+01 -0.74569055642E+01  0.98793676382E+01  0.51100000000E-03 0. -1.
        -11    1    3    3    0    0  0.44014705881E+00 -0.69353254648E+01 -0.38569612136E+01  0.79478688214E+01  0.51100000000E-03 0.  1.
        -12    1    3    3    0    0  0.25225332003E+02 -0.20039621821E+02  0.56116886015E+01  0.32701603422E+02  0.00000000000E+00 0.  1.
</event>
<event>
 7    1  0.4520156E-012  0.5052886E+02  0.7816164E-02  0.1300439E+00
        -11   -1    0    0    0    0  0.00000000000E+00  0.00000000000E+00  0.45593999997E+02  0.45594000000E+02  0.51100000000E-03 0. -1.
         11   -1    0    0    0    0 -0.00000000000E+00 -0.00000000000E+00 -0.45593999997E+02  0.45594000000E+02  0.51100000000E-03 0.  1.
    9900012    2    1    2    0    0  0.28115018220E+02 -0.67917276443E+00  0.29364094773E+02  0.50528860967E+02  0.30000003394E+02 0.  0.
        -12    1    1    2    0    0 -0.28115018220E+02  0.67917276443E+00 -0.29364094773E+02  0.40659139033E+02  0.00000000000E+00 0.  1.
         11    1    3    3    0    0  0.28492460709E+00  0.69046914890E+00  0.15553054520E+02  0.15570980536E+02  0.51100000000E-03 0. -1.
        -11    1    3    3    0    0  0.35743058721E+01  0.10319230032E+01  0.95035804499E+01  0.10205810560E+02  0.51100000000E-03 0.  1.
        -12    1    3    3    0    0  0.24255787740E+02 -0.24015649165E+01  0.43074598025E+01  0.24752069871E+02  0.00000000000E+00 0.  1.
</event>
<event>
 7    1  0.4520156E-012  0.5052887E+02  0.7816164E-02  0.1300439E+00
        -11   -1    0    0    0    0  0.00000000000E+00  0.00000000000E+00  0.45593999997E+02  0.45594000000E+02  0.51100000000E-03 0. -1.
         11   -1    0    0    0    0 -0.00000000000E+00 -0.00000000000E+00 -0.45593999997E+02  0.45594000000E+02  0.51100000000E-03 0.  1.
    9900012    2    1    2    0    0  0.22104612975E+02 -0.15328708944E+02 -0.30489047106E+02  0.50528865404E+02  0.30000016882E+02 0.  0.
         12    1    1    2    0    0 -0.22104612975E+02  0.15328708944E+02  0.30489047106E+02  0.40659134596E+02  0.00000000000E+00 0. -1.
         11    1    3    3    0    0  0.13659105318E+02 -0.14209651900E+02 -0.14227678661E+02  0.24308685805E+02  0.51100000000E-03 0. -1.
        -11    1    3    3    0    0  0.97234478759E+01 -0.76189757109E+01 -0.53637772344E+01  0.13467157679E+02  0.51100000000E-03 0.  1.
         12    1    3    3    0    0 -0.12779402194E+01  0.64999186671E+01 -0.10897591211E+02  0.12753021919E+02  0.00000000000E+00 0. -1.
</event>
<event>
 7    1  0.4520156E-012  0.5052886E+02  0.7816164E-02  0.1300439E+00
        -11   -1    0    0    0    0  0.00000000000E+00  0.00000000000E+00  0.45593999997E+02  0.45594000000E+02  0.51100000000E-03 0. -1.
         11   -1    0    0    0    0 -0.00000000000E+00 -0.00000000000E+00 -0.45593999997E+02  0.45594000000E+02  0.51100000000E-03 0.  1.
    9900012    2    1    2    0    0 -0.25944264729E+02 -0.16581041097E+01  0.31261978712E+02  0.50528862103E+02  0.30000006849E+02 0.  0.
        -12    1    1    2    0    0  0.25944264729E+02  0.16581041097E+01 -0.31261978712E+02  0.40659137897E+02  0.00000000000E+00 0.  1.
         11    1    3    3    0    0 -0.23352687745E+02 -0.14767654082E+01  0.90480122528E+01  0.25087753725E+02  0.51100000000E-03 0. -1.
        -11    1    3    3    0    0 -0.51475257386E+01  0.21661212831E+01  0.39255741309E+01  0.68263632456E+01  0.51100000000E-03 0.  1.
        -12    1    3    3    0    0  0.25559487546E+01 -0.23474599846E+01  0.18288392328E+02  0.18614745133E+02  0.00000000000E+00 0.  1.
</event>
<event>
 7    1  0.4520156E-012  0.5052886E+02  0.7816164E-02  0.1300439E+00
        -11   -1    0    0    0    0  0.00000000000E+00  0.00000000000E+00  0.45593999997E+02  0.45594000000E+02  0.51100000000E-03 0.  1.
         11   -1    0    0    0    0 -0.00000000000E+00 -0.00000000000E+00 -0.45593999997E+02  0.45594000000E+02  0.51100000000E-03 0. -1.
    9900012    2    1    2    0    0 -0.22594284784E+01  0.40450183600E+02 -0.34413560426E+01  0.50528864474E+02  0.30000014054E+02 0.  0.
         12    1    1    2    0    0  0.22594284784E+01 -0.40450183600E+02  0.34413560426E+01  0.40659135526E+02  0.00000000000E+00 0. -1.
         11    1    3    3    0    0  0.42894551464E+01  0.77208498161E+01  0.81295633224E+01  0.12004197075E+02  0.51100000000E-03 0.  1.
        -11    1    3    3    0    0  0.49176826286E+01  0.10039435878E+02 -0.19808873560E+01  0.11353316263E+02  0.51100000000E-03 0. -1.
         12    1    3    3    0    0 -0.11466566253E+02  0.22689897906E+02 -0.95900320090E+01  0.27171351136E+02  0.00000000000E+00 0. -1.
</event>
<event>
 7    1  0.4520156E-012  0.5052886E+02  0.7816164E-02  0.1300439E+00
        -11   -1    0    0    0    0  0.00000000000E+00  0.00000000000E+00  0.45593999997E+02  0.45594000000E+02  0.51100000000E-03 0. -1.
         11   -1    0    0    0    0 -0.00000000000E+00 -0.00000000000E+00 -0.45593999997E+02  0.45594000000E+02  0.51100000000E-03 0.  1.
    9900012    2    1    2    0    0  0.31352011796E+02 -0.66565773676E+01 -0.25018133730E+02  0.50528859807E+02  0.29999999870E+02 0.  0.
         12    1    1    2    0    0 -0.31352011796E+02  0.66565773676E+01  0.25018133730E+02  0.40659140193E+02  0.00000000000E+00 0. -1.
         11    1    3    3    0    0  0.17897079083E+02 -0.83347416573E+01 -0.10654877855E+02  0.22434343774E+02  0.51100000000E-03 0. -1.
        -11    1    3    3    0    0  0.70057535489E+01 -0.90795145559E+01 -0.53845299583E+01  0.12669306630E+02  0.51100000000E-03 0.  1.
        -12    1    3    3    0    0  0.64491791636E+01  0.10757678846E+02 -0.89787259173E+01  0.15425209403E+02  0.00000000000E+00 0.  1.
</event>
<event>
 7    1  0.4520156E-012  0.5052889E+02  0.7816164E-02  0.1300439E+00
        -11   -1    0    0    0    0  0.00000000000E+00  0.00000000000E+00  0.45593999997E+02  0.45594000000E+02  0.51100000000E-03 0.  1.
         11   -1    0    0    0    0 -0.00000000000E+00 -0.00000000000E+00 -0.45593999997E+02  0.45594000000E+02  0.51100000000E-03 0. -1.
    9900012    2    1    2    0    0 -0.28386213664E+02  0.23885842064E+02  0.16638889554E+02  0.50528890038E+02  0.30000091760E+02 0.  0.
        -12    1    1    2    0    0  0.28386213664E+02 -0.23885842064E+02 -0.16638889554E+02  0.40659109962E+02  0.00000000000E+00 0.  1.
         11    1    3    3    0    0 -0.27122637469E+02  0.12436393414E+02  0.14197836068E+02  0.33043605943E+02  0.51100000000E-03 0. -1.
        -11    1    3    3    0    0 -0.14175977974E+01  0.42522393908E+01 -0.52819083755E+01  0.69274583867E+01  0.51100000000E-03 0.  1.
        -12    1    3    3    0    0  0.15402160259E+00  0.71972092600E+01  0.77229618616E+01  0.10557825709E+02  0.00000000000E+00 0.  1.
</event>
<event>
 7    1  0.4520156E-012  0.5052886E+02  0.7816164E-02  0.1300439E+00
        -11   -1    0    0    0    0  0.00000000000E+00  0.00000000000E+00  0.45593999997E+02  0.45594000000E+02  0.51100000000E-03 0. -1.
         11   -1    0    0    0    0 -0.00000000000E+00 -0.00000000000E+00 -0.45593999997E+02  0.45594000000E+02  0.51100000000E-03 0.  1.
    9900012    2    1    2    0    0 -0.38412068389E+02 -0.78440701432E+01 -0.10777262088E+02  0.50528858193E+02  0.29999994964E+02 0.  0.
         12    1    1    2    0    0  0.38412068389E+02  0.78440701432E+01  0.10777262088E+02  0.40659141807E+02  0.00000000000E+00 0. -1.
         11    1    3    3    0    0 -0.99409115945E+01 -0.66810116398E-01  0.11143144371E+00  0.99417606161E+01  0.51100000000E-03 0. -1.
        -11    1    3    3    0    0 -0.30432602404E+02 -0.11354801384E+02 -0.14084933468E+02  0.35404239218E+02  0.51100000000E-03 0.  1.
         12    1    3    3    0    0  0.19614456093E+01  0.35775413571E+01  0.31962399360E+01  0.51828583589E+01  0.00000000000E+00 0. -1.
</event>
<event>
 7    1  0.4520156E-012  0.5052887E+02  0.7816164E-02  0.1300439E+00
        -11   -1    0    0    0    0  0.00000000000E+00  0.00000000000E+00  0.45593999997E+02  0.45594000000E+02  0.51100000000E-03 0. -1.
         11   -1    0    0    0    0 -0.00000000000E+00 -0.00000000000E+00 -0.45593999997E+02  0.45594000000E+02  0.51100000000E-03 0.  1.
    9900012    2    1    2    0    0  0.21550127013E+02  0.18563992867E+02 -0.29054006442E+02  0.50528867006E+02  0.30000021753E+02 0.  0.
         12    1    1    2    0    0 -0.21550127013E+02 -0.18563992867E+02  0.29054006442E+02  0.40659132994E+02  0.00000000000E+00 0. -1.
         11    1    3    3    0    0 -0.48092052477E+01  0.30474280482E+01 -0.17966914356E+01  0.59702071320E+01  0.51100000000E-03 0. -1.
        -11    1    3    3    0    0  0.12409549112E+01 -0.20302568434E+01  0.12674229862E+01  0.26959735215E+01  0.51100000000E-03 0.  1.
        -12    1    3    3    0    0  0.25118377350E+02  0.17546821662E+02 -0.28524737993E+02  0.41862686353E+02  0.00000000000E+00 0.  1.
</event>
<event>
 7    1  0.4520156E-012  0.5052886E+02  0.7816164E-02  0.1300439E+00
        -11   -1    0    0    0    0  0.00000000000E+00  0.00000000000E+00  0.45593999997E+02  0.45594000000E+02  0.51100000000E-03 0.  1.
         11   -1    0    0    0    0 -0.00000000000E+00 -0.00000000000E+00 -0.45593999997E+02  0.45594000000E+02  0.51100000000E-03 0. -1.
    9900012    2    1    2    0    0 -0.38689566710E+02 -0.90925257260E+01  0.85795688288E+01  0.50528860836E+02  0.30000002998E+02 0.  0.
        -12    1    1    2    0    0  0.38689566710E+02  0.90925257260E+01 -0.85795688288E+01  0.40659139164E+02  0.00000000000E+00 0.  1.
         11    1    3    3    0    0 -0.33889397955E+01  0.20283083742E+01  0.56563668176E+01  0.68987994343E+01  0.51100000000E-03 0. -1.
        -11    1    3    3    0    0  0.20670769129E+01  0.22453867522E+01  0.24940966791E+01  0.39414574889E+01  0.51100000000E-03 0.  1.
         12    1    3    3    0    0 -0.37367703827E+02 -0.13366220852E+02  0.42910533217E+00  0.39688603913E+02  0.00000000000E+00 0. -1.
</event>
<event>
 7    1  0.4520156E-012  0.5052886E+02  0.7816164E-02  0.1300439E+00
        -11   -1    0    0    0    0  0.00000000000E+00  0.00000000000E+00  0.45593999997E+02  0.45594000000E+02  0.51100000000E-03 0. -1.
         11   -1    0    0    0    0 -0.00000000000E+00 -0.00000000000E+00 -0.45593999997E+02  0.45594000000E+02  0.51100000000E-03 0.  1.
    9900012    2    1    2    0    0 -0.84547254349E+01 -0.29622052088E+02 -0.26537097331E+02  0.50528857278E+02  0.29999992183E+02 0.  0.
         12    1    1    2    0    0  0.84547254349E+01  0.29622052088E+02  0.26537097331E+02  0.40659142722E+02  0.00000000000E+00 0. -1.
         11    1    3    3    0    0 -0.13553962074E+02 -0.13250036438E+02 -0.14803844898E+02  0.24050513041E+02  0.51100000000E-03 0. -1.
        -11    1    3    3    0    0 -0.57775103557E+01 -0.82214908401E+01 -0.38150631846E+01  0.10748360103E+02  0.51100000000E-03 0.  1.
         12    1    3    3    0    0  0.10876746995E+02 -0.81505248100E+01 -0.79181892488E+01  0.15729984134E+02  0.00000000000E+00 0. -1.
</event>
<event>
 7    1  0.4520156E-012  0.5052886E+02  0.7816164E-02  0.1300439E+00
        -11   -1    0    0    0    0  0.00000000000E+00  0.00000000000E+00  0.45593999997E+02  0.45594000000E+02  0.51100000000E-03 0. -1.
         11   -1    0    0    0    0 -0.00000000000E+00 -0.00000000000E+00 -0.45593999997E+02  0.45594000000E+02  0.51100000000E-03 0.  1.
    9900012    2    1    2    0    0 -0.31047910856E+02  0.21729910203E+02 -0.14731043019E+02  0.50528863334E+02  0.30000010591E+02 0.  0.
         12    1    1    2    0    0  0.31047910856E+02 -0.21729910203E+02  0.14731043019E+02  0.40659136666E+02  0.00000000000E+00 0. -1.
         11    1    3    3    0    0 -0.12310462781E+02  0.36938510218E+01 -0.11198306984E+02  0.17046821077E+02  0.51100000000E-03 0.  1.
        -11    1    3    3    0    0  0.38507064356E+00  0.10975644322E+01 -0.75354076518E+01  0.76246505378E+01  0.51100000000E-03 0. -1.
         12    1    3    3    0    0 -0.19122518718E+02  0.16938494749E+02  0.40026716161E+01  0.25857391720E+02  0.00000000000E+00 0. -1.
</event>
<event>
 7    1  0.4520156E-012  0.5052886E+02  0.7816164E-02  0.1300439E+00
        -11   -1    0    0    0    0  0.00000000000E+00  0.00000000000E+00  0.45593999997E+02  0.45594000000E+02  0.51100000000E-03 0. -1.
         11   -1    0    0    0    0 -0.00000000000E+00 -0.00000000000E+00 -0.45593999997E+02  0.45594000000E+02  0.51100000000E-03 0.  1.
    9900012    2    1    2    0    0  0.29381768180E+02  0.27925214153E+01 -0.27965678276E+02  0.50528860330E+02  0.30000001460E+02 0.  0.
         12    1    1    2    0    0 -0.29381768180E+02 -0.27925214153E+01  0.27965678276E+02  0.40659139670E+02  0.00000000000E+00 0. -1.
         11    1    3    3    0    0  0.24291968880E+01  0.93028075685E+01 -0.25192293490E+01  0.99393029409E+01  0.51100000000E-03 0. -1.
        -11    1    3    3    0    0  0.20041626208E+01  0.36343551030E+01 -0.11231378882E+01  0.42996097267E+01  0.51100000000E-03 0.  1.
         12    1    3    3    0    0  0.24948408672E+02 -0.10144641256E+02 -0.24323311039E+02  0.36289947663E+02  0.00000000000E+00 0. -1.
</event>
<event>
 7    1  0.4520156E-012  0.5052885E+02  0.7816164E-02  0.1300439E+00
        -11   -1    0    0    0    0  0.00000000000E+00  0.00000000000E+00  0.45593999997E+02  0.45594000000E+02  0.51100000000E-03 0. -1.
         11   -1    0    0    0    0 -0.00000000000E+00 -0.00000000000E+00 -0.45593999997E+02  0.45594000000E+02  0.51100000000E-03 0.  1.
    9900012    2    1    2    0    0  0.77239975551E+01 -0.15902276122E+02 -0.36614530707E+02  0.50528851177E+02  0.29999973639E+02 0.  0.
         12    1    1    2    0    0 -0.77239975551E+01  0.15902276122E+02  0.36614530707E+02  0.40659148823E+02  0.00000000000E+00 0. -1.
         11    1    3    3    0    0  0.62706968260E+01  0.31924691785E+01 -0.62415724749E+01  0.94058878029E+01  0.51100000000E-03 0.  1.
        -11    1    3    3    0    0  0.82931080752E+01 -0.49175546232E+01 -0.40606258602E+01  0.10461676140E+02  0.51100000000E-03 0. -1.
         12    1    3    3    0    0 -0.68398073461E+01 -0.14177190678E+02 -0.26312332372E+02  0.30661287235E+02  0.00000000000E+00 0. -1.
</event>
<event>
 7    1  0.4520156E-012  0.5052885E+02  0.7816164E-02  0.1300439E+00
        -11   -1    0    0    0    0  0.00000000000E+00  0.00000000000E+00  0.45593999997E+02  0.45594000000E+02  0.51100000000E-03 0. -1.
         11   -1    0    0    0    0 -0.00000000000E+00 -0.00000000000E+00 -0.45593999997E+02  0.45594000000E+02  0.51100000000E-03 0.  1.
    9900012    2    1    2    0    0  0.13263831184E+02  0.21874711980E+02 -0.31602758961E+02  0.50528848314E+02  0.29999964935E+02 0.  0.
         12    1    1    2    0    0 -0.13263831184E+02 -0.21874711980E+02  0.31602758961E+02  0.40659151686E+02  0.00000000000E+00 0. -1.
         11    1    3    3    0    0  0.25214904786E+00 -0.14881506366E+01  0.24218629417E+01  0.28536979218E+01  0.51100000000E-03 0. -1.
        -11    1    3    3    0    0 -0.10671926843E+01  0.58590947723E+01 -0.20739022513E+02  0.21577185795E+02  0.51100000000E-03 0.  1.
        -12    1    3    3    0    0  0.14078874820E+02  0.17503767844E+02 -0.13285599390E+02  0.26097964597E+02  0.00000000000E+00 0.  1.
</event>
<event>
 7    1  0.4520156E-012  0.5052887E+02  0.7816164E-02  0.1300439E+00
        -11   -1    0    0    0    0  0.00000000000E+00  0.00000000000E+00  0.45593999997E+02  0.45594000000E+02  0.51100000000E-03 0. -1.
         11   -1    0    0    0    0 -0.00000000000E+00 -0.00000000000E+00 -0.45593999997E+02  0.45594000000E+02  0.51100000000E-03 0.  1.
    9900012    2    1    2    0    0  0.16015138820E+02 -0.25022327113E+02 -0.27759025879E+02  0.50528867652E+02  0.30000023714E+02 0.  0.
         12    1    1    2    0    0 -0.16015138820E+02  0.25022327113E+02  0.27759025879E+02  0.40659132348E+02  0.00000000000E+00 0. -1.
         11    1    3    3    0    0 -0.40462853770E+01 -0.72213220991E+01  0.13264344403E+01  0.83832778074E+01  0.51100000000E-03 0. -1.
        -11    1    3    3    0    0  0.26759154019E+01 -0.10648211389E+02 -0.64971311297E+01  0.12757650340E+02  0.51100000000E-03 0.  1.
         12    1    3    3    0    0  0.17385508795E+02 -0.71527936247E+01 -0.22588329189E+02  0.29387939504E+02  0.00000000000E+00 0. -1.
</event>
<event>
 7    1  0.4520156E-012  0.5052886E+02  0.7816164E-02  0.1300439E+00
        -11   -1    0    0    0    0  0.00000000000E+00  0.00000000000E+00  0.45593999997E+02  0.45594000000E+02  0.51100000000E-03 0. -1.
         11   -1    0    0    0    0 -0.00000000000E+00 -0.00000000000E+00 -0.45593999997E+02  0.45594000000E+02  0.51100000000E-03 0.  1.
    9900012    2    1    2    0    0  0.15215011327E+02 -0.27457137024E+01 -0.37604921477E+02  0.50528860404E+02  0.30000001683E+02 0.  0.
         12    1    1    2    0    0 -0.15215011327E+02  0.27457137024E+01  0.37604921477E+02  0.40659139596E+02  0.00000000000E+00 0. -1.
         11    1    3    3    0    0  0.11128096203E+02  0.85613714812E+01 -0.15459037033E+02  0.20883329069E+02  0.51100000000E-03 0. -1.
        -11    1    3    3    0    0  0.54633786993E+01  0.22448386959E+01 -0.49383090585E+01  0.76990067023E+01  0.51100000000E-03 0.  1.
         12    1    3    3    0    0 -0.13764635753E+01 -0.13551923880E+02 -0.17207575385E+02  0.21946524632E+02  0.00000000000E+00 0. -1.
</event>
<event>
 7    1  0.4520156E-012  0.5052886E+02  0.7816164E-02  0.1300439E+00
        -11   -1    0    0    0    0  0.00000000000E+00  0.00000000000E+00  0.45593999997E+02  0.45594000000E+02  0.51100000000E-03 0. -1.
         11   -1    0    0    0    0 -0.00000000000E+00 -0.00000000000E+00 -0.45593999997E+02  0.45594000000E+02  0.51100000000E-03 0.  1.
    9900012    2    1    2    0    0 -0.13534983203E+02  0.27310341133E+01  0.38242793985E+02  0.50528860690E+02  0.30000002554E+02 0.  0.
        -12    1    1    2    0    0  0.13534983203E+02 -0.27310341133E+01 -0.38242793985E+02  0.40659139310E+02  0.00000000000E+00 0.  1.
         11    1    3    3    0    0 -0.20608818956E+02  0.16278728914E+01  0.23315907000E+02  0.31160951661E+02  0.51100000000E-03 0. -1.
        -11    1    3    3    0    0 -0.10201941147E+01 -0.18962153365E+01  0.80457718780E+01  0.83289179374E+01  0.51100000000E-03 0.  1.
        -12    1    3    3    0    0  0.80940298669E+01  0.29993765584E+01  0.68811151063E+01  0.11038991092E+02  0.00000000000E+00 0.  1.
</event>
<event>
 7    1  0.4520156E-012  0.5052886E+02  0.7816164E-02  0.1300439E+00
        -11   -1    0    0    0    0  0.00000000000E+00  0.00000000000E+00  0.45593999997E+02  0.45594000000E+02  0.51100000000E-03 0. -1.
         11   -1    0    0    0    0 -0.00000000000E+00 -0.00000000000E+00 -0.45593999997E+02  0.45594000000E+02  0.51100000000E-03 0.  1.
    9900012    2    1    2    0    0  0.55590222247E+01  0.71098013924E+01 -0.39644840461E+02  0.50528863522E+02  0.30000011163E+02 0.  0.
         12    1    1    2    0    0 -0.55590222247E+01 -0.71098013924E+01  0.39644840461E+02  0.40659136478E+02  0.00000000000E+00 0. -1.
         11    1    3    3    0    0  0.54250223017E+01  0.40303183983E+01 -0.10250385302E+02  0.12277814645E+02  0.51100000000E-03 0. -1.
        -11    1    3    3    0    0 -0.96531612873E+01  0.55204943512E+01 -0.24775810043E+02  0.27156953884E+02  0.51100000000E-03 0.  1.
         12    1    3    3    0    0  0.97871612104E+01 -0.24410113571E+01 -0.46186451157E+01  0.11094094993E+02  0.00000000000E+00 0. -1.
</event>
<event>
 7    1  0.4520156E-012  0.5052886E+02  0.7816164E-02  0.1300439E+00
        -11   -1    0    0    0    0  0.00000000000E+00  0.00000000000E+00  0.45593999997E+02  0.45594000000E+02  0.51100000000E-03 0. -1.
         11   -1    0    0    0    0 -0.00000000000E+00 -0.00000000000E+00 -0.45593999997E+02  0.45594000000E+02  0.51100000000E-03 0.  1.
    9900012    2    1    2    0    0 -0.15429406704E+02  0.11662974185E+02  0.35764145035E+02  0.50528860459E+02  0.30000001852E+02 0.  0.
        -12    1    1    2    0    0  0.15429406704E+02 -0.11662974185E+02 -0.35764145035E+02  0.40659139541E+02  0.00000000000E+00 0.  1.
         11    1    3    3    0    0 -0.88799721460E+01  0.12376161480E+02  0.29232817199E+02  0.32963326287E+02  0.51100000000E-03 0. -1.
        -11    1    3    3    0    0  0.73947104616E+00 -0.32804246101E+01  0.88745497340E+01  0.94902916864E+01  0.51100000000E-03 0.  1.
         12    1    3    3    0    0 -0.72889056046E+01  0.25672373152E+01 -0.23432218973E+01  0.80752424858E+01  0.00000000000E+00 0. -1.
</event>
<event>
 7    1  0.4520156E-012  0.5052883E+02  0.7816164E-02  0.1300439E+00
        -11   -1    0    0    0    0  0.00000000000E+00  0.00000000000E+00  0.45593999997E+02  0.45594000000E+02  0.51100000000E-03 0. -1.
         11   -1    0    0    0    0 -0.00000000000E+00 -0.00000000000E+00 -0.45593999997E+02  0.45594000000E+02  0.51100000000E-03 0.  1.
    9900012    2    1    2    0    0 -0.74198866383E+01 -0.13709596943E+01 -0.39952898031E+02  0.50528827489E+02  0.29999901636E+02 0.  0.
         12    1    1    2    0    0  0.74198866383E+01  0.13709596943E+01  0.39952898031E+02  0.40659172511E+02  0.00000000000E+00 0. -1.
         11    1    3    3    0    0 -0.53345427592E+01 -0.20515427580E+01 -0.57016863785E+01  0.80731283873E+01  0.51100000000E-03 0.  1.
        -11    1    3    3    0    0 -0.10281603524E+02 -0.78116551144E+01 -0.21509484056E+02  0.25087670901E+02  0.51100000000E-03 0. -1.
         12    1    3    3    0    0  0.81962596447E+01  0.84922381780E+01 -0.12741727597E+02  0.17368028201E+02  0.00000000000E+00 0. -1.
</event>
<event>
 7    1  0.4520156E-012  0.5052878E+02  0.7816164E-02  0.1300439E+00
        -11   -1    0    0    0    0  0.00000000000E+00  0.00000000000E+00  0.45593999997E+02  0.45594000000E+02  0.51100000000E-03 0. -1.
         11   -1    0    0    0    0 -0.00000000000E+00 -0.00000000000E+00 -0.45593999997E+02  0.45594000000E+02  0.51100000000E-03 0.  1.
    9900012    2    1    2    0    0 -0.18254594485E+01  0.18131900263E+02 -0.36346584566E+02  0.50528778181E+02  0.29999751757E+02 0.  0.
         12    1    1    2    0    0  0.18254594485E+01 -0.18131900263E+02  0.36346584566E+02  0.40659221819E+02  0.00000000000E+00 0. -1.
         11    1    3    3    0    0  0.74273837412E+01  0.36893049139E+01 -0.16383865848E+02  0.18363225762E+02  0.51100000000E-03 0. -1.
        -11    1    3    3    0    0 -0.47728561785E+01 -0.31582245231E+01 -0.98126961964E+01  0.11359733498E+02  0.51100000000E-03 0.  1.
         12    1    3    3    0    0 -0.44799870113E+01  0.17600819872E+02 -0.10150022521E+02  0.20805818921E+02  0.00000000000E+00 0. -1.
</event>
<event>
 7    1  0.4520156E-012  0.5052886E+02  0.7816164E-02  0.1300439E+00
        -11   -1    0    0    0    0  0.00000000000E+00  0.00000000000E+00  0.45593999997E+02  0.45594000000E+02  0.51100000000E-03 0. -1.
         11   -1    0    0    0    0 -0.00000000000E+00 -0.00000000000E+00 -0.45593999997E+02  0.45594000000E+02  0.51100000000E-03 0.  1.
    9900012    2    1    2    0    0  0.22843747084E+02 -0.21759729184E+02  0.25648446155E+02  0.50528863448E+02  0.30000010937E+02 0.  0.
        -12    1    1    2    0    0 -0.22843747084E+02  0.21759729184E+02 -0.25648446155E+02  0.40659136552E+02  0.00000000000E+00 0.  1.
         11    1    3    3    0    0 -0.78188165342E+00 -0.51710748251E+01  0.49813352029E+00  0.52535217742E+01  0.51100000000E-03 0. -1.
        -11    1    3    3    0    0  0.17308348872E+02 -0.11480006368E+02  0.29485913561E+02  0.36066446812E+02  0.51100000000E-03 0.  1.
         12    1    3    3    0    0  0.63172798651E+01 -0.51086479902E+01 -0.43356009260E+01  0.92088948615E+01  0.00000000000E+00 0. -1.
</event>
<event>
 7    1  0.4520156E-012  0.5052888E+02  0.7816164E-02  0.1300439E+00
        -11   -1    0    0    0    0  0.00000000000E+00  0.00000000000E+00  0.45593999997E+02  0.45594000000E+02  0.51100000000E-03 0. -1.
         11   -1    0    0    0    0 -0.00000000000E+00 -0.00000000000E+00 -0.45593999997E+02  0.45594000000E+02  0.51100000000E-03 0.  1.
    9900012    2    1    2    0    0 -0.39274376470E+02 -0.31416413766E+01  0.10040793992E+02  0.50528879232E+02  0.30000058913E+02 0.  0.
        -12    1    1    2    0    0  0.39274376470E+02  0.31416413766E+01 -0.10040793992E+02  0.40659120768E+02  0.00000000000E+00 0.  1.
         11    1    3    3    0    0 -0.13278650618E+02  0.12416361732E+01 -0.75497592929E+01  0.15325243498E+02  0.51100000000E-03 0. -1.
        -11    1    3    3    0    0 -0.36555156490E+01  0.24437117444E-01 -0.28256844998E+01  0.46203771476E+01  0.51100000000E-03 0.  1.
         12    1    3    3    0    0 -0.22340210203E+02 -0.44077146672E+01  0.20416237784E+02  0.30583258587E+02  0.00000000000E+00 0. -1.
</event>
<event>
 7    1  0.4520156E-012  0.5052886E+02  0.7816164E-02  0.1300439E+00
        -11   -1    0    0    0    0  0.00000000000E+00  0.00000000000E+00  0.45593999997E+02  0.45594000000E+02  0.51100000000E-03 0. -1.
         11   -1    0    0    0    0 -0.00000000000E+00 -0.00000000000E+00 -0.45593999997E+02  0.45594000000E+02  0.51100000000E-03 0.  1.
    9900012    2    1    2    0    0 -0.41406084106E+01 -0.40339090522E+02 -0.29628482998E+01  0.50528864099E+02  0.30000012916E+02 0.  0.
        -12    1    1    2    0    0  0.41406084106E+01  0.40339090522E+02  0.29628482998E+01  0.40659135901E+02  0.00000000000E+00 0.  1.
         11    1    3    3    0    0 -0.14944342776E+02 -0.17097456260E+02  0.52969722515E+00  0.22714245992E+02  0.51100000000E-03 0. -1.
        -11    1    3    3    0    0  0.10089996141E+00  0.10268800964E+01 -0.41780446540E+00  0.11132045486E+01  0.51100000000E-03 0.  1.
         12    1    3    3    0    0  0.10702834404E+02 -0.24268514358E+02 -0.30747410596E+01  0.26701413559E+02  0.00000000000E+00 0. -1.
</event>
<event>
 7    1  0.4520156E-012  0.5052886E+02  0.7816164E-02  0.1300439E+00
        -11   -1    0    0    0    0  0.00000000000E+00  0.00000000000E+00  0.45593999997E+02  0.45594000000E+02  0.51100000000E-03 0. -1.
         11   -1    0    0    0    0 -0.00000000000E+00 -0.00000000000E+00 -0.45593999997E+02  0.45594000000E+02  0.51100000000E-03 0.  1.
    9900012    2    1    2    0    0  0.34539013035E+02  0.19961496839E+02  0.78587877656E+01  0.50528864217E+02  0.30000013273E+02 0.  0.
        -12    1    1    2    0    0 -0.34539013035E+02 -0.19961496839E+02 -0.78587877656E+01  0.40659135783E+02  0.00000000000E+00 0.  1.
         11    1    3    3    0    0  0.45043558570E+01  0.17195104405E+01  0.70429752453E+00  0.48725735609E+01  0.51100000000E-03 0. -1.
        -11    1    3    3    0    0  0.74754138977E+00 -0.55457075256E+01  0.55655834172E+01  0.78923639756E+01  0.51100000000E-03 0.  1.
        -12    1    3    3    0    0  0.29287115788E+02  0.23787693924E+02  0.15889068238E+01  0.37763926680E+02  0.00000000000E+00 0.  1.
</event>
<event>
 7    1  0.4520156E-012  0.5052885E+02  0.7816164E-02  0.1300439E+00
        -11   -1    0    0    0    0  0.00000000000E+00  0.00000000000E+00  0.45593999997E+02  0.45594000000E+02  0.51100000000E-03 0. -1.
         11   -1    0    0    0    0 -0.00000000000E+00 -0.00000000000E+00 -0.45593999997E+02  0.45594000000E+02  0.51100000000E-03 0.  1.
    9900012    2    1    2    0    0 -0.90690267848E+01 -0.19090173398E+02 -0.34734481727E+02  0.50528853575E+02  0.29999980926E+02 0.  0.
         12    1    1    2    0    0  0.90690267848E+01  0.19090173398E+02  0.34734481727E+02  0.40659146425E+02  0.00000000000E+00 0. -1.
         11    1    3    3    0    0 -0.90996196365E+01 -0.10253856070E+02 -0.54265785130E+01  0.14744232650E+02  0.51100000000E-03 0. -1.
        -11    1    3    3    0    0 -0.12458396826E+01 -0.14356673670E+02 -0.24148870043E+02  0.28121773059E+02  0.51100000000E-03 0.  1.
         12    1    3    3    0    0  0.12764325344E+01  0.55203563414E+01 -0.51590331706E+01  0.76628478653E+01  0.00000000000E+00 0. -1.
</event>
<event>
 7    1  0.4520156E-012  0.5052886E+02  0.7816164E-02  0.1300439E+00
        -11   -1    0    0    0    0  0.00000000000E+00  0.00000000000E+00  0.45593999997E+02  0.45594000000E+02  0.51100000000E-03 0. -1.
         11   -1    0    0    0    0 -0.00000000000E+00 -0.00000000000E+00 -0.45593999997E+02  0.45594000000E+02  0.51100000000E-03 0.  1.
    9900012    2    1    2    0    0  0.28803584056E+02  0.27705622039E+02  0.74778408804E+01  0.50528855257E+02  0.29999986038E+02 0.  0.
        -12    1    1    2    0    0 -0.28803584056E+02 -0.27705622039E+02 -0.74778408804E+01  0.40659144743E+02  0.00000000000E+00 0.  1.
         11    1    3    3    0    0  0.24034532351E+01 -0.13937294548E+01  0.38075140873E+00  0.28042897751E+01  0.51100000000E-03 0.  1.
        -11    1    3    3    0    0 -0.12033368531E+01 -0.95134421279E+00 -0.49473581627E+01  0.51797131623E+01  0.51100000000E-03 0. -1.
         12    1    3    3    0    0  0.27603467674E+02  0.30050695706E+02  0.12044447634E+02  0.42544852319E+02  0.00000000000E+00 0. -1.
</event>
<event>
 7    1  0.4520156E-012  0.5052883E+02  0.7816164E-02  0.1300439E+00
        -11   -1    0    0    0    0  0.00000000000E+00  0.00000000000E+00  0.45593999997E+02  0.45594000000E+02  0.51100000000E-03 0. -1.
         11   -1    0    0    0    0 -0.00000000000E+00 -0.00000000000E+00 -0.45593999997E+02  0.45594000000E+02  0.51100000000E-03 0.  1.
    9900012    2    1    2    0    0  0.39118857166E+01  0.18031744800E+02 -0.36231495061E+02  0.50528832463E+02  0.29999916756E+02 0.  0.
         12    1    1    2    0    0 -0.39118857166E+01 -0.18031744800E+02  0.36231495061E+02  0.40659167537E+02  0.00000000000E+00 0. -1.
         11    1    3    3    0    0  0.57384662646E+01  0.35979686745E+01  0.23222428969E+01  0.71601805834E+01  0.51100000000E-03 0. -1.
        -11    1    3    3    0    0  0.18287745502E+01  0.12608995990E+01  0.24229455736E+00  0.22345001831E+01  0.51100000000E-03 0.  1.
        -12    1    3    3    0    0 -0.36553550983E+01  0.13172876526E+02 -0.38796032516E+02  0.41134151697E+02  0.00000000000E+00 0.  1.
</event>
<event>
 7    1  0.4520156E-012  0.5052885E+02  0.7816164E-02  0.1300439E+00
        -11   -1    0    0    0    0  0.00000000000E+00  0.00000000000E+00  0.45593999997E+02  0.45594000000E+02  0.51100000000E-03 0. -1.
         11   -1    0    0    0    0 -0.00000000000E+00 -0.00000000000E+00 -0.45593999997E+02  0.45594000000E+02  0.51100000000E-03 0.  1.
    9900012    2    1    2    0    0 -0.76766663848E+01 -0.59788359423E+01  0.39477699330E+02  0.50528850594E+02  0.29999971866E+02 0.  0.
        -12    1    1    2    0    0  0.76766663848E+01  0.59788359423E+01 -0.39477699330E+02  0.40659149406E+02  0.00000000000E+00 0.  1.
         11    1    3    3    0    0 -0.27458717357E+01 -0.37222203490E+01  0.13692083892E+02  0.14452262712E+02  0.51100000000E-03 0. -1.
        -11    1    3    3    0    0 -0.13071173469E+02 -0.83079040522E+00  0.24405398330E+02  0.27697820428E+02  0.51100000000E-03 0.  1.
        -12    1    3    3    0    0  0.81403788197E+01 -0.14258251881E+01  0.13802171078E+01  0.83787674547E+01  0.00000000000E+00 0.  1.
</event>
<event>
 7    1  0.4520156E-012  0.5052883E+02  0.7816164E-02  0.1300439E+00
        -11   -1    0    0    0    0  0.00000000000E+00  0.00000000000E+00  0.45593999997E+02  0.45594000000E+02  0.51100000000E-03 0.  1.
         11   -1    0    0    0    0 -0.00000000000E+00 -0.00000000000E+00 -0.45593999997E+02  0.45594000000E+02  0.51100000000E-03 0. -1.
    9900012    2    1    2    0    0  0.18981257835E+02 -0.29126186255E+02 -0.21084234897E+02  0.50528833310E+02  0.29999919329E+02 0.  0.
         12    1    1    2    0    0 -0.18981257835E+02  0.29126186255E+02  0.21084234897E+02  0.40659166690E+02  0.00000000000E+00 0. -1.
         11    1    3    3    0    0  0.16080709187E+02 -0.57584737706E+01 -0.10235989705E+02  0.19912928304E+02  0.51100000000E-03 0. -1.
        -11    1    3    3    0    0  0.69752227739E+01 -0.10276170394E+02  0.10472158867E+01  0.12463950902E+02  0.51100000000E-03 0.  1.
         12    1    3    3    0    0 -0.40746741259E+01 -0.13091542091E+02 -0.11895461078E+02  0.18151954104E+02  0.00000000000E+00 0. -1.
</event>
<event>
 7    1  0.4520156E-012  0.5052886E+02  0.7816164E-02  0.1300439E+00
        -11   -1    0    0    0    0  0.00000000000E+00  0.00000000000E+00  0.45593999997E+02  0.45594000000E+02  0.51100000000E-03 0. -1.
         11   -1    0    0    0    0 -0.00000000000E+00 -0.00000000000E+00 -0.45593999997E+02  0.45594000000E+02  0.51100000000E-03 0.  1.
    9900012    2    1    2    0    0 -0.13137268481E+02  0.16506251286E+02 -0.34758040436E+02  0.50528861672E+02  0.30000005537E+02 0.  0.
         12    1    1    2    0    0  0.13137268481E+02 -0.16506251286E+02  0.34758040436E+02  0.40659138328E+02  0.00000000000E+00 0. -1.
         11    1    3    3    0    0 -0.56861617053E+01  0.34864682242E+01 -0.26399238315E+01  0.71733600018E+01  0.51100000000E-03 0. -1.
        -11    1    3    3    0    0  0.63288241536E+01  0.13803792929E+02 -0.14736467409E+02  0.21160391924E+02  0.51100000000E-03 0.  1.
         12    1    3    3    0    0 -0.13779930930E+02 -0.78400986751E+00 -0.17381649195E+02  0.22195109746E+02  0.00000000000E+00 0. -1.
</event>
<event>
 7    1  0.4520156E-012  0.5052886E+02  0.7816164E-02  0.1300439E+00
        -11   -1    0    0    0    0  0.00000000000E+00  0.00000000000E+00  0.45593999997E+02  0.45594000000E+02  0.51100000000E-03 0. -1.
         11   -1    0    0    0    0 -0.00000000000E+00 -0.00000000000E+00 -0.45593999997E+02  0.45594000000E+02  0.51100000000E-03 0.  1.
    9900012    2    1    2    0    0  0.11848795274E+02 -0.86463770091E+01 -0.37921128461E+02  0.50528858733E+02  0.29999996605E+02 0.  0.
         12    1    1    2    0    0 -0.11848795274E+02  0.86463770091E+01  0.37921128461E+02  0.40659141267E+02  0.00000000000E+00 0. -1.
         11    1    3    3    0    0 -0.29285167594E+01 -0.89805445034E+01 -0.91588903599E+01  0.13157190539E+02  0.51100000000E-03 0. -1.
        -11    1    3    3    0    0  0.13964723731E+02  0.51856038799E+01 -0.28831218144E+02  0.32452166899E+02  0.51100000000E-03 0.  1.
         12    1    3    3    0    0  0.81258830166E+00 -0.48514363857E+01  0.68980043280E-01  0.49195012957E+01  0.00000000000E+00 0. -1.
</event>
<event>
 7    1  0.4520156E-012  0.5052884E+02  0.7816164E-02  0.1300439E+00
        -11   -1    0    0    0    0  0.00000000000E+00  0.00000000000E+00  0.45593999997E+02  0.45594000000E+02  0.51100000000E-03 0. -1.
         11   -1    0    0    0    0 -0.00000000000E+00 -0.00000000000E+00 -0.45593999997E+02  0.45594000000E+02  0.51100000000E-03 0.  1.
    9900012    2    1    2    0    0 -0.12939950739E+02  0.23191260191E+02  0.30787825467E+02  0.50528842712E+02  0.29999947906E+02 0.  0.
        -12    1    1    2    0    0  0.12939950739E+02 -0.23191260191E+02 -0.30787825467E+02  0.40659157288E+02  0.00000000000E+00 0.  1.
         11    1    3    3    0    0 -0.46750089834E+01  0.66917621600E+01  0.48031039871E+01  0.94712828050E+01  0.51100000000E-03 0. -1.
        -11    1    3    3    0    0 -0.14452621564E+02  0.21386935027E+01  0.18904762969E+02  0.23892307196E+02  0.51100000000E-03 0.  1.
        -12    1    3    3    0    0  0.61876798078E+01  0.14360804528E+02  0.70799585113E+01  0.17165252711E+02  0.00000000000E+00 0.  1.
</event>
<event>
 7    1  0.4520156E-012  0.5052886E+02  0.7816164E-02  0.1300439E+00
        -11   -1    0    0    0    0  0.00000000000E+00  0.00000000000E+00  0.45593999997E+02  0.45594000000E+02  0.51100000000E-03 0.  1.
         11   -1    0    0    0    0 -0.00000000000E+00 -0.00000000000E+00 -0.45593999997E+02  0.45594000000E+02  0.51100000000E-03 0. -1.
    9900012    2    1    2    0    0 -0.12637153225E+02  0.37587231038E+02 -0.89815589126E+01  0.50528856143E+02  0.29999988731E+02 0.  0.
         12    1    1    2    0    0  0.12637153225E+02 -0.37587231038E+02  0.89815589126E+01  0.40659143857E+02  0.00000000000E+00 0. -1.
         11    1    3    3    0    0 -0.18157417106E+01 -0.29657096200E+01 -0.40867368122E+00  0.35013377370E+01  0.51100000000E-03 0. -1.
        -11    1    3    3    0    0 -0.67689444036E+00  0.62150722275E+01 -0.93106566350E+01  0.11214884579E+02  0.51100000000E-03 0.  1.
        -12    1    3    3    0    0 -0.10144517074E+02  0.34337868430E+02  0.73777140363E+00  0.35812633827E+02  0.00000000000E+00 0.  1.
</event>
<event>
 7    1  0.4520156E-012  0.5052892E+02  0.7816164E-02  0.1300439E+00
        -11   -1    0    0    0    0  0.00000000000E+00  0.00000000000E+00  0.45593999997E+02  0.45594000000E+02  0.51100000000E-03 0. -1.
         11   -1    0    0    0    0 -0.00000000000E+00 -0.00000000000E+00 -0.45593999997E+02  0.45594000000E+02  0.51100000000E-03 0.  1.
    9900012    2    1    2    0    0  0.89139325288E+01  0.20496346071E+02 -0.33964721727E+02  0.50528920849E+02  0.30000185413E+02 0.  0.
         12    1    1    2    0    0 -0.89139325288E+01 -0.20496346071E+02  0.33964721727E+02  0.40659079151E+02  0.00000000000E+00 0. -1.
         11    1    3    3    0    0 -0.34931956570E+01  0.14153704753E+02 -0.57571128734E+01  0.15673995121E+02  0.51100000000E-03 0. -1.
        -11    1    3    3    0    0 -0.41523429939E+00  0.75020713256E+01 -0.11966838942E+02  0.14130064693E+02  0.51100000000E-03 0.  1.
         12    1    3    3    0    0  0.12822362485E+02 -0.11594300077E+01 -0.16240769911E+02  0.20724861036E+02  0.00000000000E+00 0. -1.
</event>
<event>
 7    1  0.4520156E-012  0.5052886E+02  0.7816164E-02  0.1300439E+00
        -11   -1    0    0    0    0  0.00000000000E+00  0.00000000000E+00  0.45593999997E+02  0.45594000000E+02  0.51100000000E-03 0. -1.
         11   -1    0    0    0    0 -0.00000000000E+00 -0.00000000000E+00 -0.45593999997E+02  0.45594000000E+02  0.51100000000E-03 0.  1.
    9900012    2    1    2    0    0  0.36698509638E+02 -0.41794723784E+01  0.16997553099E+02  0.50528863138E+02  0.30000009994E+02 0.  0.
        -12    1    1    2    0    0 -0.36698509638E+02  0.41794723784E+01 -0.16997553099E+02  0.40659136862E+02  0.00000000000E+00 0.  1.
         11    1    3    3    0    0  0.20882089094E+02 -0.67670685021E+01  0.95006020237E+01  0.23918952739E+02  0.51100000000E-03 0. -1.
        -11    1    3    3    0    0  0.18818066705E+02 -0.15603220573E+01  0.18277916255E+01  0.18970900399E+02  0.51100000000E-03 0.  1.
         12    1    3    3    0    0 -0.30016461617E+01  0.41479181810E+01  0.56691594496E+01  0.76390100001E+01  0.00000000000E+00 0. -1.
</event>
<event>
 7    1  0.4520156E-012  0.5052888E+02  0.7816164E-02  0.1300439E+00
        -11   -1    0    0    0    0  0.00000000000E+00  0.00000000000E+00  0.45593999997E+02  0.45594000000E+02  0.51100000000E-03 0. -1.
         11   -1    0    0    0    0 -0.00000000000E+00 -0.00000000000E+00 -0.45593999997E+02  0.45594000000E+02  0.51100000000E-03 0.  1.
    9900012    2    1    2    0    0  0.30356339299E+02 -0.10600588553E+02  0.24885417418E+02  0.50528882777E+02  0.30000069688E+02 0.  0.
        -12    1    1    2    0    0 -0.30356339299E+02  0.10600588553E+02 -0.24885417418E+02  0.40659117223E+02  0.00000000000E+00 0.  1.
         11    1    3    3    0    0  0.18640801595E+01  0.92918302829E+00  0.20804908664E+01  0.29439120991E+01  0.51100000000E-03 0. -1.
        -11    1    3    3    0    0  0.59222971573E+01 -0.13220224655E+02  0.20121022140E+02  0.24793214309E+02  0.51100000000E-03 0.  1.
        -12    1    3    3    0    0  0.22569961983E+02  0.16904530730E+01  0.26839044114E+01  0.22791756369E+02  0.00000000000E+00 0.  1.
</event>
<event>
 7    1  0.4520156E-012  0.5052886E+02  0.7816164E-02  0.1300439E+00
        -11   -1    0    0    0    0  0.00000000000E+00  0.00000000000E+00  0.45593999997E+02  0.45594000000E+02  0.51100000000E-03 0. -1.
         11   -1    0    0    0    0 -0.00000000000E+00 -0.00000000000E+00 -0.45593999997E+02  0.45594000000E+02  0.51100000000E-03 0.  1.
    9900012    2    1    2    0    0 -0.10555559570E+02  0.24613143804E+02  0.30593114084E+02  0.50528864309E+02  0.30000013555E+02 0.  0.
        -12    1    1    2    0    0  0.10555559570E+02 -0.24613143804E+02 -0.30593114084E+02  0.40659135691E+02  0.00000000000E+00 0.  1.
         11    1    3    3    0    0  0.42698680453E+01  0.30602714008E+01  0.10948919683E+01  0.53661739493E+01  0.51100000000E-03 0. -1.
        -11    1    3    3    0    0  0.52869012556E+01  0.33930773780E+01  0.98831132546E+01  0.11710688573E+02  0.51100000000E-03 0.  1.
         12    1    3    3    0    0 -0.20112328871E+02  0.18159795025E+02  0.19615108861E+02  0.33452001788E+02  0.00000000000E+00 0. -1.
</event>
<event>
 7    1  0.4520156E-012  0.5052886E+02  0.7816164E-02  0.1300439E+00
        -11   -1    0    0    0    0  0.00000000000E+00  0.00000000000E+00  0.45593999997E+02  0.45594000000E+02  0.51100000000E-03 0. -1.
         11   -1    0    0    0    0 -0.00000000000E+00 -0.00000000000E+00 -0.45593999997E+02  0.45594000000E+02  0.51100000000E-03 0.  1.
    9900012    2    1    2    0    0 -0.48116198873E+01 -0.23111922625E+02 -0.33103665028E+02  0.50528864598E+02  0.30000014432E+02 0.  0.
         12    1    1    2    0    0  0.48116198873E+01  0.23111922625E+02  0.33103665028E+02  0.40659135402E+02  0.00000000000E+00 0. -1.
         11    1    3    3    0    0  0.11872416318E+01 -0.30134776658E+00  0.16067067119E+01  0.20203613261E+01  0.51100000000E-03 0. -1.
        -11    1    3    3    0    0 -0.29118453146E+00  0.52209031327E+01 -0.44427791775E+01  0.68615526693E+01  0.51100000000E-03 0.  1.
        -12    1    3    3    0    0 -0.57076769876E+01 -0.28031477991E+02 -0.30267592562E+02  0.41646950603E+02  0.00000000000E+00 0.  1.
</event>
<event>
 7    1  0.4520156E-012  0.5052886E+02  0.7816164E-02  0.1300439E+00
        -11   -1    0    0    0    0  0.00000000000E+00  0.00000000000E+00  0.45593999997E+02  0.45594000000E+02  0.51100000000E-03 0. -1.
         11   -1    0    0    0    0 -0.00000000000E+00 -0.00000000000E+00 -0.45593999997E+02  0.45594000000E+02  0.51100000000E-03 0.  1.
    9900012    2    1    2    0    0  0.24951346965E+02 -0.21332851439E+02 -0.23989694384E+02  0.50528859545E+02  0.29999999073E+02 0.  0.
         12    1    1    2    0    0 -0.24951346965E+02  0.21332851439E+02  0.23989694384E+02  0.40659140455E+02  0.00000000000E+00 0. -1.
         11    1    3    3    0    0  0.69545617829E-01  0.17631066939E+01 -0.12839136253E+02  0.12959814883E+02  0.51100000000E-03 0. -1.
        -11    1    3    3    0    0  0.63314191504E+01 -0.18773116613E+01 -0.59910696315E+01  0.89165062173E+01  0.51100000000E-03 0.  1.
         12    1    3    3    0    0  0.18550382197E+02 -0.21218646472E+02 -0.51594884991E+01  0.28652538445E+02  0.00000000000E+00 0. -1.
</event>
<event>
 7    1  0.4520156E-012  0.5052886E+02  0.7816164E-02  0.1300439E+00
        -11   -1    0    0    0    0  0.00000000000E+00  0.00000000000E+00  0.45593999997E+02  0.45594000000E+02  0.51100000000E-03 0. -1.
         11   -1    0    0    0    0 -0.00000000000E+00 -0.00000000000E+00 -0.45593999997E+02  0.45594000000E+02  0.51100000000E-03 0.  1.
    9900012    2    1    2    0    0 -0.11053519931E+02 -0.46667647809E+01 -0.38848513503E+02  0.50528855914E+02  0.29999988037E+02 0.  0.
         12    1    1    2    0    0  0.11053519931E+02  0.46667647809E+01  0.38848513503E+02  0.40659144086E+02  0.00000000000E+00 0. -1.
         11    1    3    3    0    0 -0.36164138399E+01 -0.70706089252E+01 -0.26154696026E+01  0.83613779450E+01  0.51100000000E-03 0. -1.
        -11    1    3    3    0    0 -0.69460858398E+01 -0.55368908029E+01 -0.55600312567E+01  0.10479466403E+02  0.51100000000E-03 0.  1.
        -12    1    3    3    0    0 -0.49102025152E+00  0.79407349472E+01 -0.30673012644E+02  0.31688011566E+02  0.00000000000E+00 0.  1.
</event>
<event>
 7    1  0.4520156E-012  0.5052886E+02  0.7816164E-02  0.1300439E+00
        -11   -1    0    0    0    0  0.00000000000E+00  0.00000000000E+00  0.45593999997E+02  0.45594000000E+02  0.51100000000E-03 0. -1.
         11   -1    0    0    0    0 -0.00000000000E+00 -0.00000000000E+00 -0.45593999997E+02  0.45594000000E+02  0.51100000000E-03 0.  1.
    9900012    2    1    2    0    0 -0.32238105731E+02 -0.23752086331E+02  0.70504139715E+01  0.50528863224E+02  0.30000010255E+02 0.  0.
         12    1    1    2    0    0  0.32238105731E+02  0.23752086331E+02 -0.70504139715E+01  0.40659136776E+02  0.00000000000E+00 0. -1.
         11    1    3    3    0    0 -0.15804885299E+01 -0.14206526467E+01  0.90268654256E+01  0.92736453247E+01  0.51100000000E-03 0. -1.
        -11    1    3    3    0    0  0.11701940306E+01 -0.46468485399E+01 -0.43640014939E+00  0.48117565165E+01  0.51100000000E-03 0.  1.
        -12    1    3    3    0    0 -0.31827811232E+02 -0.17684585144E+02 -0.15400513046E+01  0.36443461383E+02  0.00000000000E+00 0.  1.
</event>
<event>
 7    1  0.5638620E-012  0.5052886E+02  0.7816164E-02  0.1300439E+00
        -11   -1    0    0    0    0  0.00000000000E+00  0.00000000000E+00  0.45593999997E+02  0.45594000000E+02  0.51100000000E-03 0. -1.
         11   -1    0    0    0    0 -0.00000000000E+00 -0.00000000000E+00 -0.45593999997E+02  0.45594000000E+02  0.51100000000E-03 0.  1.
    9900012    2    1    2    0    0 -0.15066422338E+02  0.15848265953E+02  0.34278289091E+02  0.50528859345E+02  0.29999998465E+02 0.  0.
        -12    1    1    2    0    0  0.15066422338E+02 -0.15848265953E+02 -0.34278289091E+02  0.40659140655E+02  0.00000000000E+00 0.  1.
         11    1    3    3    0    0 -0.39919732936E+01  0.67065107875E+01  0.46597209309E+01  0.90898920310E+01  0.51100000000E-03 0. -1.
        -11    1    3    3    0    0  0.42863689604E+01  0.62226785551E+01 -0.42731002135E+00  0.75681755648E+01  0.51100000000E-03 0.  1.
         12    1    3    3    0    0 -0.15360818005E+02  0.29190766107E+01  0.30045878181E+02  0.33870791749E+02  0.00000000000E+00 0. -1.
</event>
<event>
 7    1  0.4520156E-012  0.5052883E+02  0.7816164E-02  0.1300439E+00
        -11   -1    0    0    0    0  0.00000000000E+00  0.00000000000E+00  0.45593999997E+02  0.45594000000E+02  0.51100000000E-03 0. -1.
         11   -1    0    0    0    0 -0.00000000000E+00 -0.00000000000E+00 -0.45593999997E+02  0.45594000000E+02  0.51100000000E-03 0.  1.
    9900012    2    1    2    0    0  0.94302219568E+01 -0.26087380713E+02  0.29726889399E+02  0.50528825488E+02  0.29999895554E+02 0.  0.
        -12    1    1    2    0    0 -0.94302219568E+01  0.26087380713E+02 -0.29726889399E+02  0.40659174512E+02  0.00000000000E+00 0.  1.
         11    1    3    3    0    0 -0.55735664862E+01 -0.26220481149E+01 -0.83686675933E+00  0.62161182363E+01  0.51100000000E-03 0. -1.
        -11    1    3    3    0    0  0.37910549098E+01  0.13054566706E+01  0.97177479172E+00  0.41256103736E+01  0.51100000000E-03 0.  1.
        -12    1    3    3    0    0  0.11212733533E+02 -0.24770789269E+02  0.29591981367E+02  0.40187096878E+02  0.00000000000E+00 0.  1.
</event>
<event>
 7    1  0.4520156E-012  0.5052886E+02  0.7816164E-02  0.1300439E+00
        -11   -1    0    0    0    0  0.00000000000E+00  0.00000000000E+00  0.45593999997E+02  0.45594000000E+02  0.51100000000E-03 0. -1.
         11   -1    0    0    0    0 -0.00000000000E+00 -0.00000000000E+00 -0.45593999997E+02  0.45594000000E+02  0.51100000000E-03 0.  1.
    9900012    2    1    2    0    0  0.86115382828E+00 -0.24982603826E+02 -0.32067016017E+02  0.50528860854E+02  0.30000003052E+02 0.  0.
         12    1    1    2    0    0 -0.86115382828E+00  0.24982603826E+02  0.32067016017E+02  0.40659139146E+02  0.00000000000E+00 0. -1.
         11    1    3    3    0    0  0.12847875405E+01 -0.11377692971E+02  0.28463748021E+01  0.11798492537E+02  0.51100000000E-03 0. -1.
        -11    1    3    3    0    0  0.25421691963E+01 -0.91056932095E+00 -0.20952546852E+01  0.34178726085E+01  0.51100000000E-03 0.  1.
        -12    1    3    3    0    0 -0.29658029086E+01 -0.12694341534E+02 -0.32818136134E+02  0.35312495709E+02  0.00000000000E+00 0.  1.
</event>
<event>
 7    1  0.4520156E-012  0.5052887E+02  0.7816164E-02  0.1300439E+00
        -11   -1    0    0    0    0  0.00000000000E+00  0.00000000000E+00  0.45593999997E+02  0.45594000000E+02  0.51100000000E-03 0. -1.
         11   -1    0    0    0    0 -0.00000000000E+00 -0.00000000000E+00 -0.45593999997E+02  0.45594000000E+02  0.51100000000E-03 0.  1.
    9900012    2    1    2    0    0 -0.25073779185E+02 -0.15384251444E+02  0.28067684309E+02  0.50528874363E+02  0.30000044113E+02 0.  0.
        -12    1    1    2    0    0  0.25073779185E+02  0.15384251444E+02 -0.28067684309E+02  0.40659125637E+02  0.00000000000E+00 0.  1.
         11    1    3    3    0    0  0.20654367233E+01 -0.16193486146E+01  0.55780294247E+01  0.61646355381E+01  0.51100000000E-03 0. -1.
        -11    1    3    3    0    0  0.20421071795E+01  0.23686028533E+01 -0.13171954944E+01  0.33934474271E+01  0.51100000000E-03 0.  1.
         12    1    3    3    0    0 -0.29181323088E+02 -0.16133505683E+02  0.23806850378E+02  0.40970791397E+02  0.00000000000E+00 0. -1.
</event>
<event>
 7    1  0.4520156E-012  0.5052886E+02  0.7816164E-02  0.1300439E+00
        -11   -1    0    0    0    0  0.00000000000E+00  0.00000000000E+00  0.45593999997E+02  0.45594000000E+02  0.51100000000E-03 0. -1.
         11   -1    0    0    0    0 -0.00000000000E+00 -0.00000000000E+00 -0.45593999997E+02  0.45594000000E+02  0.51100000000E-03 0.  1.
    9900012    2    1    2    0    0  0.29593466939E+02  0.11236359186E+02 -0.25517371851E+02  0.50528864256E+02  0.30000013393E+02 0.  0.
         12    1    1    2    0    0 -0.29593466939E+02 -0.11236359186E+02  0.25517371851E+02  0.40659135744E+02  0.00000000000E+00 0. -1.
         11    1    3    3    0    0 -0.33922833051E+01  0.49439953828E+00 -0.22418339414E+01  0.40960757570E+01  0.51100000000E-03 0. -1.
        -11    1    3    3    0    0  0.36182278153E+01 -0.11686938452E+01  0.33300612331E+01  0.50543769057E+01  0.51100000000E-03 0.  1.
        -12    1    3    3    0    0  0.29367522429E+02  0.11910653493E+02 -0.26605599143E+02  0.41378411594E+02  0.00000000000E+00 0.  1.
</event>
<event>
 7    1  0.4520156E-012  0.5052886E+02  0.7816164E-02  0.1300439E+00
        -11   -1    0    0    0    0  0.00000000000E+00  0.00000000000E+00  0.45593999997E+02  0.45594000000E+02  0.51100000000E-03 0. -1.
         11   -1    0    0    0    0 -0.00000000000E+00 -0.00000000000E+00 -0.45593999997E+02  0.45594000000E+02  0.51100000000E-03 0.  1.
    9900012    2    1    2    0    0 -0.37435543464E+02 -0.21568351727E+01 -0.15719210093E+02  0.50528863040E+02  0.30000009696E+02 0.  0.
         12    1    1    2    0    0  0.37435543464E+02  0.21568351727E+01  0.15719210093E+02  0.40659136960E+02  0.00000000000E+00 0. -1.
         11    1    3    3    0    0 -0.15247168552E+02 -0.52718840577E+01  0.11853376317E+01  0.16176338768E+02  0.51100000000E-03 0. -1.
        -11    1    3    3    0    0 -0.25498983498E+02  0.27041267605E+01 -0.11734126480E+02  0.28199294060E+02  0.51100000000E-03 0.  1.
        -12    1    3    3    0    0  0.33106085859E+01  0.41092212449E+00 -0.51704212443E+01  0.61532302123E+01  0.00000000000E+00 0.  1.
</event>
<event>
 7    1  0.4520156E-012  0.5052885E+02  0.7816164E-02  0.1300439E+00
        -11   -1    0    0    0    0  0.00000000000E+00  0.00000000000E+00  0.45593999997E+02  0.45594000000E+02  0.51100000000E-03 0. -1.
         11   -1    0    0    0    0 -0.00000000000E+00 -0.00000000000E+00 -0.45593999997E+02  0.45594000000E+02  0.51100000000E-03 0.  1.
    9900012    2    1    2    0    0  0.12675640139E+02  0.35468092153E+02  0.15313690636E+02  0.50528849310E+02  0.29999967963E+02 0.  0.
        -12    1    1    2    0    0 -0.12675640139E+02 -0.35468092153E+02 -0.15313690636E+02  0.40659150690E+02  0.00000000000E+00 0.  1.
         11    1    3    3    0    0 -0.96813729192E+00  0.18827430442E+00 -0.56717137084E+01  0.57568284394E+01  0.51100000000E-03 0.  1.
        -11    1    3    3    0    0  0.54940739654E+01  0.71706648376E+01  0.49829495625E+00  0.90471863623E+01  0.51100000000E-03 0. -1.
        -12    1    3    3    0    0  0.81497034655E+01  0.28109153011E+02  0.20487109388E+02  0.35724834509E+02  0.00000000000E+00 0.  1.
</event>
<event>
 7    1  0.4520156E-012  0.5052885E+02  0.7816164E-02  0.1300439E+00
        -11   -1    0    0    0    0  0.00000000000E+00  0.00000000000E+00  0.45593999997E+02  0.45594000000E+02  0.51100000000E-03 0. -1.
         11   -1    0    0    0    0 -0.00000000000E+00 -0.00000000000E+00 -0.45593999997E+02  0.45594000000E+02  0.51100000000E-03 0.  1.
    9900012    2    1    2    0    0 -0.22499413570E+02 -0.56234421735E+01  0.33396402562E+02  0.50528850759E+02  0.29999972368E+02 0.  0.
        -12    1    1    2    0    0  0.22499413570E+02  0.56234421735E+01 -0.33396402562E+02  0.40659149241E+02  0.00000000000E+00 0.  1.
         11    1    3    3    0    0 -0.13050962160E+01 -0.50586825507E+01  0.11869175840E+02  0.12968071587E+02  0.51100000000E-03 0. -1.
        -11    1    3    3    0    0 -0.16187104107E+02 -0.93899043291E+01  0.19843075039E+02  0.27275268467E+02  0.51100000000E-03 0.  1.
        -12    1    3    3    0    0 -0.50072132477E+01  0.88251447063E+01  0.16841516829E+01  0.10285510706E+02  0.00000000000E+00 0.  1.
</event>
<event>
 7    1  0.4520156E-012  0.5052886E+02  0.7816164E-02  0.1300439E+00
        -11   -1    0    0    0    0  0.00000000000E+00  0.00000000000E+00  0.45593999997E+02  0.45594000000E+02  0.51100000000E-03 0. -1.
         11   -1    0    0    0    0 -0.00000000000E+00 -0.00000000000E+00 -0.45593999997E+02  0.45594000000E+02  0.51100000000E-03 0.  1.
    9900012    2    1    2    0    0 -0.29226126056E+02 -0.23442719899E+02  0.15793621529E+02  0.50528855377E+02  0.29999986404E+02 0.  0.
        -12    1    1    2    0    0  0.29226126056E+02  0.23442719899E+02 -0.15793621529E+02  0.40659144623E+02  0.00000000000E+00 0.  1.
         11    1    3    3    0    0 -0.93358926104E+01 -0.47271547657E+01  0.33893427712E+01  0.10999660344E+02  0.51100000000E-03 0. -1.
        -11    1    3    3    0    0 -0.10311929831E+02  0.35499669023E+01  0.10624515553E+02  0.15225586781E+02  0.51100000000E-03 0.  1.
        -12    1    3    3    0    0 -0.95783036141E+01 -0.22265532036E+02  0.17797632051E+01  0.24303608251E+02  0.00000000000E+00 0.  1.
</event>
<event>
 7    1  0.4520156E-012  0.5052884E+02  0.7816164E-02  0.1300439E+00
        -11   -1    0    0    0    0  0.00000000000E+00  0.00000000000E+00  0.45593999997E+02  0.45594000000E+02  0.51100000000E-03 0. -1.
         11   -1    0    0    0    0 -0.00000000000E+00 -0.00000000000E+00 -0.45593999997E+02  0.45594000000E+02  0.51100000000E-03 0.  1.
    9900012    2    1    2    0    0 -0.15633731290E+02 -0.28276118275E+02  0.24682284096E+02  0.50528836617E+02  0.29999929382E+02 0.  0.
        -12    1    1    2    0    0  0.15633731290E+02  0.28276118275E+02 -0.24682284096E+02  0.40659163383E+02  0.00000000000E+00 0.  1.
         11    1    3    3    0    0 -0.45308060335E+01 -0.63401614240E+01 -0.20163478986E+01  0.80493173191E+01  0.51100000000E-03 0. -1.
        -11    1    3    3    0    0 -0.51142242082E+01 -0.79667444196E+01 -0.22972095318E+01  0.97417389512E+01  0.51100000000E-03 0.  1.
        -12    1    3    3    0    0 -0.59887010480E+01 -0.13969212432E+02  0.28995841527E+02  0.32737780347E+02  0.00000000000E+00 0.  1.
</event>
<event>
 7    1  0.4520156E-012  0.5052886E+02  0.7816164E-02  0.1300439E+00
        -11   -1    0    0    0    0  0.00000000000E+00  0.00000000000E+00  0.45593999997E+02  0.45594000000E+02  0.51100000000E-03 0. -1.
         11   -1    0    0    0    0 -0.00000000000E+00 -0.00000000000E+00 -0.45593999997E+02  0.45594000000E+02  0.51100000000E-03 0.  1.
    9900012    2    1    2    0    0  0.39931881838E+02  0.97355143899E-01 -0.76551262122E+01  0.50528860530E+02  0.30000002067E+02 0.  0.
         12    1    1    2    0    0 -0.39931881838E+02 -0.97355143899E-01  0.76551262122E+01  0.40659139470E+02  0.00000000000E+00 0. -1.
         11    1    3    3    0    0  0.41391680316E+01  0.73966207544E+01 -0.23344227018E+01  0.87916005477E+01  0.51100000000E-03 0. -1.
        -11    1    3    3    0    0  0.13991873645E+02 -0.59436374482E+01 -0.11471820111E+02  0.19044737098E+02  0.51100000000E-03 0.  1.
        -12    1    3    3    0    0  0.21800840161E+02 -0.13556281623E+01  0.61511166002E+01  0.22692522885E+02  0.00000000000E+00 0.  1.
</event>
<event>
 7    1  0.4520156E-012  0.5052885E+02  0.7816164E-02  0.1300439E+00
        -11   -1    0    0    0    0  0.00000000000E+00  0.00000000000E+00  0.45593999997E+02  0.45594000000E+02  0.51100000000E-03 0. -1.
         11   -1    0    0    0    0 -0.00000000000E+00 -0.00000000000E+00 -0.45593999997E+02  0.45594000000E+02  0.51100000000E-03 0.  1.
    9900012    2    1    2    0    0 -0.11738691290E+02  0.22507406740E+02 -0.31761392972E+02  0.50528852015E+02  0.29999976184E+02 0.  0.
         12    1    1    2    0    0  0.11738691290E+02 -0.22507406740E+02  0.31761392972E+02  0.40659147985E+02  0.00000000000E+00 0. -1.
         11    1    3    3    0    0  0.28083758825E+01  0.39261104123E+01 -0.53131560320E+01  0.71785057880E+01  0.51100000000E-03 0. -1.
        -11    1    3    3    0    0 -0.73112162450E+01  0.12742527375E+02 -0.29994649768E+02  0.33399175167E+02  0.51100000000E-03 0.  1.
         12    1    3    3    0    0 -0.72358509276E+01  0.58387689520E+01  0.35464128275E+01  0.99511710599E+01  0.00000000000E+00 0. -1.
</event>
<event>
 7    1  0.4520156E-012  0.5052886E+02  0.7816164E-02  0.1300439E+00
        -11   -1    0    0    0    0  0.00000000000E+00  0.00000000000E+00  0.45593999997E+02  0.45594000000E+02  0.51100000000E-03 0. -1.
         11   -1    0    0    0    0 -0.00000000000E+00 -0.00000000000E+00 -0.45593999997E+02  0.45594000000E+02  0.51100000000E-03 0.  1.
    9900012    2    1    2    0    0 -0.40464632533E+02 -0.25684771857E+01 -0.30301530746E+01  0.50528863404E+02  0.30000010804E+02 0.  0.
         12    1    1    2    0    0  0.40464632533E+02  0.25684771857E+01  0.30301530746E+01  0.40659136596E+02  0.00000000000E+00 0. -1.
         11    1    3    3    0    0 -0.98863163784E+01 -0.64446108641E+01 -0.13410395602E+00  0.11802128827E+02  0.51100000000E-03 0. -1.
        -11    1    3    3    0    0  0.34742550945E+01  0.17436281507E+00 -0.28126289277E+01  0.44734475071E+01  0.51100000000E-03 0.  1.
        -12    1    3    3    0    0 -0.34052571249E+02  0.37017708633E+01 -0.83420190909E-01  0.34253287070E+02  0.00000000000E+00 0.  1.
</event>
<event>
 7    1  0.4520156E-012  0.5052886E+02  0.7816164E-02  0.1300439E+00
        -11   -1    0    0    0    0  0.00000000000E+00  0.00000000000E+00  0.45593999997E+02  0.45594000000E+02  0.51100000000E-03 0. -1.
         11   -1    0    0    0    0 -0.00000000000E+00 -0.00000000000E+00 -0.45593999997E+02  0.45594000000E+02  0.51100000000E-03 0.  1.
    9900012    2    1    2    0    0  0.13426936766E+01  0.20973672028E+02 -0.34806150676E+02  0.50528857492E+02  0.29999992831E+02 0.  0.
         12    1    1    2    0    0 -0.13426936766E+01 -0.20973672028E+02  0.34806150676E+02  0.40659142508E+02  0.00000000000E+00 0. -1.
         11    1    3    3    0    0 -0.28077979231E+01  0.54873883501E+01 -0.11122964415E+02  0.12716740845E+02  0.51100000000E-03 0. -1.
        -11    1    3    3    0    0 -0.67446919980E+01  0.51392036731E+01 -0.20868154862E+02  0.22525145330E+02  0.51100000000E-03 0.  1.
         12    1    3    3    0    0  0.10895183598E+02  0.10347080005E+02 -0.28150313988E+01  0.15286971316E+02  0.00000000000E+00 0. -1.
</event>
<event>
 7    1  0.4520156E-012  0.5052886E+02  0.7816164E-02  0.1300439E+00
        -11   -1    0    0    0    0  0.00000000000E+00  0.00000000000E+00  0.45593999997E+02  0.45594000000E+02  0.51100000000E-03 0. -1.
         11   -1    0    0    0    0 -0.00000000000E+00 -0.00000000000E+00 -0.45593999997E+02  0.45594000000E+02  0.51100000000E-03 0.  1.
    9900012    2    1    2    0    0  0.50965410562E+01  0.38907678223E+02 -0.10648164969E+02  0.50528861143E+02  0.30000003930E+02 0.  0.
         12    1    1    2    0    0 -0.50965410562E+01 -0.38907678223E+02  0.10648164969E+02  0.40659138857E+02  0.00000000000E+00 0. -1.
         11    1    3    3    0    0 -0.52290275038E+01  0.10600481915E+02 -0.77160740794E+01  0.14115620600E+02  0.51100000000E-03 0. -1.
        -11    1    3    3    0    0  0.30931352283E+01  0.17517286404E+02 -0.11195350423E+02  0.21018056044E+02  0.51100000000E-03 0.  1.
         12    1    3    3    0    0  0.72324333317E+01  0.10789909903E+02  0.82632595341E+01  0.15395184499E+02  0.00000000000E+00 0. -1.
</event>
<event>
 7    1  0.4520156E-012  0.5052886E+02  0.7816164E-02  0.1300439E+00
        -11   -1    0    0    0    0  0.00000000000E+00  0.00000000000E+00  0.45593999997E+02  0.45594000000E+02  0.51100000000E-03 0. -1.
         11   -1    0    0    0    0 -0.00000000000E+00 -0.00000000000E+00 -0.45593999997E+02  0.45594000000E+02  0.51100000000E-03 0.  1.
    9900012    2    1    2    0    0 -0.26258074514E+02 -0.87734384338E+01  0.29777607897E+02  0.50528860422E+02  0.30000001740E+02 0.  0.
        -12    1    1    2    0    0  0.26258074514E+02  0.87734384338E+01 -0.29777607897E+02  0.40659139578E+02  0.00000000000E+00 0.  1.
         11    1    3    3    0    0 -0.12360333940E+02 -0.14834018239E+02  0.27798195710E+02  0.33846205655E+02  0.51100000000E-03 0. -1.
        -11    1    3    3    0    0 -0.53003329490E+01  0.46968116487E+01  0.34114309321E+01  0.78607525275E+01  0.51100000000E-03 0.  1.
        -12    1    3    3    0    0 -0.85974076247E+01  0.13637681564E+01 -0.14320187453E+01  0.88219022403E+01  0.00000000000E+00 0.  1.
</event>
<event>
 7    1  0.4520156E-012  0.5052884E+02  0.7816164E-02  0.1300439E+00
        -11   -1    0    0    0    0  0.00000000000E+00  0.00000000000E+00  0.45593999997E+02  0.45594000000E+02  0.51100000000E-03 0. -1.
         11   -1    0    0    0    0 -0.00000000000E+00 -0.00000000000E+00 -0.45593999997E+02  0.45594000000E+02  0.51100000000E-03 0.  1.
    9900012    2    1    2    0    0  0.11512462642E+02 -0.24549334346E+01  0.38917914763E+02  0.50528836411E+02  0.29999928754E+02 0.  0.
        -12    1    1    2    0    0 -0.11512462642E+02  0.24549334346E+01 -0.38917914763E+02  0.40659163589E+02  0.00000000000E+00 0.  1.
         11    1    3    3    0    0 -0.32852789469E+01 -0.97725870766E+00 -0.10584228605E+01  0.35872484655E+01  0.51100000000E-03 0. -1.
        -11    1    3    3    0    0  0.10819424652E+01 -0.26988001551E+01 -0.14768348687E+01  0.32611598038E+01  0.51100000000E-03 0.  1.
         12    1    3    3    0    0  0.13715799124E+02  0.12211254282E+01  0.41453172492E+02  0.43680428141E+02  0.00000000000E+00 0. -1.
</event>
<event>
 7    1  0.4520156E-012  0.5052889E+02  0.7816164E-02  0.1300439E+00
        -11   -1    0    0    0    0  0.00000000000E+00  0.00000000000E+00  0.45593999997E+02  0.45594000000E+02  0.51100000000E-03 0. -1.
         11   -1    0    0    0    0 -0.00000000000E+00 -0.00000000000E+00 -0.45593999997E+02  0.45594000000E+02  0.51100000000E-03 0.  1.
    9900012    2    1    2    0    0 -0.20408368807E+02 -0.29267901018E+02 -0.19494906225E+02  0.50528893811E+02  0.30000103228E+02 0.  0.
         12    1    1    2    0    0  0.20408368807E+02  0.29267901018E+02  0.19494906225E+02  0.40659106189E+02  0.00000000000E+00 0. -1.
         11    1    3    3    0    0 -0.87637368014E-02 -0.54723314705E+01  0.33189185150E+01  0.64001335062E+01  0.51100000000E-03 0. -1.
        -11    1    3    3    0    0 -0.22680903181E+02 -0.24509688417E+02 -0.16239105879E+02  0.37132960499E+02  0.51100000000E-03 0.  1.
         12    1    3    3    0    0  0.22812981106E+01  0.71411886955E+00 -0.65747188605E+01  0.69957998059E+01  0.00000000000E+00 0. -1.
</event>
<event>
 7    1  0.4520156E-012  0.5052888E+02  0.7816164E-02  0.1300439E+00
        -11   -1    0    0    0    0  0.00000000000E+00  0.00000000000E+00  0.45593999997E+02  0.45594000000E+02  0.51100000000E-03 0. -1.
         11   -1    0    0    0    0 -0.00000000000E+00 -0.00000000000E+00 -0.45593999997E+02  0.45594000000E+02  0.51100000000E-03 0.  1.
    9900012    2    1    2    0    0  0.41709277495E+01 -0.29547304043E+02  0.27617456985E+02  0.50528883620E+02  0.30000072250E+02 0.  0.
        -12    1    1    2    0    0 -0.41709277495E+01  0.29547304043E+02 -0.27617456985E+02  0.40659116380E+02  0.00000000000E+00 0.  1.
         11    1    3    3    0    0  0.87579327856E+01 -0.22411332042E+02  0.21096805476E+02  0.32000693619E+02  0.51100000000E-03 0. -1.
        -11    1    3    3    0    0  0.51734305011E+01 -0.82983698492E-01  0.95214440202E+00  0.52609741177E+01  0.51100000000E-03 0.  1.
        -12    1    3    3    0    0 -0.97604355371E+01 -0.70529883028E+01  0.55685071072E+01  0.13267215883E+02  0.00000000000E+00 0.  1.
</event>
<event>
 7    1  0.4520156E-012  0.5052884E+02  0.7816164E-02  0.1300439E+00
        -11   -1    0    0    0    0  0.00000000000E+00  0.00000000000E+00  0.45593999997E+02  0.45594000000E+02  0.51100000000E-03 0. -1.
         11   -1    0    0    0    0 -0.00000000000E+00 -0.00000000000E+00 -0.45593999997E+02  0.45594000000E+02  0.51100000000E-03 0.  1.
    9900012    2    1    2    0    0  0.18868529266E+02  0.19862517746E+02 -0.30043734885E+02  0.50528843421E+02  0.29999950063E+02 0.  0.
         12    1    1    2    0    0 -0.18868529266E+02 -0.19862517746E+02  0.30043734885E+02  0.40659156579E+02  0.00000000000E+00 0. -1.
         11    1    3    3    0    0 -0.96310566379E+00 -0.16828770723E+01 -0.41750756289E+01  0.46033579622E+01  0.51100000000E-03 0. -1.
        -11    1    3    3    0    0 -0.14766222153E+01  0.10426181496E+02 -0.17596873264E+02  0.20506965224E+02  0.51100000000E-03 0.  1.
        -12    1    3    3    0    0  0.21308257145E+02  0.11119213322E+02 -0.82717859917E+01  0.25418520235E+02  0.00000000000E+00 0.  1.
</event>
<event>
 7    1  0.4520156E-012  0.5052885E+02  0.7816164E-02  0.1300439E+00
        -11   -1    0    0    0    0  0.00000000000E+00  0.00000000000E+00  0.45593999997E+02  0.45594000000E+02  0.51100000000E-03 0. -1.
         11   -1    0    0    0    0 -0.00000000000E+00 -0.00000000000E+00 -0.45593999997E+02  0.45594000000E+02  0.51100000000E-03 0.  1.
    9900012    2    1    2    0    0 -0.21892268974E+02  0.28919199888E+02  0.18373219635E+02  0.50528846508E+02  0.29999959444E+02 0.  0.
        -12    1    1    2    0    0  0.21892268974E+02 -0.28919199888E+02 -0.18373219635E+02  0.40659153492E+02  0.00000000000E+00 0.  1.
         11    1    3    3    0    0 -0.12242190616E+01  0.20998491974E+02  0.16629554549E+02  0.26813755094E+02  0.51100000000E-03 0. -1.
        -11    1    3    3    0    0 -0.32243308335E+01  0.20988115882E+01 -0.28170931469E+01  0.47683680087E+01  0.51100000000E-03 0.  1.
        -12    1    3    3    0    0 -0.17443719078E+02  0.58218963253E+01  0.45607582336E+01  0.18946723405E+02  0.00000000000E+00 0.  1.
</event>
<event>
 7    1  0.4520156E-012  0.5052887E+02  0.7816164E-02  0.1300439E+00
        -11   -1    0    0    0    0  0.00000000000E+00  0.00000000000E+00  0.45593999997E+02  0.45594000000E+02  0.51100000000E-03 0. -1.
         11   -1    0    0    0    0 -0.00000000000E+00 -0.00000000000E+00 -0.45593999997E+02  0.45594000000E+02  0.51100000000E-03 0.  1.
    9900012    2    1    2    0    0 -0.22657616464E+02 -0.68300645096E+01  0.33062780301E+02  0.50528870567E+02  0.30000032574E+02 0.  0.
        -12    1    1    2    0    0  0.22657616464E+02  0.68300645096E+01 -0.33062780301E+02  0.40659129433E+02  0.00000000000E+00 0.  1.
         11    1    3    3    0    0  0.15747714227E+00  0.53842571882E-02  0.31683742247E+01  0.31722899504E+01  0.51100000000E-03 0. -1.
        -11    1    3    3    0    0 -0.15187817809E+02  0.91984433400E+01  0.20991204661E+02  0.27493851005E+02  0.51100000000E-03 0.  1.
         12    1    3    3    0    0 -0.76272757971E+01 -0.16033892107E+02  0.89032014152E+01  0.19862729611E+02  0.00000000000E+00 0. -1.
</event>
<event>
 7    1  0.4520156E-012  0.5052886E+02  0.7816164E-02  0.1300439E+00
        -11   -1    0    0    0    0  0.00000000000E+00  0.00000000000E+00  0.45593999997E+02  0.45594000000E+02  0.51100000000E-03 0.  1.
         11   -1    0    0    0    0 -0.00000000000E+00 -0.00000000000E+00 -0.45593999997E+02  0.45594000000E+02  0.51100000000E-03 0. -1.
    9900012    2    1    2    0    0  0.29445628636E+02  0.53678485940E+01  0.27519209275E+02  0.50528859288E+02  0.29999998293E+02 0.  0.
        -12    1    1    2    0    0 -0.29445628636E+02 -0.53678485940E+01 -0.27519209275E+02  0.40659140712E+02  0.00000000000E+00 0.  1.
         11    1    3    3    0    0 -0.38731850107E+00  0.94917126106E+01  0.78987747592E+01  0.12354483674E+02  0.51100000000E-03 0. -1.
        -11    1    3    3    0    0  0.89730246726E+01 -0.66863924429E+01  0.10205648560E+02  0.15145239465E+02  0.51100000000E-03 0.  1.
         12    1    3    3    0    0  0.20859922464E+02  0.25625284263E+01  0.94147859565E+01  0.23029136149E+02  0.00000000000E+00 0. -1.
</event>
<event>
 7    1  0.4520156E-012  0.5052888E+02  0.7816164E-02  0.1300439E+00
        -11   -1    0    0    0    0  0.00000000000E+00  0.00000000000E+00  0.45593999997E+02  0.45594000000E+02  0.51100000000E-03 0.  1.
         11   -1    0    0    0    0 -0.00000000000E+00 -0.00000000000E+00 -0.45593999997E+02  0.45594000000E+02  0.51100000000E-03 0. -1.
    9900012    2    1    2    0    0  0.36288532390E+02  0.18013541602E+02 -0.34379002941E+01  0.50528875286E+02  0.30000046918E+02 0.  0.
         12    1    1    2    0    0 -0.36288532390E+02 -0.18013541602E+02  0.34379002941E+01  0.40659124714E+02  0.00000000000E+00 0. -1.
         11    1    3    3    0    0  0.98208255594E+00  0.36412853363E+01 -0.96090480748E+00  0.38918868634E+01  0.51100000000E-03 0.  1.
        -11    1    3    3    0    0  0.30464623901E+01  0.54786465752E+01  0.92535990153E+01  0.11177011961E+02  0.51100000000E-03 0. -1.
         12    1    3    3    0    0  0.32259987444E+02  0.88936096909E+01 -0.11730594502E+02  0.35459976461E+02  0.00000000000E+00 0. -1.
</event>
<event>
 7    1  0.4520156E-012  0.5052884E+02  0.7816164E-02  0.1300439E+00
        -11   -1    0    0    0    0  0.00000000000E+00  0.00000000000E+00  0.45593999997E+02  0.45594000000E+02  0.51100000000E-03 0. -1.
         11   -1    0    0    0    0 -0.00000000000E+00 -0.00000000000E+00 -0.45593999997E+02  0.45594000000E+02  0.51100000000E-03 0.  1.
    9900012    2    1    2    0    0  0.29192445120E+02  0.23359338267E+01  0.28204816445E+02  0.50528842242E+02  0.29999946479E+02 0.  0.
        -12    1    1    2    0    0 -0.29192445120E+02 -0.23359338267E+01 -0.28204816445E+02  0.40659157758E+02  0.00000000000E+00 0.  1.
         11    1    3    3    0    0  0.24317902772E+02  0.19784537862E+01  0.27886074817E+02  0.37052771065E+02  0.51100000000E-03 0. -1.
        -11    1    3    3    0    0  0.39988899119E+01  0.27633240972E+01  0.57154252029E+01  0.75028771884E+01  0.51100000000E-03 0.  1.
        -12    1    3    3    0    0  0.87565243573E+00 -0.24058440567E+01 -0.53966835754E+01  0.59731939887E+01  0.00000000000E+00 0.  1.
</event>
<event>
 7    1  0.4520156E-012  0.5052885E+02  0.7816164E-02  0.1300439E+00
        -11   -1    0    0    0    0  0.00000000000E+00  0.00000000000E+00  0.45593999997E+02  0.45594000000E+02  0.51100000000E-03 0. -1.
         11   -1    0    0    0    0 -0.00000000000E+00 -0.00000000000E+00 -0.45593999997E+02  0.45594000000E+02  0.51100000000E-03 0.  1.
    9900012    2    1    2    0    0  0.89500985625E+01  0.55003486358E+01 -0.39278595731E+02  0.50528853649E+02  0.29999981152E+02 0.  0.
         12    1    1    2    0    0 -0.89500985625E+01 -0.55003486358E+01  0.39278595731E+02  0.40659146351E+02  0.00000000000E+00 0. -1.
         11    1    3    3    0    0 -0.37906348937E+01 -0.33476012391E+01 -0.68342744425E+01  0.85019206283E+01  0.51100000000E-03 0. -1.
        -11    1    3    3    0    0  0.35256474884E+01 -0.62191443720E+01 -0.31321203954E+01  0.78050064295E+01  0.51100000000E-03 0.  1.
        -12    1    3    3    0    0  0.92150859677E+01  0.15067094247E+02 -0.29312200893E+02  0.34221926591E+02  0.00000000000E+00 0.  1.
</event>
<event>
 7    1  0.4520156E-012  0.5052888E+02  0.7816164E-02  0.1300439E+00
        -11   -1    0    0    0    0  0.00000000000E+00  0.00000000000E+00  0.45593999997E+02  0.45594000000E+02  0.51100000000E-03 0. -1.
         11   -1    0    0    0    0 -0.00000000000E+00 -0.00000000000E+00 -0.45593999997E+02  0.45594000000E+02  0.51100000000E-03 0.  1.
    9900012    2    1    2    0    0 -0.11280586231E+02 -0.48388419296E+01  0.38762073182E+02  0.50528876371E+02  0.30000050216E+02 0.  0.
        -12    1    1    2    0    0  0.11280586231E+02  0.48388419296E+01 -0.38762073182E+02  0.40659123629E+02  0.00000000000E+00 0.  1.
         11    1    3    3    0    0 -0.40112249132E+01 -0.38073045317E+01  0.36951070884E+01  0.66512637715E+01  0.51100000000E-03 0. -1.
        -11    1    3    3    0    0 -0.11315963518E+02 -0.21881239391E+01  0.35199473002E+01  0.12051097293E+02  0.51100000000E-03 0.  1.
        -12    1    3    3    0    0  0.40466021997E+01  0.11565865413E+01  0.31547018793E+02  0.31826515306E+02  0.00000000000E+00 0.  1.
</event>
<event>
 7    1  0.4520156E-012  0.5052885E+02  0.7816164E-02  0.1300439E+00
        -11   -1    0    0    0    0  0.00000000000E+00  0.00000000000E+00  0.45593999997E+02  0.45594000000E+02  0.51100000000E-03 0. -1.
         11   -1    0    0    0    0 -0.00000000000E+00 -0.00000000000E+00 -0.45593999997E+02  0.45594000000E+02  0.51100000000E-03 0.  1.
    9900012    2    1    2    0    0  0.15726238065E+02  0.16646933245E+02 -0.33596597361E+02  0.50528852144E+02  0.29999976576E+02 0.  0.
         12    1    1    2    0    0 -0.15726238065E+02 -0.16646933245E+02  0.33596597361E+02  0.40659147856E+02  0.00000000000E+00 0. -1.
         11    1    3    3    0    0 -0.25791924440E+00 -0.14883798372E+01 -0.25576299514E+01  0.29703986443E+01  0.51100000000E-03 0. -1.
        -11    1    3    3    0    0 -0.92434081726E+00 -0.53223711938E+01 -0.38170943995E+00  0.54155095262E+01  0.51100000000E-03 0.  1.
        -12    1    3    3    0    0  0.16908498127E+02  0.23457684276E+02 -0.30657257970E+02  0.42142943973E+02  0.00000000000E+00 0.  1.
</event>
<event>
 7    1  0.4520156E-012  0.5052886E+02  0.7816164E-02  0.1300439E+00
        -11   -1    0    0    0    0  0.00000000000E+00  0.00000000000E+00  0.45593999997E+02  0.45594000000E+02  0.51100000000E-03 0. -1.
         11   -1    0    0    0    0 -0.00000000000E+00 -0.00000000000E+00 -0.45593999997E+02  0.45594000000E+02  0.51100000000E-03 0.  1.
    9900012    2    1    2    0    0 -0.20376517973E+02  0.12132615592E+02 -0.33026700641E+02  0.50528858333E+02  0.29999995390E+02 0.  0.
         12    1    1    2    0    0  0.20376517973E+02 -0.12132615592E+02  0.33026700641E+02  0.40659141667E+02  0.00000000000E+00 0. -1.
         11    1    3    3    0    0 -0.16389677772E+01  0.24392106861E+00  0.95921781606E+00  0.19146310199E+01  0.51100000000E-03 0. -1.
        -11    1    3    3    0    0 -0.81472252405E+01  0.14476488892E+02 -0.45487323334E+01  0.17223152320E+02  0.51100000000E-03 0.  1.
        -12    1    3    3    0    0 -0.10590324955E+02 -0.25877943677E+01 -0.29437186124E+02  0.31391074993E+02  0.00000000000E+00 0.  1.
</event>
<event>
 7    1  0.6592131E-012  0.5052882E+02  0.7816164E-02  0.1300439E+00
        -11   -1    0    0    0    0  0.00000000000E+00  0.00000000000E+00  0.45593999997E+02  0.45594000000E+02  0.51100000000E-03 0. -1.
         11   -1    0    0    0    0 -0.00000000000E+00 -0.00000000000E+00 -0.45593999997E+02  0.45594000000E+02  0.51100000000E-03 0.  1.
    9900012    2    1    2    0    0 -0.58544420060E+01  0.23222999331E+02  0.32857062666E+02  0.50528821994E+02  0.29999884931E+02 0.  0.
        -12    1    1    2    0    0  0.58544420060E+01 -0.23222999331E+02 -0.32857062666E+02  0.40659178006E+02  0.00000000000E+00 0.  1.
         11    1    3    3    0    0 -0.32246683951E+00  0.63831851935E+01 -0.16527149358E+01  0.66015532261E+01  0.51100000000E-03 0. -1.
        -11    1    3    3    0    0  0.38534709882E+00 -0.27888109392E+01 -0.94691138179E+00  0.29702862264E+01  0.51100000000E-03 0.  1.
         12    1    3    3    0    0 -0.59173222653E+01  0.19628625077E+02  0.35456688983E+02  0.40956982541E+02  0.00000000000E+00 0. -1.
</event>
<event>
 7    1  0.4520156E-012  0.5052887E+02  0.7816164E-02  0.1300439E+00
        -11   -1    0    0    0    0  0.00000000000E+00  0.00000000000E+00  0.45593999997E+02  0.45594000000E+02  0.51100000000E-03 0. -1.
         11   -1    0    0    0    0 -0.00000000000E+00 -0.00000000000E+00 -0.45593999997E+02  0.45594000000E+02  0.51100000000E-03 0.  1.
    9900012    2    1    2    0    0  0.34633800991E+02 -0.43401593678E+01  0.20852532300E+02  0.50528865015E+02  0.30000015699E+02 0.  0.
        -12    1    1    2    0    0 -0.34633800991E+02  0.43401593678E+01 -0.20852532300E+02  0.40659134985E+02  0.00000000000E+00 0.  1.
         11    1    3    3    0    0  0.14779466168E+02  0.32764305640E+01  0.19855725951E+02  0.24968329354E+02  0.51100000000E-03 0. -1.
        -11    1    3    3    0    0  0.25753802544E+01 -0.43558272902E+01  0.54341541874E+01  0.74253516301E+01  0.51100000000E-03 0.  1.
         12    1    3    3    0    0  0.17278954569E+02 -0.32607626416E+01 -0.44373478379E+01  0.18135184031E+02  0.00000000000E+00 0. -1.
</event>
<event>
 7    1  0.4520156E-012  0.5052885E+02  0.7816164E-02  0.1300439E+00
        -11   -1    0    0    0    0  0.00000000000E+00  0.00000000000E+00  0.45593999997E+02  0.45594000000E+02  0.51100000000E-03 0. -1.
         11   -1    0    0    0    0 -0.00000000000E+00 -0.00000000000E+00 -0.45593999997E+02  0.45594000000E+02  0.51100000000E-03 0.  1.
    9900012    2    1    2    0    0 -0.25206179886E+02 -0.21506986224E+01 -0.31830639563E+02  0.50528848213E+02  0.29999964629E+02 0.  0.
         12    1    1    2    0    0  0.25206179886E+02  0.21506986224E+01  0.31830639563E+02  0.40659151787E+02  0.00000000000E+00 0. -1.
         11    1    3    3    0    0  0.19845038633E+01 -0.13356762782E+01 -0.65560147141E+01  0.69787975967E+01  0.51100000000E-03 0. -1.
        -11    1    3    3    0    0 -0.47449324898E+01 -0.31543013729E+01  0.37226163131E+01  0.68060174816E+01  0.51100000000E-03 0.  1.
        -12    1    3    3    0    0 -0.22445751260E+02  0.23392790287E+01 -0.28997241162E+02  0.36744033135E+02  0.00000000000E+00 0.  1.
</event>
<event>
 7    1  0.4520156E-012  0.5052881E+02  0.7816164E-02  0.1300439E+00
        -11   -1    0    0    0    0  0.00000000000E+00  0.00000000000E+00  0.45593999997E+02  0.45594000000E+02  0.51100000000E-03 0. -1.
         11   -1    0    0    0    0 -0.00000000000E+00 -0.00000000000E+00 -0.45593999997E+02  0.45594000000E+02  0.51100000000E-03 0.  1.
    9900012    2    1    2    0    0 -0.18147594988E+02  0.14545300536E+02  0.33350692105E+02  0.50528811181E+02  0.29999852065E+02 0.  0.
        -12    1    1    2    0    0  0.18147594988E+02 -0.14545300536E+02 -0.33350692105E+02  0.40659188819E+02  0.00000000000E+00 0.  1.
         11    1    3    3    0    0 -0.12587985602E+02  0.28992172496E+01  0.11994014519E+02  0.17627229695E+02  0.51100000000E-03 0. -1.
        -11    1    3    3    0    0 -0.13477328818E+02  0.10030479970E+02  0.12707963666E+02  0.21065167014E+02  0.51100000000E-03 0.  1.
        -12    1    3    3    0    0  0.79177194324E+01  0.16156033164E+01  0.86487139204E+01  0.11836414472E+02  0.00000000000E+00 0.  1.
</event>
<event>
 7    1  0.4520156E-012  0.5052889E+02  0.7816164E-02  0.1300439E+00
        -11   -1    0    0    0    0  0.00000000000E+00  0.00000000000E+00  0.45593999997E+02  0.45594000000E+02  0.51100000000E-03 0. -1.
         11   -1    0    0    0    0 -0.00000000000E+00 -0.00000000000E+00 -0.45593999997E+02  0.45594000000E+02  0.51100000000E-03 0.  1.
    9900012    2    1    2    0    0  0.18221496592E+02 -0.26707344229E+02 -0.24654780874E+02  0.50528887937E+02  0.30000085374E+02 0.  0.
         12    1    1    2    0    0 -0.18221496592E+02  0.26707344229E+02  0.24654780874E+02  0.40659112063E+02  0.00000000000E+00 0. -1.
         11    1    3    3    0    0 -0.82264384083E+00 -0.89426828150E+00 -0.98410407914E+01  0.99157724241E+01  0.51100000000E-03 0. -1.
        -11    1    3    3    0    0  0.16644991931E+02 -0.27012638295E+02 -0.17975210985E+02  0.36467061772E+02  0.51100000000E-03 0.  1.
         12    1    3    3    0    0  0.23991485013E+01  0.11995623481E+01  0.31614709024E+01  0.41460537412E+01  0.00000000000E+00 0. -1.
</event>
<event>
 7    1  0.4520156E-012  0.5052886E+02  0.7816164E-02  0.1300439E+00
        -11   -1    0    0    0    0  0.00000000000E+00  0.00000000000E+00  0.45593999997E+02  0.45594000000E+02  0.51100000000E-03 0. -1.
         11   -1    0    0    0    0 -0.00000000000E+00 -0.00000000000E+00 -0.45593999997E+02  0.45594000000E+02  0.51100000000E-03 0.  1.
    9900012    2    1    2    0    0 -0.13761848051E+02 -0.29466536513E+02 -0.24402878285E+02  0.50528859522E+02  0.29999999003E+02 0.  0.
         12    1    1    2    0    0  0.13761848051E+02  0.29466536513E+02  0.24402878285E+02  0.40659140478E+02  0.00000000000E+00 0. -1.
         11    1    3    3    0    0 -0.76445195213E+01 -0.16858044928E+01 -0.14768508898E+02  0.16714947527E+02  0.51100000000E-03 0. -1.
        -11    1    3    3    0    0  0.20079159114E+01  0.16180835410E+00 -0.35545185316E+01  0.40856468892E+01  0.51100000000E-03 0.  1.
        -12    1    3    3    0    0 -0.81252444408E+01 -0.27942540374E+02 -0.60798508550E+01  0.29728265106E+02  0.00000000000E+00 0.  1.
</event>
<event>
 7    1  0.4520156E-012  0.5052879E+02  0.7816164E-02  0.1300439E+00
        -11   -1    0    0    0    0  0.00000000000E+00  0.00000000000E+00  0.45593999997E+02  0.45594000000E+02  0.51100000000E-03 0. -1.
         11   -1    0    0    0    0 -0.00000000000E+00 -0.00000000000E+00 -0.45593999997E+02  0.45594000000E+02  0.51100000000E-03 0.  1.
    9900012    2    1    2    0    0  0.15387606943E+02 -0.85339598482E+01 -0.36654664068E+02  0.50528790513E+02  0.29999789243E+02 0.  0.
         12    1    1    2    0    0 -0.15387606943E+02  0.85339598482E+01  0.36654664068E+02  0.40659209487E+02  0.00000000000E+00 0. -1.
         11    1    3    3    0    0 -0.38395995675E+01 -0.76984561946E+01 -0.48484064680E+01  0.98750087675E+01  0.51100000000E-03 0. -1.
        -11    1    3    3    0    0 -0.27597148580E+01  0.46641312305E-01 -0.68315925817E+01  0.73680973781E+01  0.51100000000E-03 0.  1.
         12    1    3    3    0    0  0.21986921369E+02 -0.88214496590E+00 -0.24974665019E+02  0.33285684368E+02  0.00000000000E+00 0. -1.
</event>
<event>
 7    1  0.4520156E-012  0.5052886E+02  0.7816164E-02  0.1300439E+00
        -11   -1    0    0    0    0  0.00000000000E+00  0.00000000000E+00  0.45593999997E+02  0.45594000000E+02  0.51100000000E-03 0.  1.
         11   -1    0    0    0    0 -0.00000000000E+00 -0.00000000000E+00 -0.45593999997E+02  0.45594000000E+02  0.51100000000E-03 0. -1.
    9900012    2    1    2    0    0  0.37249160848E+02  0.13359828467E+02 -0.93370530018E+01  0.50528861307E+02  0.30000004427E+02 0.  0.
         12    1    1    2    0    0 -0.37249160848E+02 -0.13359828467E+02  0.93370530018E+01  0.40659138693E+02  0.00000000000E+00 0. -1.
         11    1    3    3    0    0  0.13965844586E+01  0.14756972295E+01 -0.54205981553E+00  0.21028455882E+01  0.51100000000E-03 0. -1.
        -11    1    3    3    0    0  0.10606288536E+02  0.18251362557E+02 -0.55590641843E+00  0.21116690648E+02  0.51100000000E-03 0.  1.
         12    1    3    3    0    0  0.25246287853E+02 -0.63672313195E+01 -0.82390867678E+01  0.27309325071E+02  0.00000000000E+00 0. -1.
</event>
<event>
 7    1  0.4520156E-012  0.5052887E+02  0.7816164E-02  0.1300439E+00
        -11   -1    0    0    0    0  0.00000000000E+00  0.00000000000E+00  0.45593999997E+02  0.45594000000E+02  0.51100000000E-03 0.  1.
         11   -1    0    0    0    0 -0.00000000000E+00 -0.00000000000E+00 -0.45593999997E+02  0.45594000000E+02  0.51100000000E-03 0. -1.
    9900012    2    1    2    0    0  0.20867878675E+02 -0.34799440751E+02  0.25875963766E+01  0.50528867053E+02  0.30000021895E+02 0.  0.
         12    1    1    2    0    0 -0.20867878675E+02  0.34799440751E+02 -0.25875963766E+01  0.40659132947E+02  0.00000000000E+00 0. -1.
         11    1    3    3    0    0 -0.14278095163E+01 -0.61352789880E+01 -0.47794787387E+01  0.79071932789E+01  0.51100000000E-03 0. -1.
        -11    1    3    3    0    0  0.29445503570E+01  0.22440411641E+01 -0.29391958472E+01  0.47270466510E+01  0.51100000000E-03 0.  1.
        -12    1    3    3    0    0  0.19351137834E+02 -0.30908202927E+02  0.10306270963E+02  0.37894627123E+02  0.00000000000E+00 0.  1.
</event>
<event>
 7    1  0.4520156E-012  0.5052886E+02  0.7816164E-02  0.1300439E+00
        -11   -1    0    0    0    0  0.00000000000E+00  0.00000000000E+00  0.45593999997E+02  0.45594000000E+02  0.51100000000E-03 0. -1.
         11   -1    0    0    0    0 -0.00000000000E+00 -0.00000000000E+00 -0.45593999997E+02  0.45594000000E+02  0.51100000000E-03 0.  1.
    9900012    2    1    2    0    0  0.30891641918E+02 -0.89952945753E+01 -0.24858739457E+02  0.50528858441E+02  0.29999995719E+02 0.  0.
         12    1    1    2    0    0 -0.30891641918E+02  0.89952945753E+01  0.24858739457E+02  0.40659141559E+02  0.00000000000E+00 0. -1.
         11    1    3    3    0    0  0.22381829142E+01 -0.39323950645E+01  0.23373696442E+01  0.50927881181E+01  0.51100000000E-03 0. -1.
        -11    1    3    3    0    0  0.30156665458E+02 -0.53552929478E+01 -0.16811094718E+02  0.34938754128E+02  0.51100000000E-03 0.  1.
         12    1    3    3    0    0 -0.15032064547E+01  0.29239343707E+00 -0.10385014383E+02  0.10497316195E+02  0.00000000000E+00 0. -1.
</event>
<event>
 7    1  0.4520156E-012  0.5052886E+02  0.7816164E-02  0.1300439E+00
        -11   -1    0    0    0    0  0.00000000000E+00  0.00000000000E+00  0.45593999997E+02  0.45594000000E+02  0.51100000000E-03 0. -1.
         11   -1    0    0    0    0 -0.00000000000E+00 -0.00000000000E+00 -0.45593999997E+02  0.45594000000E+02  0.51100000000E-03 0.  1.
    9900012    2    1    2    0    0  0.29095285638E+02  0.15281073931E+02 -0.23939902561E+02  0.50528858328E+02  0.29999995374E+02 0.  0.
         12    1    1    2    0    0 -0.29095285638E+02 -0.15281073931E+02  0.23939902561E+02  0.40659141672E+02  0.00000000000E+00 0. -1.
         11    1    3    3    0    0  0.90646170064E+01  0.62915554065E+01 -0.89530542525E+00  0.11070344302E+02  0.51100000000E-03 0. -1.
        -11    1    3    3    0    0  0.22654478058E+02  0.33762398500E+01 -0.99512149878E+01  0.24973006459E+02  0.51100000000E-03 0.  1.
         12    1    3    3    0    0 -0.26238094262E+01  0.56132786747E+01 -0.13093382148E+02  0.14485507567E+02  0.00000000000E+00 0. -1.
</event>
<event>
 7    1  0.4520156E-012  0.5052887E+02  0.7816164E-02  0.1300439E+00
        -11   -1    0    0    0    0  0.00000000000E+00  0.00000000000E+00  0.45593999997E+02  0.45594000000E+02  0.51100000000E-03 0.  1.
         11   -1    0    0    0    0 -0.00000000000E+00 -0.00000000000E+00 -0.45593999997E+02  0.45594000000E+02  0.51100000000E-03 0. -1.
    9900012    2    1    2    0    0  0.15527004294E+02 -0.37234450102E+02  0.50668480749E+01  0.50528867125E+02  0.30000022112E+02 0.  0.
        -12    1    1    2    0    0 -0.15527004294E+02  0.37234450102E+02 -0.50668480749E+01  0.40659132875E+02  0.00000000000E+00 0.  1.
         11    1    3    3    0    0 -0.17995105660E+01 -0.23552852280E+02  0.15165397136E+01  0.23670128470E+02  0.51100000000E-03 0. -1.
        -11    1    3    3    0    0 -0.13488021139E+00 -0.20809492880E+01  0.54244426743E+01  0.58114646345E+01  0.51100000000E-03 0.  1.
        -12    1    3    3    0    0  0.17461395072E+02 -0.11600648534E+02 -0.18741343130E+01  0.21047274020E+02  0.00000000000E+00 0.  1.
</event>
<event>
 7    1  0.4605362E-012  0.5052885E+02  0.7816164E-02  0.1300439E+00
        -11   -1    0    0    0    0  0.00000000000E+00  0.00000000000E+00  0.45593999997E+02  0.45594000000E+02  0.51100000000E-03 0. -1.
         11   -1    0    0    0    0 -0.00000000000E+00 -0.00000000000E+00 -0.45593999997E+02  0.45594000000E+02  0.51100000000E-03 0.  1.
    9900012    2    1    2    0    0  0.11485728407E+02  0.25933089551E+02  0.29132784278E+02  0.50528853299E+02  0.29999980087E+02 0.  0.
        -12    1    1    2    0    0 -0.11485728407E+02 -0.25933089551E+02 -0.29132784278E+02  0.40659146701E+02  0.00000000000E+00 0.  1.
         11    1    3    3    0    0  0.10779788274E+02  0.62895268876E+01 -0.23882960797E+00  0.12482749038E+02  0.51100000000E-03 0. -1.
        -11    1    3    3    0    0  0.29987710042E+01 -0.57105753520E+00  0.11632088258E+01  0.32667704660E+01  0.51100000000E-03 0.  1.
         12    1    3    3    0    0 -0.22928308718E+01  0.20214620199E+02  0.28208405060E+02  0.34779333795E+02  0.00000000000E+00 0. -1.
</event>
<event>
 7    1  0.4520156E-012  0.5052886E+02  0.7816164E-02  0.1300439E+00
        -11   -1    0    0    0    0  0.00000000000E+00  0.00000000000E+00  0.45593999997E+02  0.45594000000E+02  0.51100000000E-03 0. -1.
         11   -1    0    0    0    0 -0.00000000000E+00 -0.00000000000E+00 -0.45593999997E+02  0.45594000000E+02  0.51100000000E-03 0.  1.
    9900012    2    1    2    0    0 -0.56812216691E+01  0.24313643827E+01  0.40186790133E+02  0.50528856949E+02  0.29999991182E+02 0.  0.
        -12    1    1    2    0    0  0.56812216691E+01 -0.24313643827E+01 -0.40186790133E+02  0.40659143051E+02  0.00000000000E+00 0.  1.
         11    1    3    3    0    0 -0.11224057823E+02  0.71814512707E+01  0.31297467788E+02  0.34015940478E+02  0.51100000000E-03 0. -1.
        -11    1    3    3    0    0 -0.20893471842E+01 -0.45655109814E+01  0.31266153735E+00  0.50306082809E+01  0.51100000000E-03 0.  1.
        -12    1    3    3    0    0  0.76321833380E+01 -0.18457590659E+00  0.85766608078E+01  0.11482308191E+02  0.00000000000E+00 0.  1.
</event>
<event>
 7    1  0.4520156E-012  0.5052886E+02  0.7816164E-02  0.1300439E+00
        -11   -1    0    0    0    0  0.00000000000E+00  0.00000000000E+00  0.45593999997E+02  0.45594000000E+02  0.51100000000E-03 0. -1.
         11   -1    0    0    0    0 -0.00000000000E+00 -0.00000000000E+00 -0.45593999997E+02  0.45594000000E+02  0.51100000000E-03 0.  1.
    9900012    2    1    2    0    0  0.52738269252E+01  0.18538770932E+02  0.35800365052E+02  0.50528863069E+02  0.30000009785E+02 0.  0.
        -12    1    1    2    0    0 -0.52738269252E+01 -0.18538770932E+02 -0.35800365052E+02  0.40659136931E+02  0.00000000000E+00 0.  1.
         11    1    3    3    0    0  0.24352839781E+01  0.13520839138E+02  0.20069399305E+02  0.24321276443E+02  0.51100000000E-03 0. -1.
        -11    1    3    3    0    0 -0.71095577267E+01 -0.13157717319E+01  0.11682279557E+02  0.13738730736E+02  0.51100000000E-03 0.  1.
        -12    1    3    3    0    0  0.99481006738E+01  0.63337035252E+01  0.40486861903E+01  0.12468855891E+02  0.00000000000E+00 0.  1.
</event>
<event>
 7    1  0.4520156E-012  0.5052886E+02  0.7816164E-02  0.1300439E+00
        -11   -1    0    0    0    0  0.00000000000E+00  0.00000000000E+00  0.45593999997E+02  0.45594000000E+02  0.51100000000E-03 0. -1.
         11   -1    0    0    0    0 -0.00000000000E+00 -0.00000000000E+00 -0.45593999997E+02  0.45594000000E+02  0.51100000000E-03 0.  1.
    9900012    2    1    2    0    0 -0.32092274735E+02 -0.15037430991E+02 -0.19928052376E+02  0.50528859577E+02  0.29999999170E+02 0.  0.
         12    1    1    2    0    0  0.32092274735E+02  0.15037430991E+02  0.19928052376E+02  0.40659140423E+02  0.00000000000E+00 0. -1.
         11    1    3    3    0    0 -0.58259136755E+01 -0.89394380580E-02 -0.23342945450E+01  0.62761677282E+01  0.51100000000E-03 0. -1.
        -11    1    3    3    0    0 -0.23026847247E+02 -0.50076648424E+00 -0.26894231997E+01  0.23188778722E+02  0.51100000000E-03 0.  1.
        -12    1    3    3    0    0 -0.32395138121E+01 -0.14527725069E+02 -0.14904334631E+02  0.21063913126E+02  0.00000000000E+00 0.  1.
</event>
<event>
 7    1  0.4520156E-012  0.5052886E+02  0.7816164E-02  0.1300439E+00
        -11   -1    0    0    0    0  0.00000000000E+00  0.00000000000E+00  0.45593999997E+02  0.45594000000E+02  0.51100000000E-03 0.  1.
         11   -1    0    0    0    0 -0.00000000000E+00 -0.00000000000E+00 -0.45593999997E+02  0.45594000000E+02  0.51100000000E-03 0. -1.
    9900012    2    1    2    0    0  0.10412456999E+02  0.38830496666E+02  0.60777382003E+01  0.50528860392E+02  0.30000001646E+02 0.  0.
        -12    1    1    2    0    0 -0.10412456999E+02 -0.38830496666E+02 -0.60777382003E+01  0.40659139608E+02  0.00000000000E+00 0.  1.
         11    1    3    3    0    0  0.40146402208E+01 -0.56362554106E+00  0.22351978625E+01  0.46293757245E+01  0.51100000000E-03 0.  1.
        -11    1    3    3    0    0  0.11019855645E+02  0.36745551530E+02  0.79441383203E+01  0.39176295251E+02  0.51100000000E-03 0. -1.
         12    1    3    3    0    0 -0.46220388666E+01  0.26485706765E+01 -0.41015979825E+01  0.67231894159E+01  0.00000000000E+00 0. -1.
</event>
<event>
 7    1  0.4520156E-012  0.5052885E+02  0.7816164E-02  0.1300439E+00
        -11   -1    0    0    0    0  0.00000000000E+00  0.00000000000E+00  0.45593999997E+02  0.45594000000E+02  0.51100000000E-03 0. -1.
         11   -1    0    0    0    0 -0.00000000000E+00 -0.00000000000E+00 -0.45593999997E+02  0.45594000000E+02  0.51100000000E-03 0.  1.
    9900012    2    1    2    0    0  0.39088649042E+02  0.81199363960E+01 -0.77013411115E+01  0.50528849666E+02  0.29999969044E+02 0.  0.
         12    1    1    2    0    0 -0.39088649042E+02 -0.81199363960E+01  0.77013411115E+01  0.40659150334E+02  0.00000000000E+00 0. -1.
         11    1    3    3    0    0  0.45437327046E+00  0.60709202182E+01 -0.55019925323E+01  0.82057570919E+01  0.51100000000E-03 0. -1.
        -11    1    3    3    0    0  0.23077986694E+02  0.47154119489E+01 -0.88950961368E+01  0.25178389846E+02  0.51100000000E-03 0.  1.
         12    1    3    3    0    0  0.15556289077E+02 -0.26663957710E+01  0.66957475576E+01  0.17144702727E+02  0.00000000000E+00 0. -1.
</event>
<event>
 7    1  0.4520156E-012  0.5052885E+02  0.7816164E-02  0.1300439E+00
        -11   -1    0    0    0    0  0.00000000000E+00  0.00000000000E+00  0.45593999997E+02  0.45594000000E+02  0.51100000000E-03 0. -1.
         11   -1    0    0    0    0 -0.00000000000E+00 -0.00000000000E+00 -0.45593999997E+02  0.45594000000E+02  0.51100000000E-03 0.  1.
    9900012    2    1    2    0    0 -0.19194418590E+02  0.19647930881E+02 -0.29978316310E+02  0.50528851685E+02  0.29999975183E+02 0.  0.
         12    1    1    2    0    0  0.19194418590E+02 -0.19647930881E+02  0.29978316310E+02  0.40659148315E+02  0.00000000000E+00 0. -1.
         11    1    3    3    0    0 -0.15170450106E+00 -0.36606789472E+01 -0.22305153303E+01  0.42893803177E+01  0.51100000000E-03 0. -1.
        -11    1    3    3    0    0 -0.11478318465E+02  0.19434794411E+02 -0.29909211960E+02  0.37470308097E+02  0.51100000000E-03 0.  1.
         12    1    3    3    0    0 -0.75643956240E+01  0.38738154165E+01  0.21614109799E+01  0.87691632704E+01  0.00000000000E+00 0. -1.
</event>
<event>
 7    1  0.4520156E-012  0.5052886E+02  0.7816164E-02  0.1300439E+00
        -11   -1    0    0    0    0  0.00000000000E+00  0.00000000000E+00  0.45593999997E+02  0.45594000000E+02  0.51100000000E-03 0.  1.
         11   -1    0    0    0    0 -0.00000000000E+00 -0.00000000000E+00 -0.45593999997E+02  0.45594000000E+02  0.51100000000E-03 0. -1.
    9900012    2    1    2    0    0 -0.27744424191E+02 -0.21946977030E+02  0.20043522434E+02  0.50528859994E+02  0.30000000439E+02 0.  0.
        -12    1    1    2    0    0  0.27744424191E+02  0.21946977030E+02 -0.20043522434E+02  0.40659140006E+02  0.00000000000E+00 0.  1.
         11    1    3    3    0    0 -0.84570391895E+01 -0.19150439545E+02  0.20328241841E+02  0.29180443164E+02  0.51100000000E-03 0. -1.
        -11    1    3    3    0    0 -0.32572655562E+00 -0.62223581879E+00  0.20061229767E+01  0.21255128468E+01  0.51100000000E-03 0.  1.
        -12    1    3    3    0    0 -0.18961658446E+02 -0.21743016665E+01 -0.22908423837E+01  0.19222903984E+02  0.00000000000E+00 0.  1.
</event>
<event>
 7    1  0.4520156E-012  0.5052887E+02  0.7816164E-02  0.1300439E+00
        -11   -1    0    0    0    0  0.00000000000E+00  0.00000000000E+00  0.45593999997E+02  0.45594000000E+02  0.51100000000E-03 0. -1.
         11   -1    0    0    0    0 -0.00000000000E+00 -0.00000000000E+00 -0.45593999997E+02  0.45594000000E+02  0.51100000000E-03 0.  1.
    9900012    2    1    2    0    0 -0.39199412119E+02 -0.46278266265E+01  0.97547155850E+01  0.50528866144E+02  0.30000019132E+02 0.  0.
        -12    1    1    2    0    0  0.39199412119E+02  0.46278266265E+01 -0.97547155850E+01  0.40659133856E+02  0.00000000000E+00 0.  1.
         11    1    3    3    0    0 -0.27232656643E+02  0.19235324701E+01  0.17226514983E+01  0.27354800190E+02  0.51100000000E-03 0. -1.
        -11    1    3    3    0    0 -0.89297766461E+01 -0.16614106190E+01 -0.39317614208E+01  0.98974716127E+01  0.51100000000E-03 0.  1.
         12    1    3    3    0    0 -0.30369788299E+01 -0.48899484776E+01  0.11963825508E+02  0.13276594341E+02  0.00000000000E+00 0. -1.
</event>
<event>
 7    1  0.4520156E-012  0.5052891E+02  0.7816164E-02  0.1300439E+00
        -11   -1    0    0    0    0  0.00000000000E+00  0.00000000000E+00  0.45593999997E+02  0.45594000000E+02  0.51100000000E-03 0. -1.
         11   -1    0    0    0    0 -0.00000000000E+00 -0.00000000000E+00 -0.45593999997E+02  0.45594000000E+02  0.51100000000E-03 0.  1.
    9900012    2    1    2    0    0 -0.19045274801E+02 -0.34134320053E+02  0.11193175802E+02  0.50528911443E+02  0.30000156822E+02 0.  0.
        -12    1    1    2    0    0  0.19045274801E+02  0.34134320053E+02 -0.11193175802E+02  0.40659088557E+02  0.00000000000E+00 0.  1.
         11    1    3    3    0    0 -0.36040053997E+01 -0.17534469203E+02 -0.47684932542E+01  0.18525252854E+02  0.51100000000E-03 0. -1.
        -11    1    3    3    0    0 -0.36912001183E+01 -0.14225755159E+02  0.13080492138E+02  0.19674764115E+02  0.51100000000E-03 0.  1.
        -12    1    3    3    0    0 -0.11750069283E+02 -0.23740956919E+01  0.28811769182E+01  0.12328894473E+02  0.00000000000E+00 0.  1.
</event>
<event>
 7    1  0.4520156E-012  0.5052887E+02  0.7816164E-02  0.1300439E+00
        -11   -1    0    0    0    0  0.00000000000E+00  0.00000000000E+00  0.45593999997E+02  0.45594000000E+02  0.51100000000E-03 0. -1.
         11   -1    0    0    0    0 -0.00000000000E+00 -0.00000000000E+00 -0.45593999997E+02  0.45594000000E+02  0.51100000000E-03 0.  1.
    9900012    2    1    2    0    0  0.10521249391E+02  0.18775216304E+01  0.39229363440E+02  0.50528871478E+02  0.30000035345E+02 0.  0.
        -12    1    1    2    0    0 -0.10521249391E+02 -0.18775216304E+01 -0.39229363440E+02  0.40659128522E+02  0.00000000000E+00 0.  1.
         11    1    3    3    0    0  0.19730904162E+01  0.22341903122E+01  0.10472618206E+02  0.10888545564E+02  0.51100000000E-03 0. -1.
        -11    1    3    3    0    0  0.16274462085E+02  0.36285534019E+01  0.25266239659E+02  0.30272221305E+02  0.51100000000E-03 0.  1.
        -12    1    3    3    0    0 -0.77263031100E+01 -0.39852220836E+01  0.34905055745E+01  0.93681046092E+01  0.00000000000E+00 0.  1.
</event>
<event>
 7    1  0.4520156E-012  0.5052886E+02  0.7816164E-02  0.1300439E+00
        -11   -1    0    0    0    0  0.00000000000E+00  0.00000000000E+00  0.45593999997E+02  0.45594000000E+02  0.51100000000E-03 0. -1.
         11   -1    0    0    0    0 -0.00000000000E+00 -0.00000000000E+00 -0.45593999997E+02  0.45594000000E+02  0.51100000000E-03 0.  1.
    9900012    2    1    2    0    0 -0.27534307723E+01 -0.20679700949E+02  0.34898917602E+02  0.50528857582E+02  0.29999993107E+02 0.  0.
        -12    1    1    2    0    0  0.27534307723E+01  0.20679700949E+02 -0.34898917602E+02  0.40659142418E+02  0.00000000000E+00 0.  1.
         11    1    3    3    0    0  0.25816780247E+01 -0.52346748437E+01  0.22172804217E+02  0.22928151457E+02  0.51100000000E-03 0. -1.
        -11    1    3    3    0    0  0.62173126314E+01 -0.91413689666E+01  0.37636445408E+01  0.11678382740E+02  0.51100000000E-03 0.  1.
        -12    1    3    3    0    0 -0.11552421428E+02 -0.63036571388E+01  0.89624688445E+01  0.15922323385E+02  0.00000000000E+00 0.  1.
</event>
<event>
 7    1  0.4520156E-012  0.5052890E+02  0.7816164E-02  0.1300439E+00
        -11   -1    0    0    0    0  0.00000000000E+00  0.00000000000E+00  0.45593999997E+02  0.45594000000E+02  0.51100000000E-03 0. -1.
         11   -1    0    0    0    0 -0.00000000000E+00 -0.00000000000E+00 -0.45593999997E+02  0.45594000000E+02  0.51100000000E-03 0.  1.
    9900012    2    1    2    0    0  0.14591538051E+02  0.19493921155E+01 -0.37900513366E+02  0.50528904760E+02  0.30000136508E+02 0.  0.
         12    1    1    2    0    0 -0.14591538051E+02 -0.19493921155E+01  0.37900513366E+02  0.40659095240E+02  0.00000000000E+00 0. -1.
         11    1    3    3    0    0  0.58646135100E+01 -0.90009361824E+01 -0.47594353736E+01  0.11750011452E+02  0.51100000000E-03 0.  1.
        -11    1    3    3    0    0  0.25951904805E+00  0.87356311493E+01 -0.69559097646E+01  0.11169748548E+02  0.51100000000E-03 0. -1.
         12    1    3    3    0    0  0.84674054933E+01  0.22146971485E+01 -0.26185168228E+02  0.27609144760E+02  0.00000000000E+00 0. -1.
</event>
<event>
 7    1  0.4520156E-012  0.5052886E+02  0.7816164E-02  0.1300439E+00
        -11   -1    0    0    0    0  0.00000000000E+00  0.00000000000E+00  0.45593999997E+02  0.45594000000E+02  0.51100000000E-03 0. -1.
         11   -1    0    0    0    0 -0.00000000000E+00 -0.00000000000E+00 -0.45593999997E+02  0.45594000000E+02  0.51100000000E-03 0.  1.
    9900012    2    1    2    0    0  0.62031293273E+01  0.29822734644E+01 -0.40072345920E+02  0.50528859871E+02  0.30000000064E+02 0.  0.
         12    1    1    2    0    0 -0.62031293273E+01 -0.29822734644E+01  0.40072345920E+02  0.40659140129E+02  0.00000000000E+00 0. -1.
         11    1    3    3    0    0 -0.18496745920E+01  0.29826742458E+01 -0.77025637575E+01  0.84644627976E+01  0.51100000000E-03 0. -1.
        -11    1    3    3    0    0 -0.76764416257E+01  0.61159055825E+01 -0.14245781357E+02  0.17299547504E+02  0.51100000000E-03 0.  1.
        -12    1    3    3    0    0  0.15729245545E+02 -0.61163063639E+01 -0.18124000806E+02  0.24764849569E+02  0.00000000000E+00 0.  1.
</event>
<event>
 7    1  0.4520156E-012  0.5052887E+02  0.7816164E-02  0.1300439E+00
        -11   -1    0    0    0    0  0.00000000000E+00  0.00000000000E+00  0.45593999997E+02  0.45594000000E+02  0.51100000000E-03 0. -1.
         11   -1    0    0    0    0 -0.00000000000E+00 -0.00000000000E+00 -0.45593999997E+02  0.45594000000E+02  0.51100000000E-03 0.  1.
    9900012    2    1    2    0    0  0.22239626444E+02  0.10316024640E+02  0.32436765781E+02  0.50528866671E+02  0.30000020733E+02 0.  0.
        -12    1    1    2    0    0 -0.22239626444E+02 -0.10316024640E+02 -0.32436765781E+02  0.40659133329E+02  0.00000000000E+00 0.  1.
         11    1    3    3    0    0  0.14033965472E+02  0.95736579344E+01  0.22899134905E+02  0.28512760175E+02  0.51100000000E-03 0. -1.
        -11    1    3    3    0    0  0.59207141345E+01  0.76871946843E+01  0.10885057610E+02  0.14581916795E+02  0.51100000000E-03 0.  1.
         12    1    3    3    0    0  0.22849468379E+01 -0.69448279789E+01 -0.13474267347E+01  0.74341897012E+01  0.00000000000E+00 0. -1.
</event>
<event>
 7    1  0.4520156E-012  0.5052886E+02  0.7816164E-02  0.1300439E+00
        -11   -1    0    0    0    0  0.00000000000E+00  0.00000000000E+00  0.45593999997E+02  0.45594000000E+02  0.51100000000E-03 0. -1.
         11   -1    0    0    0    0 -0.00000000000E+00 -0.00000000000E+00 -0.45593999997E+02  0.45594000000E+02  0.51100000000E-03 0.  1.
    9900012    2    1    2    0    0  0.22143003613E+01  0.88222277044E+01  0.39628663019E+02  0.50528858833E+02  0.29999996910E+02 0.  0.
        -12    1    1    2    0    0 -0.22143003613E+01 -0.88222277044E+01 -0.39628663019E+02  0.40659141167E+02  0.00000000000E+00 0.  1.
         11    1    3    3    0    0  0.81001339658E+01 -0.82196974062E+00  0.16464447765E+02  0.18367521471E+02  0.51100000000E-03 0. -1.
        -11    1    3    3    0    0  0.23170013963E+01  0.55236228804E+01  0.22126855667E+02  0.22923277409E+02  0.51100000000E-03 0.  1.
        -12    1    3    3    0    0 -0.82028350008E+01  0.41205745647E+01  0.10373595868E+01  0.92380599535E+01  0.00000000000E+00 0.  1.
</event>
<event>
 7    1  0.4520156E-012  0.5052884E+02  0.7816164E-02  0.1300439E+00
        -11   -1    0    0    0    0  0.00000000000E+00  0.00000000000E+00  0.45593999997E+02  0.45594000000E+02  0.51100000000E-03 0. -1.
         11   -1    0    0    0    0 -0.00000000000E+00 -0.00000000000E+00 -0.45593999997E+02  0.45594000000E+02  0.51100000000E-03 0.  1.
    9900012    2    1    2    0    0 -0.12399071755E+02 -0.22363315379E+01 -0.38657844408E+02  0.50528842441E+02  0.29999947083E+02 0.  0.
         12    1    1    2    0    0  0.12399071755E+02  0.22363315379E+01  0.38657844408E+02  0.40659157559E+02  0.00000000000E+00 0. -1.
         11    1    3    3    0    0 -0.11625872120E+02  0.62587753202E+01 -0.28770914395E+02  0.31655942356E+02  0.51100000000E-03 0. -1.
        -11    1    3    3    0    0 -0.15339615178E+01 -0.20475442131E+01 -0.11824136343E+02  0.12097754988E+02  0.51100000000E-03 0.  1.
         12    1    3    3    0    0  0.76076188280E+00 -0.64475626451E+01  0.19372063303E+01  0.67751450959E+01  0.00000000000E+00 0. -1.
</event>
<event>
 7    1  0.4520156E-012  0.5052886E+02  0.7816164E-02  0.1300439E+00
        -11   -1    0    0    0    0  0.00000000000E+00  0.00000000000E+00  0.45593999997E+02  0.45594000000E+02  0.51100000000E-03 0. -1.
         11   -1    0    0    0    0 -0.00000000000E+00 -0.00000000000E+00 -0.45593999997E+02  0.45594000000E+02  0.51100000000E-03 0.  1.
    9900012    2    1    2    0    0 -0.11161850391E+02  0.39077199739E+02  0.12454966679E+01  0.50528859508E+02  0.29999998960E+02 0.  0.
        -12    1    1    2    0    0  0.11161850391E+02 -0.39077199739E+02 -0.12454966679E+01  0.40659140492E+02  0.00000000000E+00 0.  1.
         11    1    3    3    0    0 -0.16635065340E+02  0.37723891045E+02 -0.32138092692E+01  0.41353910634E+02  0.51100000000E-03 0. -1.
        -11    1    3    3    0    0 -0.80336900158E+00 -0.88893463532E+00  0.81953269478E-01  0.12009675841E+01  0.51100000000E-03 0.  1.
         12    1    3    3    0    0  0.62765839500E+01  0.22422433292E+01  0.43773526676E+01  0.79739812895E+01  0.00000000000E+00 0. -1.
</event>
<event>
 7    1  0.4520156E-012  0.5052887E+02  0.7816164E-02  0.1300439E+00
        -11   -1    0    0    0    0  0.00000000000E+00  0.00000000000E+00  0.45593999997E+02  0.45594000000E+02  0.51100000000E-03 0. -1.
         11   -1    0    0    0    0 -0.00000000000E+00 -0.00000000000E+00 -0.45593999997E+02  0.45594000000E+02  0.51100000000E-03 0.  1.
    9900012    2    1    2    0    0  0.10361286268E+02  0.82813704312E+01 -0.38434720018E+02  0.50528867542E+02  0.30000023382E+02 0.  0.
         12    1    1    2    0    0 -0.10361286268E+02 -0.82813704312E+01  0.38434720018E+02  0.40659132458E+02  0.00000000000E+00 0. -1.
         11    1    3    3    0    0  0.71840290701E+01  0.17982997891E+01  0.48858870918E+00  0.74217838152E+01  0.51100000000E-03 0. -1.
        -11    1    3    3    0    0 -0.16853993814E+01  0.87782137900E+01 -0.89277575930E+01  0.12633386890E+02  0.51100000000E-03 0.  1.
        -12    1    3    3    0    0  0.48626565792E+01 -0.22951431479E+01 -0.29995551134E+02  0.30473696837E+02  0.00000000000E+00 0.  1.
</event>
<event>
 7    1  0.4520156E-012  0.5052887E+02  0.7816164E-02  0.1300439E+00
        -11   -1    0    0    0    0  0.00000000000E+00  0.00000000000E+00  0.45593999997E+02  0.45594000000E+02  0.51100000000E-03 0. -1.
         11   -1    0    0    0    0 -0.00000000000E+00 -0.00000000000E+00 -0.45593999997E+02  0.45594000000E+02  0.51100000000E-03 0.  1.
    9900012    2    1    2    0    0  0.10197184254E+01 -0.88046191179E+01  0.39681281247E+02  0.50528865419E+02  0.30000016928E+02 0.  0.
        -12    1    1    2    0    0 -0.10197184254E+01  0.88046191179E+01 -0.39681281247E+02  0.40659134581E+02  0.00000000000E+00 0.  1.
         11    1    3    3    0    0 -0.23338647320E+01 -0.11898761635E+01  0.41864897678E+01  0.49385652480E+01  0.51100000000E-03 0. -1.
        -11    1    3    3    0    0 -0.31717126178E+01 -0.13464816711E+02  0.33991544327E+02  0.36698584931E+02  0.51100000000E-03 0.  1.
        -12    1    3    3    0    0  0.65252957752E+01  0.58500737564E+01  0.15032471523E+01  0.88917152400E+01  0.00000000000E+00 0.  1.
</event>
<event>
 7    1  0.4520156E-012  0.5052886E+02  0.7816164E-02  0.1300439E+00
        -11   -1    0    0    0    0  0.00000000000E+00  0.00000000000E+00  0.45593999997E+02  0.45594000000E+02  0.51100000000E-03 0. -1.
         11   -1    0    0    0    0 -0.00000000000E+00 -0.00000000000E+00 -0.45593999997E+02  0.45594000000E+02  0.51100000000E-03 0.  1.
    9900012    2    1    2    0    0 -0.43568181625E+01  0.99035815816E+01 -0.39193146829E+02  0.50528861409E+02  0.30000004738E+02 0.  0.
         12    1    1    2    0    0  0.43568181625E+01 -0.99035815816E+01  0.39193146829E+02  0.40659138591E+02  0.00000000000E+00 0. -1.
         11    1    3    3    0    0  0.10893436830E+01  0.12523145094E+01 -0.43661389020E+01  0.46709881677E+01  0.51100000000E-03 0.  1.
        -11    1    3    3    0    0 -0.13117026453E+02  0.13351601848E+02 -0.14658306425E+02  0.23773674567E+02  0.51100000000E-03 0. -1.
         12    1    3    3    0    0  0.76708646077E+01 -0.47003347760E+01 -0.20168701502E+02  0.22084198674E+02  0.00000000000E+00 0. -1.
</event>
<event>
 7    1  0.4520156E-012  0.5052886E+02  0.7816164E-02  0.1300439E+00
        -11   -1    0    0    0    0  0.00000000000E+00  0.00000000000E+00  0.45593999997E+02  0.45594000000E+02  0.51100000000E-03 0.  1.
         11   -1    0    0    0    0 -0.00000000000E+00 -0.00000000000E+00 -0.45593999997E+02  0.45594000000E+02  0.51100000000E-03 0. -1.
    9900012    2    1    2    0    0 -0.86601420465E+01  0.28871702140E+02 -0.27287217970E+02  0.50528861922E+02  0.30000006298E+02 0.  0.
         12    1    1    2    0    0  0.86601420465E+01 -0.28871702140E+02  0.27287217970E+02  0.40659138078E+02  0.00000000000E+00 0. -1.
         11    1    3    3    0    0  0.57151777861E+01  0.69677003965E+01 -0.12164323417E+02  0.15138786953E+02  0.51100000000E-03 0. -1.
        -11    1    3    3    0    0 -0.22235835418E+01  0.14837060865E+02 -0.15165876537E+02  0.21332756743E+02  0.51100000000E-03 0.  1.
        -12    1    3    3    0    0 -0.12151736291E+02  0.70669408784E+01  0.42981984093E-01  0.14057318226E+02  0.00000000000E+00 0.  1.
</event>
<event>
 7    1  0.4520156E-012  0.5052887E+02  0.7816164E-02  0.1300439E+00
        -11   -1    0    0    0    0  0.00000000000E+00  0.00000000000E+00  0.45593999997E+02  0.45594000000E+02  0.51100000000E-03 0. -1.
         11   -1    0    0    0    0 -0.00000000000E+00 -0.00000000000E+00 -0.45593999997E+02  0.45594000000E+02  0.51100000000E-03 0.  1.
    9900012    2    1    2    0    0  0.28122929313E+02 -0.12013093994E+02  0.26794610372E+02  0.50528871561E+02  0.30000035597E+02 0.  0.
        -12    1    1    2    0    0 -0.28122929313E+02  0.12013093994E+02 -0.26794610372E+02  0.40659128439E+02  0.00000000000E+00 0.  1.
         11    1    3    3    0    0 -0.97368652502E+00 -0.79237065885E+01  0.64154858222E+00  0.80090434132E+01  0.51100000000E-03 0. -1.
        -11    1    3    3    0    0  0.22368869429E-01 -0.41105860143E+01  0.54558212953E+01  0.68310617048E+01  0.51100000000E-03 0.  1.
         12    1    3    3    0    0  0.29074246968E+02  0.21198609199E-01  0.20697240494E+02  0.35688766443E+02  0.00000000000E+00 0. -1.
</event>
<event>
 7    1  0.4520156E-012  0.5052887E+02  0.7816164E-02  0.1300439E+00
        -11   -1    0    0    0    0  0.00000000000E+00  0.00000000000E+00  0.45593999997E+02  0.45594000000E+02  0.51100000000E-03 0. -1.
         11   -1    0    0    0    0 -0.00000000000E+00 -0.00000000000E+00 -0.45593999997E+02  0.45594000000E+02  0.51100000000E-03 0.  1.
    9900012    2    1    2    0    0 -0.36397000162E+01  0.31435152441E+02 -0.25529372672E+02  0.50528867026E+02  0.30000021812E+02 0.  0.
         12    1    1    2    0    0  0.36397000162E+01 -0.31435152441E+02  0.25529372672E+02  0.40659132974E+02  0.00000000000E+00 0. -1.
         11    1    3    3    0    0 -0.10132317673E+02  0.71321598656E+01 -0.33244027921E+01  0.12828999180E+02  0.51100000000E-03 0.  1.
        -11    1    3    3    0    0  0.58480078455E+01  0.56696810172E+01  0.68918532788E+00  0.81743168078E+01  0.51100000000E-03 0. -1.
        -12    1    3    3    0    0  0.64460981124E+00  0.18633311558E+02 -0.22894155207E+02  0.29525551038E+02  0.00000000000E+00 0.  1.
</event>
<event>
 7    1  0.4520156E-012  0.5052886E+02  0.7816164E-02  0.1300439E+00
        -11   -1    0    0    0    0  0.00000000000E+00  0.00000000000E+00  0.45593999997E+02  0.45594000000E+02  0.51100000000E-03 0. -1.
         11   -1    0    0    0    0 -0.00000000000E+00 -0.00000000000E+00 -0.45593999997E+02  0.45594000000E+02  0.51100000000E-03 0.  1.
    9900012    2    1    2    0    0 -0.31307348096E+02  0.18193308042E+02 -0.18493763401E+02  0.50528858505E+02  0.29999995913E+02 0.  0.
         12    1    1    2    0    0  0.31307348096E+02 -0.18193308042E+02  0.18493763401E+02  0.40659141495E+02  0.00000000000E+00 0. -1.
         11    1    3    3    0    0 -0.16356808151E+01 -0.41750889963E+01 -0.20463481155E+00  0.44887298341E+01  0.51100000000E-03 0. -1.
        -11    1    3    3    0    0 -0.20972853530E+02  0.62586232896E+01 -0.16950338793E+02  0.27682935829E+02  0.51100000000E-03 0.  1.
         12    1    3    3    0    0 -0.86988137515E+01  0.16109773749E+02 -0.13387897966E+01  0.18357192842E+02  0.00000000000E+00 0. -1.
</event>
<event>
 7    1  0.4520156E-012  0.5052887E+02  0.7816164E-02  0.1300439E+00
        -11   -1    0    0    0    0  0.00000000000E+00  0.00000000000E+00  0.45593999997E+02  0.45594000000E+02  0.51100000000E-03 0. -1.
         11   -1    0    0    0    0 -0.00000000000E+00 -0.00000000000E+00 -0.45593999997E+02  0.45594000000E+02  0.51100000000E-03 0.  1.
    9900012    2    1    2    0    0 -0.37026386460E+02  0.15435514451E+02 -0.66299846016E+01  0.50528866998E+02  0.30000021727E+02 0.  0.
        -12    1    1    2    0    0  0.37026386460E+02 -0.15435514451E+02  0.66299846016E+01  0.40659133002E+02  0.00000000000E+00 0.  1.
         11    1    3    3    0    0 -0.12716341959E+02  0.17683825811E+01 -0.11631082649E+02  0.17323816370E+02  0.51100000000E-03 0.  1.
        -11    1    3    3    0    0 -0.22538688489E+02  0.80573920073E+01 -0.20487613838E+01  0.24023144429E+02  0.51100000000E-03 0. -1.
         12    1    3    3    0    0 -0.17713560115E+01  0.56097398629E+01  0.70498594313E+01  0.91819061991E+01  0.00000000000E+00 0. -1.
</event>
<event>
 7    1  0.4520156E-012  0.5052889E+02  0.7816164E-02  0.1300439E+00
        -11   -1    0    0    0    0  0.00000000000E+00  0.00000000000E+00  0.45593999997E+02  0.45594000000E+02  0.51100000000E-03 0. -1.
         11   -1    0    0    0    0 -0.00000000000E+00 -0.00000000000E+00 -0.45593999997E+02  0.45594000000E+02  0.51100000000E-03 0.  1.
    9900012    2    1    2    0    0 -0.95930462093E+01 -0.17050680047E+02 -0.35642828941E+02  0.50528886870E+02  0.30000082129E+02 0.  0.
         12    1    1    2    0    0  0.95930462093E+01  0.17050680047E+02  0.35642828941E+02  0.40659113130E+02  0.00000000000E+00 0. -1.
         11    1    3    3    0    0 -0.25464075149E+01  0.42010060539E+01 -0.10138051414E+01  0.50160187622E+01  0.51100000000E-03 0. -1.
        -11    1    3    3    0    0 -0.23037731117E+01 -0.94028754643E+01 -0.30652480727E+02  0.32144922034E+02  0.51100000000E-03 0.  1.
        -12    1    3    3    0    0 -0.47428655827E+01 -0.11848810637E+02 -0.39765430720E+01  0.13367946074E+02  0.00000000000E+00 0.  1.
</event>
<event>
 7    1  0.4520156E-012  0.5052886E+02  0.7816164E-02  0.1300439E+00
        -11   -1    0    0    0    0  0.00000000000E+00  0.00000000000E+00  0.45593999997E+02  0.45594000000E+02  0.51100000000E-03 0. -1.
         11   -1    0    0    0    0 -0.00000000000E+00 -0.00000000000E+00 -0.45593999997E+02  0.45594000000E+02  0.51100000000E-03 0.  1.
    9900012    2    1    2    0    0 -0.15061599610E+02 -0.32339201260E+02  0.19506157375E+02  0.50528857160E+02  0.29999991824E+02 0.  0.
        -12    1    1    2    0    0  0.15061599610E+02  0.32339201260E+02 -0.19506157375E+02  0.40659142840E+02  0.00000000000E+00 0.  1.
         11    1    3    3    0    0  0.34419693139E+01 -0.66622157162E+01  0.26628711022E-01  0.74988652712E+01  0.51100000000E-03 0. -1.
        -11    1    3    3    0    0  0.21048977609E+01 -0.21182185397E+01 -0.31997487502E+01  0.43767381338E+01  0.51100000000E-03 0.  1.
         12    1    3    3    0    0 -0.20608466685E+02 -0.23558767004E+02  0.22679277414E+02  0.38653253755E+02  0.00000000000E+00 0. -1.
</event>
<event>
 7    1  0.4520156E-012  0.5052886E+02  0.7816164E-02  0.1300439E+00
        -11   -1    0    0    0    0  0.00000000000E+00  0.00000000000E+00  0.45593999997E+02  0.45594000000E+02  0.51100000000E-03 0. -1.
         11   -1    0    0    0    0 -0.00000000000E+00 -0.00000000000E+00 -0.45593999997E+02  0.45594000000E+02  0.51100000000E-03 0.  1.
    9900012    2    1    2    0    0 -0.23424079840E+02  0.44961522281E+01  0.32928143318E+02  0.50528861746E+02  0.30000005763E+02 0.  0.
        -12    1    1    2    0    0  0.23424079840E+02 -0.44961522281E+01 -0.32928143318E+02  0.40659138254E+02  0.00000000000E+00 0.  1.
         11    1    3    3    0    0 -0.15673707075E+01  0.75459981035E+01  0.70621431802E+01  0.10453353762E+02  0.51100000000E-03 0.  1.
        -11    1    3    3    0    0  0.11323083334E+01  0.44104877946E+01  0.10474723695E+02  0.11421661941E+02  0.51100000000E-03 0. -1.
        -12    1    3    3    0    0 -0.22989017466E+02 -0.74603336701E+01  0.15391276442E+02  0.28653846043E+02  0.00000000000E+00 0.  1.
</event>
<event>
 7    1  0.4520156E-012  0.5052885E+02  0.7816164E-02  0.1300439E+00
        -11   -1    0    0    0    0  0.00000000000E+00  0.00000000000E+00  0.45593999997E+02  0.45594000000E+02  0.51100000000E-03 0. -1.
         11   -1    0    0    0    0 -0.00000000000E+00 -0.00000000000E+00 -0.45593999997E+02  0.45594000000E+02  0.51100000000E-03 0.  1.
    9900012    2    1    2    0    0 -0.45407822701E+01 -0.58527773395E+01 -0.39978650021E+02  0.50528853874E+02  0.29999981834E+02 0.  0.
         12    1    1    2    0    0  0.45407822701E+01  0.58527773395E+01  0.39978650021E+02  0.40659146126E+02  0.00000000000E+00 0. -1.
         11    1    3    3    0    0  0.10311060869E+02  0.79393786681E+00 -0.22445596487E+02  0.24713419745E+02  0.51100000000E-03 0.  1.
        -11    1    3    3    0    0 -0.83627967638E+00 -0.22037904385E+01  0.63711757849E+00  0.24417155985E+01  0.51100000000E-03 0. -1.
        -12    1    3    3    0    0 -0.14015563462E+02 -0.44429247678E+01 -0.18170171113E+02  0.23373718530E+02  0.00000000000E+00 0.  1.
</event>
<event>
 7    1  0.4520156E-012  0.5052885E+02  0.7816164E-02  0.1300439E+00
        -11   -1    0    0    0    0  0.00000000000E+00  0.00000000000E+00  0.45593999997E+02  0.45594000000E+02  0.51100000000E-03 0. -1.
         11   -1    0    0    0    0 -0.00000000000E+00 -0.00000000000E+00 -0.45593999997E+02  0.45594000000E+02  0.51100000000E-03 0.  1.
    9900012    2    1    2    0    0  0.59761595979E+01 -0.29115675494E+02  0.27743994679E+02  0.50528852398E+02  0.29999977348E+02 0.  0.
        -12    1    1    2    0    0 -0.59761595979E+01  0.29115675494E+02 -0.27743994679E+02  0.40659147602E+02  0.00000000000E+00 0.  1.
         11    1    3    3    0    0 -0.51593926390E+01  0.53696348435E+00  0.79006544605E+01  0.94513492874E+01  0.51100000000E-03 0. -1.
        -11    1    3    3    0    0 -0.31841453177E+01 -0.13689003189E+02  0.11138563415E+02  0.17933075166E+02  0.51100000000E-03 0.  1.
        -12    1    3    3    0    0  0.14319697555E+02 -0.15963635789E+02  0.87047768036E+01  0.23144427944E+02  0.00000000000E+00 0.  1.
</event>
<event>
 7    1  0.4520156E-012  0.5052886E+02  0.7816164E-02  0.1300439E+00
        -11   -1    0    0    0    0  0.00000000000E+00  0.00000000000E+00  0.45593999997E+02  0.45594000000E+02  0.51100000000E-03 0. -1.
         11   -1    0    0    0    0 -0.00000000000E+00 -0.00000000000E+00 -0.45593999997E+02  0.45594000000E+02  0.51100000000E-03 0.  1.
    9900012    2    1    2    0    0  0.58593483306E+01 -0.97327679121E+01  0.39039807970E+02  0.50528863998E+02  0.30000012608E+02 0.  0.
        -12    1    1    2    0    0 -0.58593483306E+01  0.97327679121E+01 -0.39039807970E+02  0.40659136002E+02  0.00000000000E+00 0.  1.
         11    1    3    3    0    0  0.24944204872E+01  0.46045919663E+01  0.20961754605E+02  0.21606007431E+02  0.51100000000E-03 0. -1.
        -11    1    3    3    0    0 -0.60664316639E+01 -0.16513739371E+01  0.80036297834E+01  0.10177756088E+02  0.51100000000E-03 0.  1.
         12    1    3    3    0    0  0.94313595073E+01 -0.12685985941E+02  0.10074423582E+02  0.18745100479E+02  0.00000000000E+00 0. -1.
</event>
<event>
 7    1  0.4520156E-012  0.5052886E+02  0.7816164E-02  0.1300439E+00
        -11   -1    0    0    0    0  0.00000000000E+00  0.00000000000E+00  0.45593999997E+02  0.45594000000E+02  0.51100000000E-03 0. -1.
         11   -1    0    0    0    0 -0.00000000000E+00 -0.00000000000E+00 -0.45593999997E+02  0.45594000000E+02  0.51100000000E-03 0.  1.
    9900012    2    1    2    0    0 -0.18491654327E+02  0.33826180498E+02  0.12923387295E+02  0.50528859502E+02  0.29999998942E+02 0.  0.
        -12    1    1    2    0    0  0.18491654327E+02 -0.33826180498E+02 -0.12923387295E+02  0.40659140498E+02  0.00000000000E+00 0.  1.
         11    1    3    3    0    0 -0.18071509549E+01 -0.27141028611E+01 -0.22913112674E+00  0.32687383268E+01  0.51100000000E-03 0. -1.
        -11    1    3    3    0    0  0.22556007930E+01 -0.16271354077E+01  0.94513108264E+00  0.29374440585E+01  0.51100000000E-03 0.  1.
         12    1    3    3    0    0 -0.18940104165E+02  0.38167418767E+02  0.12207387339E+02  0.44322677117E+02  0.00000000000E+00 0. -1.
</event>
<event>
 7    1  0.4520156E-012  0.5052887E+02  0.7816164E-02  0.1300439E+00
        -11   -1    0    0    0    0  0.00000000000E+00  0.00000000000E+00  0.45593999997E+02  0.45594000000E+02  0.51100000000E-03 0. -1.
         11   -1    0    0    0    0 -0.00000000000E+00 -0.00000000000E+00 -0.45593999997E+02  0.45594000000E+02  0.51100000000E-03 0.  1.
    9900012    2    1    2    0    0 -0.30518617432E+02 -0.96156550291E+01 -0.25086216559E+02  0.50528867043E+02  0.30000021864E+02 0.  0.
         12    1    1    2    0    0  0.30518617432E+02  0.96156550291E+01  0.25086216559E+02  0.40659132957E+02  0.00000000000E+00 0. -1.
         11    1    3    3    0    0 -0.16871599491E+01 -0.52360372892E+01 -0.57213543964E+01  0.79370329203E+01  0.51100000000E-03 0. -1.
        -11    1    3    3    0    0 -0.21444495401E+02 -0.12960722189E+02 -0.18670421452E+02  0.31247901371E+02  0.51100000000E-03 0.  1.
        -12    1    3    3    0    0 -0.73869620820E+01  0.85811044490E+01 -0.69444071034E+00  0.11343932751E+02  0.00000000000E+00 0.  1.
</event>
<event>
 7    1  0.4520156E-012  0.5052880E+02  0.7816164E-02  0.1300439E+00
        -11   -1    0    0    0    0  0.00000000000E+00  0.00000000000E+00  0.45593999997E+02  0.45594000000E+02  0.51100000000E-03 0. -1.
         11   -1    0    0    0    0 -0.00000000000E+00 -0.00000000000E+00 -0.45593999997E+02  0.45594000000E+02  0.51100000000E-03 0.  1.
    9900012    2    1    2    0    0 -0.12455569149E+00  0.20625461515E+02 -0.35039191886E+02  0.50528804916E+02  0.29999833024E+02 0.  0.
         12    1    1    2    0    0  0.12455569149E+00 -0.20625461515E+02  0.35039191886E+02  0.40659195084E+02  0.00000000000E+00 0. -1.
         11    1    3    3    0    0 -0.25367655745E+01  0.17292161128E+01 -0.16905594113E+02  0.17182097675E+02  0.51100000000E-03 0. -1.
        -11    1    3    3    0    0 -0.39973106260E+00  0.11711708655E+02 -0.21841610831E+02  0.24786687324E+02  0.51100000000E-03 0.  1.
         12    1    3    3    0    0  0.28119409456E+01  0.71845367472E+01  0.37080130578E+01  0.85600199176E+01  0.00000000000E+00 0. -1.
</event>
<event>
 7    1  0.4520156E-012  0.5052886E+02  0.7816164E-02  0.1300439E+00
        -11   -1    0    0    0    0  0.00000000000E+00  0.00000000000E+00  0.45593999997E+02  0.45594000000E+02  0.51100000000E-03 0. -1.
         11   -1    0    0    0    0 -0.00000000000E+00 -0.00000000000E+00 -0.45593999997E+02  0.45594000000E+02  0.51100000000E-03 0.  1.
    9900012    2    1    2    0    0  0.14721426820E+02 -0.14715714988E+02 -0.34926967502E+02  0.50528859156E+02  0.29999997892E+02 0.  0.
         12    1    1    2    0    0 -0.14721426820E+02  0.14715714988E+02  0.34926967502E+02  0.40659140844E+02  0.00000000000E+00 0. -1.
         11    1    3    3    0    0 -0.17398492010E+01 -0.79234250200E+01 -0.60324890817E+01  0.10109335491E+02  0.51100000000E-03 0. -1.
        -11    1    3    3    0    0 -0.52560872776E+01 -0.59234822169E+00 -0.30838268086E+01  0.61226887829E+01  0.51100000000E-03 0.  1.
        -12    1    3    3    0    0  0.21717363299E+02 -0.61999417463E+01 -0.25810651612E+02  0.34296834882E+02  0.00000000000E+00 0.  1.
</event>
<event>
 7    1  0.4520156E-012  0.5052887E+02  0.7816164E-02  0.1300439E+00
        -11   -1    0    0    0    0  0.00000000000E+00  0.00000000000E+00  0.45593999997E+02  0.45594000000E+02  0.51100000000E-03 0. -1.
         11   -1    0    0    0    0 -0.00000000000E+00 -0.00000000000E+00 -0.45593999997E+02  0.45594000000E+02  0.51100000000E-03 0.  1.
    9900012    2    1    2    0    0 -0.84418338076E+01 -0.19221863236E+02 -0.34819829557E+02  0.50528866774E+02  0.30000021047E+02 0.  0.
         12    1    1    2    0    0  0.84418338076E+01  0.19221863236E+02  0.34819829557E+02  0.40659133226E+02  0.00000000000E+00 0. -1.
         11    1    3    3    0    0 -0.16861225662E+01  0.26781308918E-01 -0.62122996275E+01  0.64371106460E+01  0.51100000000E-03 0. -1.
        -11    1    3    3    0    0 -0.15720713856E+02 -0.14833044892E+02 -0.25908337474E+02  0.33740213631E+02  0.51100000000E-03 0.  1.
         12    1    3    3    0    0  0.89650026143E+01 -0.44155996534E+01 -0.26991924549E+01  0.10351542498E+02  0.00000000000E+00 0. -1.
</event>
<event>
 7    1  0.4520156E-012  0.5052887E+02  0.7816164E-02  0.1300439E+00
        -11   -1    0    0    0    0  0.00000000000E+00  0.00000000000E+00  0.45593999997E+02  0.45594000000E+02  0.51100000000E-03 0. -1.
         11   -1    0    0    0    0 -0.00000000000E+00 -0.00000000000E+00 -0.45593999997E+02  0.45594000000E+02  0.51100000000E-03 0.  1.
    9900012    2    1    2    0    0  0.80139918768E+01  0.75388056780E+01 -0.39142142213E+02  0.50528868752E+02  0.30000027057E+02 0.  0.
         12    1    1    2    0    0 -0.80139918768E+01 -0.75388056780E+01  0.39142142213E+02  0.40659131248E+02  0.00000000000E+00 0. -1.
         11    1    3    3    0    0  0.49020617548E+01 -0.68814445629E+01 -0.10041515811E+02  0.13123129534E+02  0.51100000000E-03 0. -1.
        -11    1    3    3    0    0  0.35574302108E+01 -0.22984526744E+01 -0.48758433383E+00  0.42633241896E+01  0.51100000000E-03 0.  1.
        -12    1    3    3    0    0 -0.44550008880E+00  0.16718702915E+02 -0.28613042069E+02  0.33142415028E+02  0.00000000000E+00 0.  1.
</event>
<event>
 7    1  0.4520156E-012  0.5052887E+02  0.7816164E-02  0.1300439E+00
        -11   -1    0    0    0    0  0.00000000000E+00  0.00000000000E+00  0.45593999997E+02  0.45594000000E+02  0.51100000000E-03 0.  1.
         11   -1    0    0    0    0 -0.00000000000E+00 -0.00000000000E+00 -0.45593999997E+02  0.45594000000E+02  0.51100000000E-03 0. -1.
    9900012    2    1    2    0    0  0.10347240165E+02  0.38793175602E+02  0.64178687305E+01  0.50528869521E+02  0.30000029395E+02 0.  0.
        -12    1    1    2    0    0 -0.10347240165E+02 -0.38793175602E+02 -0.64178687305E+01  0.40659130479E+02  0.00000000000E+00 0.  1.
         11    1    3    3    0    0  0.61302129490E+01  0.11148302812E+02  0.84228381507E+01  0.15258059155E+02  0.51100000000E-03 0. -1.
        -11    1    3    3    0    0  0.52140814440E+01  0.28906365970E+02  0.34583828681E+01  0.29575751068E+02  0.51100000000E-03 0.  1.
        -12    1    3    3    0    0 -0.99705422762E+00 -0.12614931810E+01 -0.54633522883E+01  0.56950592978E+01  0.00000000000E+00 0.  1.
</event>
<event>
 7    1  0.4520156E-012  0.5052882E+02  0.7816164E-02  0.1300439E+00
        -11   -1    0    0    0    0  0.00000000000E+00  0.00000000000E+00  0.45593999997E+02  0.45594000000E+02  0.51100000000E-03 0.  1.
         11   -1    0    0    0    0 -0.00000000000E+00 -0.00000000000E+00 -0.45593999997E+02  0.45594000000E+02  0.51100000000E-03 0. -1.
    9900012    2    1    2    0    0  0.29178426015E+01  0.38603329466E+02  0.12427307179E+02  0.50528821270E+02  0.29999882732E+02 0.  0.
         12    1    1    2    0    0 -0.29178426015E+01 -0.38603329466E+02 -0.12427307179E+02  0.40659178730E+02  0.00000000000E+00 0. -1.
         11    1    3    3    0    0  0.10966995462E+01  0.14471665789E+02  0.95656901285E+01  0.17382010485E+02  0.51100000000E-03 0. -1.
        -11    1    3    3    0    0 -0.72138185770E+01  0.21843765924E+02  0.50977316582E+01  0.23562176396E+02  0.51100000000E-03 0.  1.
         12    1    3    3    0    0  0.90349616322E+01  0.22878977522E+01 -0.22361146076E+01  0.95846343883E+01  0.00000000000E+00 0. -1.
</event>
<event>
 7    1  0.4520156E-012  0.5052881E+02  0.7816164E-02  0.1300439E+00
        -11   -1    0    0    0    0  0.00000000000E+00  0.00000000000E+00  0.45593999997E+02  0.45594000000E+02  0.51100000000E-03 0. -1.
         11   -1    0    0    0    0 -0.00000000000E+00 -0.00000000000E+00 -0.45593999997E+02  0.45594000000E+02  0.51100000000E-03 0.  1.
    9900012    2    1    2    0    0 -0.26387496377E+02 -0.35801441819E+01  0.30725436703E+02  0.50528808444E+02  0.29999843745E+02 0.  0.
        -12    1    1    2    0    0  0.26387496377E+02  0.35801441819E+01 -0.30725436703E+02  0.40659191556E+02  0.00000000000E+00 0.  1.
         11    1    3    3    0    0 -0.64392062424E+01  0.18545849453E+01  0.81280885673E+01  0.10534167569E+02  0.51100000000E-03 0. -1.
        -11    1    3    3    0    0  0.97387725702E+00  0.69714718614E+00  0.17582316947E+02  0.17623062180E+02  0.51100000000E-03 0.  1.
        -12    1    3    3    0    0 -0.20922167391E+02 -0.61318763133E+01  0.50150311888E+01  0.22371578695E+02  0.00000000000E+00 0.  1.
</event>
<event>
 7    1  0.4520156E-012  0.5052885E+02  0.7816164E-02  0.1300439E+00
        -11   -1    0    0    0    0  0.00000000000E+00  0.00000000000E+00  0.45593999997E+02  0.45594000000E+02  0.51100000000E-03 0. -1.
         11   -1    0    0    0    0 -0.00000000000E+00 -0.00000000000E+00 -0.45593999997E+02  0.45594000000E+02  0.51100000000E-03 0.  1.
    9900012    2    1    2    0    0 -0.25823517823E+02 -0.31181406764E+02 -0.37459323058E+01  0.50528853313E+02  0.29999980129E+02 0.  0.
        -12    1    1    2    0    0  0.25823517823E+02  0.31181406764E+02  0.37459323058E+01  0.40659146687E+02  0.00000000000E+00 0.  1.
         11    1    3    3    0    0 -0.30947840227E+01 -0.10588462348E+02 -0.13437992559E-01  0.11031473332E+02  0.51100000000E-03 0. -1.
        -11    1    3    3    0    0 -0.44678660456E+01 -0.19815815258E+02 -0.57436616476E+01  0.21109666286E+02  0.51100000000E-03 0.  1.
        -12    1    3    3    0    0 -0.18260867754E+02 -0.77712915869E+00  0.20111673344E+01  0.18387713695E+02  0.00000000000E+00 0.  1.
</event>
<event>
 7    1  0.4520156E-012  0.5052886E+02  0.7816164E-02  0.1300439E+00
        -11   -1    0    0    0    0  0.00000000000E+00  0.00000000000E+00  0.45593999997E+02  0.45594000000E+02  0.51100000000E-03 0. -1.
         11   -1    0    0    0    0 -0.00000000000E+00 -0.00000000000E+00 -0.45593999997E+02  0.45594000000E+02  0.51100000000E-03 0.  1.
    9900012    2    1    2    0    0  0.29180201383E+02  0.63988328677E+01 -0.27581455530E+02  0.50528857068E+02  0.29999991543E+02 0.  0.
         12    1    1    2    0    0 -0.29180201383E+02 -0.63988328677E+01  0.27581455530E+02  0.40659142932E+02  0.00000000000E+00 0. -1.
         11    1    3    3    0    0  0.19500496558E+02  0.35768195756E+01 -0.79987306718E+01  0.21378556942E+02  0.51100000000E-03 0. -1.
        -11    1    3    3    0    0  0.11565764080E+02  0.66272182969E+01 -0.54634377667E+01  0.14406112369E+02  0.51100000000E-03 0.  1.
         12    1    3    3    0    0 -0.18860592546E+01 -0.38052050047E+01 -0.14119287091E+02  0.14744187757E+02  0.00000000000E+00 0. -1.
</event>
<event>
 7    1  0.5047278E-012  0.5052886E+02  0.7816164E-02  0.1300439E+00
        -11   -1    0    0    0    0  0.00000000000E+00  0.00000000000E+00  0.45593999997E+02  0.45594000000E+02  0.51100000000E-03 0.  1.
         11   -1    0    0    0    0 -0.00000000000E+00 -0.00000000000E+00 -0.45593999997E+02  0.45594000000E+02  0.51100000000E-03 0. -1.
    9900012    2    1    2    0    0  0.22590246549E+02 -0.10893186644E+02  0.32002888979E+02  0.50528860100E+02  0.30000000760E+02 0.  0.
        -12    1    1    2    0    0 -0.22590246549E+02  0.10893186644E+02 -0.32002888979E+02  0.40659139900E+02  0.00000000000E+00 0.  1.
         11    1    3    3    0    0  0.14491279101E+02 -0.97833774189E+01  0.33746244668E+01  0.17807294411E+02  0.51100000000E-03 0. -1.
        -11    1    3    3    0    0 -0.13277039781E+01 -0.33104078480E+01  0.14137275634E+01  0.38366943921E+01  0.51100000000E-03 0.  1.
         12    1    3    3    0    0  0.94266714265E+01  0.22005986228E+01  0.27214536949E+02  0.28884871297E+02  0.00000000000E+00 0. -1.
</event>
<event>
 7    1  0.4520156E-012  0.5052884E+02  0.7816164E-02  0.1300439E+00
        -11   -1    0    0    0    0  0.00000000000E+00  0.00000000000E+00  0.45593999997E+02  0.45594000000E+02  0.51100000000E-03 0. -1.
         11   -1    0    0    0    0 -0.00000000000E+00 -0.00000000000E+00 -0.45593999997E+02  0.45594000000E+02  0.51100000000E-03 0.  1.
    9900012    2    1    2    0    0  0.40870899031E+01  0.29577772926E+02  0.27597429707E+02  0.50528842586E+02  0.29999947525E+02 0.  0.
        -12    1    1    2    0    0 -0.40870899031E+01 -0.29577772926E+02 -0.27597429707E+02  0.40659157414E+02  0.00000000000E+00 0.  1.
         11    1    3    3    0    0  0.18321315479E+01  0.22196962734E+02  0.18581068081E+02  0.29005481412E+02  0.51100000000E-03 0. -1.
        -11    1    3    3    0    0  0.29224725010E+01  0.12915757684E+02  0.35371775566E+01  0.13706541044E+02  0.51100000000E-03 0.  1.
         12    1    3    3    0    0 -0.66751414578E+00 -0.55349474920E+01  0.54791840695E+01  0.78168201298E+01  0.00000000000E+00 0. -1.
</event>
<event>
 7    1  0.4520156E-012  0.5052886E+02  0.7816164E-02  0.1300439E+00
        -11   -1    0    0    0    0  0.00000000000E+00  0.00000000000E+00  0.45593999997E+02  0.45594000000E+02  0.51100000000E-03 0. -1.
         11   -1    0    0    0    0 -0.00000000000E+00 -0.00000000000E+00 -0.45593999997E+02  0.45594000000E+02  0.51100000000E-03 0.  1.
    9900012    2    1    2    0    0  0.36424017009E+02  0.17676786654E+02 -0.37399982516E+01  0.50528863409E+02  0.30000010817E+02 0.  0.
         12    1    1    2    0    0 -0.36424017009E+02 -0.17676786654E+02  0.37399982516E+01  0.40659136591E+02  0.00000000000E+00 0. -1.
         11    1    3    3    0    0  0.27945337161E+01  0.18849631986E+01  0.23531445366E+01  0.41109359545E+01  0.51100000000E-03 0. -1.
        -11    1    3    3    0    0  0.23921032940E+02  0.23470141074E+02 -0.59684529638E+01  0.34039473704E+02  0.51100000000E-03 0.  1.
        -12    1    3    3    0    0  0.97084503521E+01 -0.76783176192E+01 -0.12468982436E+00  0.12378453750E+02  0.00000000000E+00 0.  1.
</event>
<event>
 7    1  0.4520156E-012  0.5052885E+02  0.7816164E-02  0.1300439E+00
        -11   -1    0    0    0    0  0.00000000000E+00  0.00000000000E+00  0.45593999997E+02  0.45594000000E+02  0.51100000000E-03 0.  1.
         11   -1    0    0    0    0 -0.00000000000E+00 -0.00000000000E+00 -0.45593999997E+02  0.45594000000E+02  0.51100000000E-03 0. -1.
    9900012    2    1    2    0    0  0.37178355607E+02 -0.10873826045E+02  0.12357020265E+02  0.50528853817E+02  0.29999981661E+02 0.  0.
         12    1    1    2    0    0 -0.37178355607E+02  0.10873826045E+02 -0.12357020265E+02  0.40659146183E+02  0.00000000000E+00 0. -1.
         11    1    3    3    0    0  0.94293686597E+01 -0.20995391628E+00 -0.33540067363E+01  0.10010316449E+02  0.51100000000E-03 0. -1.
        -11    1    3    3    0    0  0.29432379607E+02 -0.36716471918E+01  0.98897476398E+01  0.31265845120E+02  0.51100000000E-03 0.  1.
        -12    1    3    3    0    0 -0.16833926597E+01 -0.69922249364E+01  0.58212793617E+01  0.92526922469E+01  0.00000000000E+00 0.  1.
</event>
<event>
 7    1  0.4520156E-012  0.5052886E+02  0.7816164E-02  0.1300439E+00
        -11   -1    0    0    0    0  0.00000000000E+00  0.00000000000E+00  0.45593999997E+02  0.45594000000E+02  0.51100000000E-03 0. -1.
         11   -1    0    0    0    0 -0.00000000000E+00 -0.00000000000E+00 -0.45593999997E+02  0.45594000000E+02  0.51100000000E-03 0.  1.
    9900012    2    1    2    0    0 -0.40107721001E+02 -0.48277626133E+01 -0.46074901391E+01  0.50528861530E+02  0.30000005106E+02 0.  0.
        -12    1    1    2    0    0  0.40107721001E+02  0.48277626133E+01  0.46074901391E+01  0.40659138470E+02  0.00000000000E+00 0.  1.
         11    1    3    3    0    0 -0.64021963140E+01  0.35326013531E+01  0.36477312543E+01  0.81714951831E+01  0.51100000000E-03 0. -1.
        -11    1    3    3    0    0 -0.14439387647E+00  0.52819935515E+01 -0.16207745184E+01  0.55269535705E+01  0.51100000000E-03 0.  1.
         12    1    3    3    0    0 -0.33561130811E+02 -0.13642357518E+02 -0.66344468751E+01  0.36830412776E+02  0.00000000000E+00 0. -1.
</event>
<event>
 7    1  0.5259203E-012  0.5052882E+02  0.7816164E-02  0.1300439E+00
        -11   -1    0    0    0    0  0.00000000000E+00  0.00000000000E+00  0.45593999997E+02  0.45594000000E+02  0.51100000000E-03 0. -1.
         11   -1    0    0    0    0 -0.00000000000E+00 -0.00000000000E+00 -0.45593999997E+02  0.45594000000E+02  0.51100000000E-03 0.  1.
    9900012    2    1    2    0    0  0.17880504784E+02  0.11720319612E+01  0.36497714393E+02  0.50528815722E+02  0.29999865867E+02 0.  0.
        -12    1    1    2    0    0 -0.17880504784E+02 -0.11720319612E+01 -0.36497714393E+02  0.40659184278E+02  0.00000000000E+00 0.  1.
         11    1    3    3    0    0 -0.17912124658E+01  0.25134034613E-01  0.77328604360E+01  0.79376447767E+01  0.51100000000E-03 0. -1.
        -11    1    3    3    0    0 -0.56591520451E+01 -0.10078729675E+01  0.33963956951E+01  0.66766244291E+01  0.51100000000E-03 0.  1.
         12    1    3    3    0    0  0.25330869295E+02  0.21547708942E+01  0.25368458262E+02  0.35914546516E+02  0.00000000000E+00 0. -1.
</event>
<event>
 7    1  0.4520156E-012  0.5052886E+02  0.7816164E-02  0.1300439E+00
        -11   -1    0    0    0    0  0.00000000000E+00  0.00000000000E+00  0.45593999997E+02  0.45594000000E+02  0.51100000000E-03 0. -1.
         11   -1    0    0    0    0 -0.00000000000E+00 -0.00000000000E+00 -0.45593999997E+02  0.45594000000E+02  0.51100000000E-03 0.  1.
    9900012    2    1    2    0    0 -0.14173100168E+02 -0.30834013250E+02 -0.22395375235E+02  0.50528856214E+02  0.29999988948E+02 0.  0.
         12    1    1    2    0    0  0.14173100168E+02  0.30834013250E+02  0.22395375235E+02  0.40659143786E+02  0.00000000000E+00 0. -1.
         11    1    3    3    0    0 -0.11258159778E+02 -0.38135951254E+01 -0.52486486238E+01  0.12993767044E+02  0.51100000000E-03 0. -1.
        -11    1    3    3    0    0 -0.95270661582E+01 -0.63728712039E+01 -0.81392694800E+01  0.14057958063E+02  0.51100000000E-03 0.  1.
        -12    1    3    3    0    0  0.66121257685E+01 -0.20647546921E+02 -0.90074571312E+01  0.23477131107E+02  0.00000000000E+00 0.  1.
</event>
<event>
 7    1  0.4520156E-012  0.5052887E+02  0.7816164E-02  0.1300439E+00
        -11   -1    0    0    0    0  0.00000000000E+00  0.00000000000E+00  0.45593999997E+02  0.45594000000E+02  0.51100000000E-03 0. -1.
         11   -1    0    0    0    0 -0.00000000000E+00 -0.00000000000E+00 -0.45593999997E+02  0.45594000000E+02  0.51100000000E-03 0.  1.
    9900012    2    1    2    0    0 -0.16639411011E+02 -0.73984741654E+00 -0.37091074615E+02  0.50528865859E+02  0.30000018266E+02 0.  0.
         12    1    1    2    0    0  0.16639411011E+02  0.73984741654E+00  0.37091074615E+02  0.40659134141E+02  0.00000000000E+00 0. -1.
         11    1    3    3    0    0  0.19840609651E+01 -0.28216735638E+01 -0.59225405480E+01  0.68538183823E+01  0.51100000000E-03 0. -1.
        -11    1    3    3    0    0 -0.36536062313E+01 -0.41095374501E+01 -0.26141092486E+02  0.26713177519E+02  0.51100000000E-03 0.  1.
        -12    1    3    3    0    0 -0.14969865745E+02  0.61913635974E+01 -0.50274415806E+01  0.16961869957E+02  0.00000000000E+00 0.  1.
</event>
<event>
 7    1  0.4520156E-012  0.5052886E+02  0.7816164E-02  0.1300439E+00
        -11   -1    0    0    0    0  0.00000000000E+00  0.00000000000E+00  0.45593999997E+02  0.45594000000E+02  0.51100000000E-03 0. -1.
         11   -1    0    0    0    0 -0.00000000000E+00 -0.00000000000E+00 -0.45593999997E+02  0.45594000000E+02  0.51100000000E-03 0.  1.
    9900012    2    1    2    0    0  0.16002452206E+02  0.37335958349E+02 -0.17645948053E+01  0.50528855183E+02  0.29999985814E+02 0.  0.
         12    1    1    2    0    0 -0.16002452206E+02 -0.37335958349E+02  0.17645948053E+01  0.40659144817E+02  0.00000000000E+00 0. -1.
         11    1    3    3    0    0  0.26672936289E+01  0.31749051659E+01  0.65345006913E+01  0.77391328753E+01  0.51100000000E-03 0. -1.
        -11    1    3    3    0    0  0.28015061121E+01  0.13021235221E+02  0.65994669409E+01  0.14864520421E+02  0.51100000000E-03 0.  1.
        -12    1    3    3    0    0  0.10533652465E+02  0.21139817962E+02 -0.14898562438E+02  0.27925201887E+02  0.00000000000E+00 0.  1.
</event>
<event>
 7    1  0.4520156E-012  0.5052885E+02  0.7816164E-02  0.1300439E+00
        -11   -1    0    0    0    0  0.00000000000E+00  0.00000000000E+00  0.45593999997E+02  0.45594000000E+02  0.51100000000E-03 0. -1.
         11   -1    0    0    0    0 -0.00000000000E+00 -0.00000000000E+00 -0.45593999997E+02  0.45594000000E+02  0.51100000000E-03 0.  1.
    9900012    2    1    2    0    0  0.25250357753E+02 -0.23396928267E+02 -0.21637219923E+02  0.50528854596E+02  0.29999984030E+02 0.  0.
         12    1    1    2    0    0 -0.25250357753E+02  0.23396928267E+02  0.21637219923E+02  0.40659145404E+02  0.00000000000E+00 0. -1.
         11    1    3    3    0    0  0.16860854926E+02 -0.13961555476E+02 -0.11266713205E+02  0.24620160171E+02  0.51100000000E-03 0. -1.
        -11    1    3    3    0    0  0.11704782525E+02  0.15282124250E+01 -0.26564240039E+01  0.12099337003E+02  0.51100000000E-03 0.  1.
         12    1    3    3    0    0 -0.33152796986E+01 -0.10963585216E+02 -0.77140827140E+01  0.13809357421E+02  0.00000000000E+00 0. -1.
</event>
<event>
 7    1  0.4520156E-012  0.5052886E+02  0.7816164E-02  0.1300439E+00
        -11   -1    0    0    0    0  0.00000000000E+00  0.00000000000E+00  0.45593999997E+02  0.45594000000E+02  0.51100000000E-03 0.  1.
         11   -1    0    0    0    0 -0.00000000000E+00 -0.00000000000E+00 -0.45593999997E+02  0.45594000000E+02  0.51100000000E-03 0. -1.
    9900012    2    1    2    0    0 -0.39660129442E+02  0.45259105239E+01  0.77302109815E+01  0.50528857175E+02  0.29999991870E+02 0.  0.
         12    1    1    2    0    0  0.39660129442E+02 -0.45259105239E+01 -0.77302109815E+01  0.40659142825E+02  0.00000000000E+00 0. -1.
         11    1    3    3    0    0 -0.12197902712E+02  0.25921324277E+01  0.11264181723E+02  0.16804456886E+02  0.51100000000E-03 0. -1.
        -11    1    3    3    0    0 -0.12944625545E+02  0.38698939026E+01  0.74393777306E+01  0.15423480496E+02  0.51100000000E-03 0.  1.
        -12    1    3    3    0    0 -0.14517601185E+02 -0.19361158064E+01 -0.10973348472E+02  0.18300919793E+02  0.00000000000E+00 0.  1.
</event>
<event>
 7    1  0.4520156E-012  0.5052886E+02  0.7816164E-02  0.1300439E+00
        -11   -1    0    0    0    0  0.00000000000E+00  0.00000000000E+00  0.45593999997E+02  0.45594000000E+02  0.51100000000E-03 0. -1.
         11   -1    0    0    0    0 -0.00000000000E+00 -0.00000000000E+00 -0.45593999997E+02  0.45594000000E+02  0.51100000000E-03 0.  1.
    9900012    2    1    2    0    0 -0.24345153205E+02 -0.15948191685E+02  0.28392499593E+02  0.50528864056E+02  0.30000012785E+02 0.  0.
        -12    1    1    2    0    0  0.24345153205E+02  0.15948191685E+02 -0.28392499593E+02  0.40659135944E+02  0.00000000000E+00 0.  1.
         11    1    3    3    0    0 -0.16748006277E+02 -0.19133304962E+02  0.26893963443E+02  0.37011678467E+02  0.51100000000E-03 0. -1.
        -11    1    3    3    0    0 -0.40271754602E+01 -0.22435219131E+01  0.44261283029E+01  0.63907859279E+01  0.51100000000E-03 0.  1.
        -12    1    3    3    0    0 -0.35699714681E+01  0.54286351906E+01 -0.29275921531E+01  0.71263996611E+01  0.00000000000E+00 0.  1.
</event>
<event>
 7    1  0.4520156E-012  0.5052886E+02  0.7816164E-02  0.1300439E+00
        -11   -1    0    0    0    0  0.00000000000E+00  0.00000000000E+00  0.45593999997E+02  0.45594000000E+02  0.51100000000E-03 0. -1.
         11   -1    0    0    0    0 -0.00000000000E+00 -0.00000000000E+00 -0.45593999997E+02  0.45594000000E+02  0.51100000000E-03 0.  1.
    9900012    2    1    2    0    0 -0.17307246108E+02 -0.34524893696E+02  0.12714413233E+02  0.50528863801E+02  0.30000012010E+02 0.  0.
         12    1    1    2    0    0  0.17307246108E+02  0.34524893696E+02 -0.12714413233E+02  0.40659136199E+02  0.00000000000E+00 0. -1.
         11    1    3    3    0    0 -0.49901434884E+00 -0.69700469961E+01  0.14617051430E+02  0.16201504968E+02  0.51100000000E-03 0. -1.
        -11    1    3    3    0    0 -0.11304551558E+02 -0.96732194568E+01  0.25503213255E+01  0.15095303896E+02  0.51100000000E-03 0.  1.
        -12    1    3    3    0    0 -0.55036802016E+01 -0.17881627243E+02 -0.44529595224E+01  0.19232054938E+02  0.00000000000E+00 0.  1.
</event>
<event>
 7    1  0.4520156E-012  0.5052886E+02  0.7816164E-02  0.1300439E+00
        -11   -1    0    0    0    0  0.00000000000E+00  0.00000000000E+00  0.45593999997E+02  0.45594000000E+02  0.51100000000E-03 0. -1.
         11   -1    0    0    0    0 -0.00000000000E+00 -0.00000000000E+00 -0.45593999997E+02  0.45594000000E+02  0.51100000000E-03 0.  1.
    9900012    2    1    2    0    0 -0.16853608606E+02  0.17370295567E+02  0.32670999535E+02  0.50528862014E+02  0.30000006577E+02 0.  0.
        -12    1    1    2    0    0  0.16853608606E+02 -0.17370295567E+02 -0.32670999535E+02  0.40659137986E+02  0.00000000000E+00 0.  1.
         11    1    3    3    0    0 -0.12927131923E+02 -0.20519542891E+01  0.30554150340E+01  0.13440863717E+02  0.51100000000E-03 0. -1.
        -11    1    3    3    0    0  0.18780702387E+01  0.85980479512E-03  0.13834340967E+01  0.23326034214E+01  0.51100000000E-03 0.  1.
         12    1    3    3    0    0 -0.58045469218E+01  0.19421390051E+02  0.28232150405E+02  0.34755394876E+02  0.00000000000E+00 0. -1.
</event>
<event>
 7    1  0.4520156E-012  0.5052886E+02  0.7816164E-02  0.1300439E+00
        -11   -1    0    0    0    0  0.00000000000E+00  0.00000000000E+00  0.45593999997E+02  0.45594000000E+02  0.51100000000E-03 0. -1.
         11   -1    0    0    0    0 -0.00000000000E+00 -0.00000000000E+00 -0.45593999997E+02  0.45594000000E+02  0.51100000000E-03 0.  1.
    9900012    2    1    2    0    0 -0.29458161521E+01  0.13885779518E+02 -0.38100830216E+02  0.50528856271E+02  0.29999989122E+02 0.  0.
         12    1    1    2    0    0  0.29458161521E+01 -0.13885779518E+02  0.38100830216E+02  0.40659143729E+02  0.00000000000E+00 0. -1.
         11    1    3    3    0    0  0.95361082693E+01  0.15118402812E+01 -0.23891102780E+02  0.25768349079E+02  0.51100000000E-03 0. -1.
        -11    1    3    3    0    0 -0.83688220760E+00  0.45017307872E+01 -0.83676569287E+01  0.95385341980E+01  0.51100000000E-03 0.  1.
         12    1    3    3    0    0 -0.11645042214E+02  0.78722084493E+01 -0.58420705074E+01  0.15221972994E+02  0.00000000000E+00 0. -1.
</event>
<event>
 7    1  0.4520156E-012  0.5052886E+02  0.7816164E-02  0.1300439E+00
        -11   -1    0    0    0    0  0.00000000000E+00  0.00000000000E+00  0.45593999997E+02  0.45594000000E+02  0.51100000000E-03 0. -1.
         11   -1    0    0    0    0 -0.00000000000E+00 -0.00000000000E+00 -0.45593999997E+02  0.45594000000E+02  0.51100000000E-03 0.  1.
    9900012    2    1    2    0    0  0.37299698759E+02  0.10816600987E+02 -0.12037398573E+02  0.50528863895E+02  0.30000012296E+02 0.  0.
         12    1    1    2    0    0 -0.37299698759E+02 -0.10816600987E+02  0.12037398573E+02  0.40659136105E+02  0.00000000000E+00 0. -1.
         11    1    3    3    0    0  0.21426514115E+01  0.33640498908E+01  0.33751923773E+01  0.52249124953E+01  0.51100000000E-03 0. -1.
        -11    1    3    3    0    0 -0.66593681895E+00  0.29669834698E+01  0.34267522679E+01  0.45813856117E+01  0.51100000000E-03 0.  1.
        -12    1    3    3    0    0  0.35822984166E+02  0.44855676262E+01 -0.18839343218E+02  0.40722565788E+02  0.00000000000E+00 0.  1.
</event>
<event>
 7    1  0.4520156E-012  0.5052887E+02  0.7816164E-02  0.1300439E+00
        -11   -1    0    0    0    0  0.00000000000E+00  0.00000000000E+00  0.45593999997E+02  0.45594000000E+02  0.51100000000E-03 0. -1.
         11   -1    0    0    0    0 -0.00000000000E+00 -0.00000000000E+00 -0.45593999997E+02  0.45594000000E+02  0.51100000000E-03 0.  1.
    9900012    2    1    2    0    0  0.78213945528E+01 -0.25087373331E+02  0.31026021618E+02  0.50528873954E+02  0.30000042870E+02 0.  0.
        -12    1    1    2    0    0 -0.78213945528E+01  0.25087373331E+02 -0.31026021618E+02  0.40659126046E+02  0.00000000000E+00 0.  1.
         11    1    3    3    0    0 -0.52022707077E-01  0.18639971719E+01  0.27778550168E+01  0.33456943337E+01  0.51100000000E-03 0.  1.
        -11    1    3    3    0    0  0.55654732895E+01 -0.28350376102E+02  0.12971295311E+02  0.31669746136E+02  0.51100000000E-03 0. -1.
         12    1    3    3    0    0  0.23079439704E+01  0.13990055986E+01  0.15276871290E+02  0.15513433484E+02  0.00000000000E+00 0. -1.
</event>
<event>
 7    1  0.4520156E-012  0.5052887E+02  0.7816164E-02  0.1300439E+00
        -11   -1    0    0    0    0  0.00000000000E+00  0.00000000000E+00  0.45593999997E+02  0.45594000000E+02  0.51100000000E-03 0.  1.
         11   -1    0    0    0    0 -0.00000000000E+00 -0.00000000000E+00 -0.45593999997E+02  0.45594000000E+02  0.51100000000E-03 0. -1.
    9900012    2    1    2    0    0 -0.36758777151E+02 -0.16158817946E+02  0.63914104637E+01  0.50528865445E+02  0.30000017007E+02 0.  0.
         12    1    1    2    0    0  0.36758777151E+02  0.16158817946E+02 -0.63914104637E+01  0.40659134555E+02  0.00000000000E+00 0. -1.
         11    1    3    3    0    0 -0.71545559577E+01 -0.11953214288E+02 -0.46316739269E+01  0.14680579225E+02  0.51100000000E-03 0. -1.
        -11    1    3    3    0    0 -0.50445094542E+01  0.26397721108E+01  0.84962828733E+01  0.10227526356E+02  0.51100000000E-03 0.  1.
        -12    1    3    3    0    0 -0.24559711739E+02 -0.68453757690E+01  0.25268015173E+01  0.25620759864E+02  0.00000000000E+00 0.  1.
</event>
<event>
 7    1  0.4520156E-012  0.5052886E+02  0.7816164E-02  0.1300439E+00
        -11   -1    0    0    0    0  0.00000000000E+00  0.00000000000E+00  0.45593999997E+02  0.45594000000E+02  0.51100000000E-03 0. -1.
         11   -1    0    0    0    0 -0.00000000000E+00 -0.00000000000E+00 -0.45593999997E+02  0.45594000000E+02  0.51100000000E-03 0.  1.
    9900012    2    1    2    0    0 -0.53563895970E+01 -0.28569192295E+02  0.28430200472E+02  0.50528856418E+02  0.29999989569E+02 0.  0.
        -12    1    1    2    0    0  0.53563895970E+01  0.28569192295E+02 -0.28430200472E+02  0.40659143582E+02  0.00000000000E+00 0.  1.
         11    1    3    3    0    0  0.10120077147E+01 -0.53546375106E+01 -0.24069855847E+01  0.59573385291E+01  0.51100000000E-03 0. -1.
        -11    1    3    3    0    0 -0.46503037276E+00 -0.61559438420E+01 -0.25003512447E+01  0.66606046603E+01  0.51100000000E-03 0.  1.
         12    1    3    3    0    0 -0.59033669389E+01 -0.17058610942E+02  0.33337537302E+02  0.37910913229E+02  0.00000000000E+00 0. -1.
</event>
<event>
 7    1  0.4520156E-012  0.5052887E+02  0.7816164E-02  0.1300439E+00
        -11   -1    0    0    0    0  0.00000000000E+00  0.00000000000E+00  0.45593999997E+02  0.45594000000E+02  0.51100000000E-03 0. -1.
         11   -1    0    0    0    0 -0.00000000000E+00 -0.00000000000E+00 -0.45593999997E+02  0.45594000000E+02  0.51100000000E-03 0.  1.
    9900012    2    1    2    0    0 -0.22371621422E+02  0.19068159997E+02 -0.28090586874E+02  0.50528865213E+02  0.30000016301E+02 0.  0.
         12    1    1    2    0    0  0.22371621422E+02 -0.19068159997E+02  0.28090586874E+02  0.40659134787E+02  0.00000000000E+00 0. -1.
         11    1    3    3    0    0  0.15149054947E+01  0.32936466032E+01  0.18403503704E+01  0.40657024426E+01  0.51100000000E-03 0. -1.
        -11    1    3    3    0    0 -0.23373572173E+02  0.57484514041E+01 -0.14644748216E+02  0.28175117041E+02  0.51100000000E-03 0.  1.
         12    1    3    3    0    0 -0.51295474312E+00  0.10026061990E+02 -0.15286189028E+02  0.18288045730E+02  0.00000000000E+00 0. -1.
</event>
<event>
 7    1  0.4520156E-012  0.5052886E+02  0.7816164E-02  0.1300439E+00
        -11   -1    0    0    0    0  0.00000000000E+00  0.00000000000E+00  0.45593999997E+02  0.45594000000E+02  0.51100000000E-03 0. -1.
         11   -1    0    0    0    0 -0.00000000000E+00 -0.00000000000E+00 -0.45593999997E+02  0.45594000000E+02  0.51100000000E-03 0.  1.
    9900012    2    1    2    0    0  0.87090808375E+01  0.16982699098E+01 -0.39679131640E+02  0.50528859608E+02  0.29999999265E+02 0.  0.
         12    1    1    2    0    0 -0.87090808375E+01 -0.16982699098E+01  0.39679131640E+02  0.40659140392E+02  0.00000000000E+00 0. -1.
         11    1    3    3    0    0  0.13768349382E+02 -0.66872376359E+00 -0.16203293360E+02  0.21273489421E+02  0.51100000000E-03 0. -1.
        -11    1    3    3    0    0  0.54742987316E+01 -0.63958408384E+00 -0.36686471637E+01  0.66208750687E+01  0.51100000000E-03 0.  1.
         12    1    3    3    0    0 -0.10533567276E+02  0.30065777572E+01 -0.19807191116E+02  0.22634495119E+02  0.00000000000E+00 0. -1.
</event>
<event>
 7    1  0.4520156E-012  0.5052886E+02  0.7816164E-02  0.1300439E+00
        -11   -1    0    0    0    0  0.00000000000E+00  0.00000000000E+00  0.45593999997E+02  0.45594000000E+02  0.51100000000E-03 0. -1.
         11   -1    0    0    0    0 -0.00000000000E+00 -0.00000000000E+00 -0.45593999997E+02  0.45594000000E+02  0.51100000000E-03 0.  1.
    9900012    2    1    2    0    0  0.16218084519E+02 -0.36680113198E+02  0.66864525063E+01  0.50528860599E+02  0.30000002278E+02 0.  0.
        -12    1    1    2    0    0 -0.16218084519E+02  0.36680113198E+02 -0.66864525063E+01  0.40659139401E+02  0.00000000000E+00 0.  1.
         11    1    3    3    0    0  0.15619598490E+02 -0.27757268677E+02  0.24152892176E+01  0.31941688178E+02  0.51100000000E-03 0. -1.
        -11    1    3    3    0    0  0.44474059145E+01  0.30342558885E+01  0.23714792686E+01  0.58830300312E+01  0.51100000000E-03 0.  1.
         12    1    3    3    0    0 -0.38489198856E+01 -0.11957100410E+02  0.18996840201E+01  0.12704142390E+02  0.00000000000E+00 0. -1.
</event>
<event>
 7    1  0.4520156E-012  0.5052886E+02  0.7816164E-02  0.1300439E+00
        -11   -1    0    0    0    0  0.00000000000E+00  0.00000000000E+00  0.45593999997E+02  0.45594000000E+02  0.51100000000E-03 0. -1.
         11   -1    0    0    0    0 -0.00000000000E+00 -0.00000000000E+00 -0.45593999997E+02  0.45594000000E+02  0.51100000000E-03 0.  1.
    9900012    2    1    2    0    0 -0.31267552609E+02  0.55908409052E+00 -0.25984480184E+02  0.50528860418E+02  0.30000001725E+02 0.  0.
         12    1    1    2    0    0  0.31267552609E+02 -0.55908409052E+00  0.25984480184E+02  0.40659139582E+02  0.00000000000E+00 0. -1.
         11    1    3    3    0    0 -0.80316777328E+01  0.81679405799E+01 -0.80718606921E+01  0.14013494775E+02  0.51100000000E-03 0. -1.
        -11    1    3    3    0    0 -0.21275826928E+02 -0.64723744702E+01 -0.22352544609E+02  0.31530757896E+02  0.51100000000E-03 0.  1.
        -12    1    3    3    0    0 -0.19600479476E+01 -0.11364820192E+01  0.44399251172E+01  0.49846077462E+01  0.00000000000E+00 0.  1.
</event>
<event>
 7    1  0.4520156E-012  0.5052887E+02  0.7816164E-02  0.1300439E+00
        -11   -1    0    0    0    0  0.00000000000E+00  0.00000000000E+00  0.45593999997E+02  0.45594000000E+02  0.51100000000E-03 0. -1.
         11   -1    0    0    0    0 -0.00000000000E+00 -0.00000000000E+00 -0.45593999997E+02  0.45594000000E+02  0.51100000000E-03 0.  1.
    9900012    2    1    2    0    0 -0.20706418919E+02  0.10522821510E+02  0.33371838652E+02  0.50528866069E+02  0.30000018904E+02 0.  0.
        -12    1    1    2    0    0  0.20706418919E+02 -0.10522821510E+02 -0.33371838652E+02  0.40659133931E+02  0.00000000000E+00 0.  1.
         11    1    3    3    0    0 -0.10732457645E+02  0.91570108655E+01  0.26336711630E+02  0.29877397391E+02  0.51100000000E-03 0. -1.
        -11    1    3    3    0    0 -0.60413969922E+01  0.28762878206E+01  0.12243554434E+02  0.13952638987E+02  0.51100000000E-03 0.  1.
        -12    1    3    3    0    0 -0.39325642817E+01 -0.15104771760E+01 -0.52084274123E+01  0.66988296917E+01  0.00000000000E+00 0.  1.
</event>
<event>
 7    1  0.4520156E-012  0.5052886E+02  0.7816164E-02  0.1300439E+00
        -11   -1    0    0    0    0  0.00000000000E+00  0.00000000000E+00  0.45593999997E+02  0.45594000000E+02  0.51100000000E-03 0. -1.
         11   -1    0    0    0    0 -0.00000000000E+00 -0.00000000000E+00 -0.45593999997E+02  0.45594000000E+02  0.51100000000E-03 0.  1.
    9900012    2    1    2    0    0 -0.89246324460E+01  0.18094445673E+02 -0.35300248412E+02  0.50528861218E+02  0.30000004159E+02 0.  0.
         12    1    1    2    0    0  0.89246324460E+01 -0.18094445673E+02  0.35300248412E+02  0.40659138782E+02  0.00000000000E+00 0. -1.
         11    1    3    3    0    0 -0.80188309728E+01  0.35242099205E+01 -0.18351340811E+02  0.20334537506E+02  0.51100000000E-03 0.  1.
        -11    1    3    3    0    0 -0.10530519906E+02  0.84255245835E+01 -0.10400928717E+02  0.17031166503E+02  0.51100000000E-03 0. -1.
         12    1    3    3    0    0  0.96247184332E+01  0.61447111689E+01 -0.65479788836E+01  0.13163157210E+02  0.00000000000E+00 0. -1.
</event>
<event>
 7    1  0.4520156E-012  0.5052886E+02  0.7816164E-02  0.1300439E+00
        -11   -1    0    0    0    0  0.00000000000E+00  0.00000000000E+00  0.45593999997E+02  0.45594000000E+02  0.51100000000E-03 0. -1.
         11   -1    0    0    0    0 -0.00000000000E+00 -0.00000000000E+00 -0.45593999997E+02  0.45594000000E+02  0.51100000000E-03 0.  1.
    9900012    2    1    2    0    0 -0.29647872264E+02 -0.21861377350E+02 -0.17211900296E+02  0.50528860053E+02  0.30000000617E+02 0.  0.
         12    1    1    2    0    0  0.29647872264E+02  0.21861377350E+02  0.17211900296E+02  0.40659139947E+02  0.00000000000E+00 0. -1.
         11    1    3    3    0    0 -0.10216423630E+02 -0.12035508875E+01 -0.52311788410E+00  0.10300364028E+02  0.51100000000E-03 0. -1.
        -11    1    3    3    0    0 -0.20019019504E+02 -0.65342838720E+01 -0.15289636573E+02  0.26023662202E+02  0.51100000000E-03 0.  1.
         12    1    3    3    0    0  0.58757087089E+00 -0.14123542591E+02 -0.13991458395E+01  0.14204833823E+02  0.00000000000E+00 0. -1.
</event>
<event>
 7    1  0.4520156E-012  0.5052887E+02  0.7816164E-02  0.1300439E+00
        -11   -1    0    0    0    0  0.00000000000E+00  0.00000000000E+00  0.45593999997E+02  0.45594000000E+02  0.51100000000E-03 0.  1.
         11   -1    0    0    0    0 -0.00000000000E+00 -0.00000000000E+00 -0.45593999997E+02  0.45594000000E+02  0.51100000000E-03 0. -1.
    9900012    2    1    2    0    0 -0.17837594516E+02  0.36413235972E+02  0.30101917375E+01  0.50528870811E+02  0.30000033317E+02 0.  0.
         12    1    1    2    0    0  0.17837594516E+02 -0.36413235972E+02 -0.30101917375E+01  0.40659129189E+02  0.00000000000E+00 0. -1.
         11    1    3    3    0    0  0.50991013094E+01  0.29985540144E+01 -0.39828400462E+01  0.71312814722E+01  0.51100000000E-03 0. -1.
        -11    1    3    3    0    0  0.20400094521E+00  0.92555307141E+01  0.19361915837E+00  0.92598031202E+01  0.51100000000E-03 0.  1.
        -12    1    3    3    0    0 -0.23140696771E+02  0.24159151244E+02  0.67994126253E+01  0.34137786219E+02  0.00000000000E+00 0.  1.
</event>
<event>
 7    1  0.4520156E-012  0.5052887E+02  0.7816164E-02  0.1300439E+00
        -11   -1    0    0    0    0  0.00000000000E+00  0.00000000000E+00  0.45593999997E+02  0.45594000000E+02  0.51100000000E-03 0. -1.
         11   -1    0    0    0    0 -0.00000000000E+00 -0.00000000000E+00 -0.45593999997E+02  0.45594000000E+02  0.51100000000E-03 0.  1.
    9900012    2    1    2    0    0  0.36464711983E+02 -0.85798766090E+01  0.15807457076E+02  0.50528865702E+02  0.30000017789E+02 0.  0.
        -12    1    1    2    0    0 -0.36464711983E+02  0.85798766090E+01 -0.15807457076E+02  0.40659134298E+02  0.00000000000E+00 0.  1.
         11    1    3    3    0    0  0.11418889814E+02 -0.65790647038E+01  0.52778990742E+01  0.14196173987E+02  0.51100000000E-03 0. -1.
        -11    1    3    3    0    0  0.29852910588E+02 -0.17211154917E+01  0.83449197666E+01  0.31045067165E+02  0.51100000000E-03 0.  1.
         12    1    3    3    0    0 -0.48070884199E+01 -0.27969641349E+00  0.21846382357E+01  0.52876245499E+01  0.00000000000E+00 0. -1.
</event>
<event>
 7    1  0.4520156E-012  0.5052884E+02  0.7816164E-02  0.1300439E+00
        -11   -1    0    0    0    0  0.00000000000E+00  0.00000000000E+00  0.45593999997E+02  0.45594000000E+02  0.51100000000E-03 0. -1.
         11   -1    0    0    0    0 -0.00000000000E+00 -0.00000000000E+00 -0.45593999997E+02  0.45594000000E+02  0.51100000000E-03 0.  1.
    9900012    2    1    2    0    0  0.20766184561E+02 -0.34298312564E+02  0.67497102790E+01  0.50528840456E+02  0.29999941051E+02 0.  0.
         12    1    1    2    0    0 -0.20766184561E+02  0.34298312564E+02 -0.67497102790E+01  0.40659159544E+02  0.00000000000E+00 0. -1.
         11    1    3    3    0    0 -0.43388300889E+01 -0.65297504045E+01  0.97605073730E+00  0.79003646870E+01  0.51100000000E-03 0. -1.
        -11    1    3    3    0    0  0.19004415519E+02 -0.29981653618E+02  0.65363465660E+01  0.36094198835E+02  0.51100000000E-03 0.  1.
         12    1    3    3    0    0  0.61005991306E+01  0.22130914583E+01 -0.76268702431E+00  0.65342769341E+01  0.00000000000E+00 0. -1.
</event>
<event>
 7    1  0.4520156E-012  0.5052886E+02  0.7816164E-02  0.1300439E+00
        -11   -1    0    0    0    0  0.00000000000E+00  0.00000000000E+00  0.45593999997E+02  0.45594000000E+02  0.51100000000E-03 0. -1.
         11   -1    0    0    0    0 -0.00000000000E+00 -0.00000000000E+00 -0.45593999997E+02  0.45594000000E+02  0.51100000000E-03 0.  1.
    9900012    2    1    2    0    0 -0.15160540391E+02  0.13492058455E+02  0.35231918849E+02  0.50528859182E+02  0.29999997969E+02 0.  0.
        -12    1    1    2    0    0  0.15160540391E+02 -0.13492058455E+02 -0.35231918849E+02  0.40659140818E+02  0.00000000000E+00 0.  1.
         11    1    3    3    0    0 -0.10927521370E+02  0.16877252025E+02  0.35055058594E+02  0.40411749436E+02  0.51100000000E-03 0. -1.
        -11    1    3    3    0    0 -0.28413730864E+01  0.21364484992E+01 -0.19305408771E+01  0.40453431925E+01  0.51100000000E-03 0.  1.
        -12    1    3    3    0    0 -0.13916459349E+01 -0.55216420688E+01  0.21074011316E+01  0.60717665530E+01  0.00000000000E+00 0.  1.
</event>
<event>
 7    1  0.4520156E-012  0.5052886E+02  0.7816164E-02  0.1300439E+00
        -11   -1    0    0    0    0  0.00000000000E+00  0.00000000000E+00  0.45593999997E+02  0.45594000000E+02  0.51100000000E-03 0. -1.
         11   -1    0    0    0    0 -0.00000000000E+00 -0.00000000000E+00 -0.45593999997E+02  0.45594000000E+02  0.51100000000E-03 0.  1.
    9900012    2    1    2    0    0  0.37078964878E+02  0.11457710974E+02  0.12125864638E+02  0.50528863630E+02  0.30000011489E+02 0.  0.
        -12    1    1    2    0    0 -0.37078964878E+02 -0.11457710974E+02 -0.12125864638E+02  0.40659136370E+02  0.00000000000E+00 0.  1.
         11    1    3    3    0    0 -0.16482896624E+01  0.16080386588E+01 -0.28069880867E+00  0.23197929265E+01  0.51100000000E-03 0.  1.
        -11    1    3    3    0    0  0.30948342657E+02  0.17352272301E+02  0.11772506926E+02  0.37383060158E+02  0.51100000000E-03 0. -1.
         12    1    3    3    0    0  0.77789118834E+01 -0.75025999865E+01  0.63405652113E+00  0.10826010545E+02  0.00000000000E+00 0. -1.
</event>
<event>
 7    1  0.4520156E-012  0.5052884E+02  0.7816164E-02  0.1300439E+00
        -11   -1    0    0    0    0  0.00000000000E+00  0.00000000000E+00  0.45593999997E+02  0.45594000000E+02  0.51100000000E-03 0. -1.
         11   -1    0    0    0    0 -0.00000000000E+00 -0.00000000000E+00 -0.45593999997E+02  0.45594000000E+02  0.51100000000E-03 0.  1.
    9900012    2    1    2    0    0 -0.23683741868E+02 -0.21316490437E+02 -0.25255785564E+02  0.50528842385E+02  0.29999946915E+02 0.  0.
         12    1    1    2    0    0  0.23683741868E+02  0.21316490437E+02  0.25255785564E+02  0.40659157615E+02  0.00000000000E+00 0. -1.
         11    1    3    3    0    0 -0.12219721649E+02 -0.50987401275E+00 -0.62031219232E+00  0.12246075134E+02  0.51100000000E-03 0. -1.
        -11    1    3    3    0    0 -0.52667042008E+01 -0.12894454926E+02 -0.27465327714E+01  0.14196780745E+02  0.51100000000E-03 0.  1.
        -12    1    3    3    0    0 -0.61973160181E+01 -0.79121614983E+01 -0.21888940601E+02  0.24085986507E+02  0.00000000000E+00 0.  1.
</event>
<event>
 7    1  0.4520156E-012  0.5052886E+02  0.7816164E-02  0.1300439E+00
        -11   -1    0    0    0    0  0.00000000000E+00  0.00000000000E+00  0.45593999997E+02  0.45594000000E+02  0.51100000000E-03 0. -1.
         11   -1    0    0    0    0 -0.00000000000E+00 -0.00000000000E+00 -0.45593999997E+02  0.45594000000E+02  0.51100000000E-03 0.  1.
    9900012    2    1    2    0    0  0.98167841780E+01 -0.25558444750E+01  0.39373392488E+02  0.50528860454E+02  0.30000001837E+02 0.  0.
        -12    1    1    2    0    0 -0.98167841780E+01  0.25558444750E+01 -0.39373392488E+02  0.40659139546E+02  0.00000000000E+00 0.  1.
         11    1    3    3    0    0  0.15855558062E+02 -0.32871298443E+01  0.10912674886E+02  0.19526659148E+02  0.51100000000E-03 0. -1.
        -11    1    3    3    0    0  0.23452798395E+01 -0.22983532733E+01  0.60537209372E+01  0.68869661493E+01  0.51100000000E-03 0.  1.
        -12    1    3    3    0    0 -0.83840537232E+01  0.30296386426E+01  0.22406996665E+02  0.24115235157E+02  0.00000000000E+00 0.  1.
</event>
<event>
 7    1  0.4520156E-012  0.5052885E+02  0.7816164E-02  0.1300439E+00
        -11   -1    0    0    0    0  0.00000000000E+00  0.00000000000E+00  0.45593999997E+02  0.45594000000E+02  0.51100000000E-03 0. -1.
         11   -1    0    0    0    0 -0.00000000000E+00 -0.00000000000E+00 -0.45593999997E+02  0.45594000000E+02  0.51100000000E-03 0.  1.
    9900012    2    1    2    0    0 -0.15100339105E+02  0.36775193009E+02  0.85282859692E+01  0.50528846990E+02  0.29999960911E+02 0.  0.
        -12    1    1    2    0    0  0.15100339105E+02 -0.36775193009E+02 -0.85282859692E+01  0.40659153010E+02  0.00000000000E+00 0.  1.
         11    1    3    3    0    0 -0.19026168510E+02  0.24901866845E+02  0.59820692054E+01  0.31904282045E+02  0.51100000000E-03 0. -1.
        -11    1    3    3    0    0 -0.11745640806E+01  0.71296868605E+01 -0.46633199591E+01  0.85999179537E+01  0.51100000000E-03 0.  1.
        -12    1    3    3    0    0  0.51003934860E+01  0.47436393033E+01  0.72095367229E+01  0.10024646992E+02  0.00000000000E+00 0.  1.
</event>
<event>
 7    1  0.4520156E-012  0.5052884E+02  0.7816164E-02  0.1300439E+00
        -11   -1    0    0    0    0  0.00000000000E+00  0.00000000000E+00  0.45593999997E+02  0.45594000000E+02  0.51100000000E-03 0. -1.
         11   -1    0    0    0    0 -0.00000000000E+00 -0.00000000000E+00 -0.45593999997E+02  0.45594000000E+02  0.51100000000E-03 0.  1.
    9900012    2    1    2    0    0 -0.16053506701E+02  0.28188415552E+02  0.24512548680E+02  0.50528844924E+02  0.29999954630E+02 0.  0.
        -12    1    1    2    0    0  0.16053506701E+02 -0.28188415552E+02 -0.24512548680E+02  0.40659155076E+02  0.00000000000E+00 0.  1.
         11    1    3    3    0    0  0.18397519807E+01  0.55821301916E+01  0.84724192281E+01  0.10311486443E+02  0.51100000000E-03 0. -1.
        -11    1    3    3    0    0  0.34749715958E+01  0.82829576020E+01 -0.14658073913E+01  0.91011760667E+01  0.51100000000E-03 0.  1.
        -12    1    3    3    0    0 -0.21368230277E+02  0.14323327759E+02  0.17505936843E+02  0.31116182414E+02  0.00000000000E+00 0.  1.
</event>
<event>
 7    1  0.4520156E-012  0.5052884E+02  0.7816164E-02  0.1300439E+00
        -11   -1    0    0    0    0  0.00000000000E+00  0.00000000000E+00  0.45593999997E+02  0.45594000000E+02  0.51100000000E-03 0. -1.
         11   -1    0    0    0    0 -0.00000000000E+00 -0.00000000000E+00 -0.45593999997E+02  0.45594000000E+02  0.51100000000E-03 0.  1.
    9900012    2    1    2    0    0 -0.10799735798E+02 -0.79152049166E+01 -0.38391176282E+02  0.50528841395E+02  0.29999943903E+02 0.  0.
         12    1    1    2    0    0  0.10799735798E+02  0.79152049166E+01  0.38391176282E+02  0.40659158605E+02  0.00000000000E+00 0. -1.
         11    1    3    3    0    0 -0.17295645650E+00 -0.10535192766E+02 -0.78379306932E+01  0.13132149800E+02  0.51100000000E-03 0. -1.
        -11    1    3    3    0    0 -0.77307462486E+01 -0.72708551821E+01 -0.10947726583E+02  0.15247376503E+02  0.51100000000E-03 0.  1.
        -12    1    3    3    0    0 -0.28960330930E+01  0.98908430313E+01 -0.19605519006E+02  0.22149315092E+02  0.00000000000E+00 0.  1.
</event>
<event>
 7    1  0.4520156E-012  0.5052887E+02  0.7816164E-02  0.1300439E+00
        -11   -1    0    0    0    0  0.00000000000E+00  0.00000000000E+00  0.45593999997E+02  0.45594000000E+02  0.51100000000E-03 0. -1.
         11   -1    0    0    0    0 -0.00000000000E+00 -0.00000000000E+00 -0.45593999997E+02  0.45594000000E+02  0.51100000000E-03 0.  1.
    9900012    2    1    2    0    0 -0.34973709493E+02 -0.55886406296E+01 -0.19969270203E+02  0.50528868034E+02  0.30000024876E+02 0.  0.
         12    1    1    2    0    0  0.34973709493E+02  0.55886406296E+01  0.19969270203E+02  0.40659131966E+02  0.00000000000E+00 0. -1.
         11    1    3    3    0    0  0.32270030754E+01 -0.28134474592E+01 -0.11178913785E+00  0.42827015454E+01  0.51100000000E-03 0. -1.
        -11    1    3    3    0    0 -0.75613945822E+00  0.49370603435E+00 -0.61836227851E+01  0.62492146337E+01  0.51100000000E-03 0.  1.
         12    1    3    3    0    0 -0.37444573110E+02 -0.32688992048E+01 -0.13673858280E+02  0.39996951855E+02  0.00000000000E+00 0. -1.
</event>
<event>
 7    1  0.4520156E-012  0.5052886E+02  0.7816164E-02  0.1300439E+00
        -11   -1    0    0    0    0  0.00000000000E+00  0.00000000000E+00  0.45593999997E+02  0.45594000000E+02  0.51100000000E-03 0. -1.
         11   -1    0    0    0    0 -0.00000000000E+00 -0.00000000000E+00 -0.45593999997E+02  0.45594000000E+02  0.51100000000E-03 0.  1.
    9900012    2    1    2    0    0  0.19982590158E+02 -0.26153005334E+02 -0.23872200520E+02  0.50528861358E+02  0.30000004584E+02 0.  0.
         12    1    1    2    0    0 -0.19982590158E+02  0.26153005334E+02  0.23872200520E+02  0.40659138642E+02  0.00000000000E+00 0. -1.
         11    1    3    3    0    0  0.10639871217E+01  0.27508292967E+01  0.22303838422E+00  0.29578500294E+01  0.51100000000E-03 0. -1.
        -11    1    3    3    0    0  0.92046476086E+01  0.76007403002E+00 -0.90104972907E+01  0.12903189986E+02  0.51100000000E-03 0.  1.
         12    1    3    3    0    0  0.97139554280E+01 -0.29663908661E+02 -0.15084741613E+02  0.34667821343E+02  0.00000000000E+00 0. -1.
</event>
<event>
 7    1  0.5350397E-012  0.5052886E+02  0.7816164E-02  0.1300439E+00
        -11   -1    0    0    0    0  0.00000000000E+00  0.00000000000E+00  0.45593999997E+02  0.45594000000E+02  0.51100000000E-03 0. -1.
         11   -1    0    0    0    0 -0.00000000000E+00 -0.00000000000E+00 -0.45593999997E+02  0.45594000000E+02  0.51100000000E-03 0.  1.
    9900012    2    1    2    0    0 -0.29404110136E+02 -0.12013634868E+02  0.25381813152E+02  0.50528861366E+02  0.30000004607E+02 0.  0.
        -12    1    1    2    0    0  0.29404110136E+02  0.12013634868E+02 -0.25381813152E+02  0.40659138634E+02  0.00000000000E+00 0.  1.
         11    1    3    3    0    0 -0.24434792064E+01  0.48264872418E+01 -0.15956489337E+01  0.56401831095E+01  0.51100000000E-03 0. -1.
        -11    1    3    3    0    0 -0.16804768553E+00 -0.39600154029E+01 -0.97667798274E+00  0.40821394095E+01  0.51100000000E-03 0.  1.
         12    1    3    3    0    0 -0.26792583244E+02 -0.12880106707E+02  0.27954140068E+02  0.40806538846E+02  0.00000000000E+00 0. -1.
</event>
<event>
 7    1  0.4520156E-012  0.5052886E+02  0.7816164E-02  0.1300439E+00
        -11   -1    0    0    0    0  0.00000000000E+00  0.00000000000E+00  0.45593999997E+02  0.45594000000E+02  0.51100000000E-03 0. -1.
         11   -1    0    0    0    0 -0.00000000000E+00 -0.00000000000E+00 -0.45593999997E+02  0.45594000000E+02  0.51100000000E-03 0.  1.
    9900012    2    1    2    0    0  0.25784488618E+02 -0.20275790766E+02 -0.24025359952E+02  0.50528862462E+02  0.30000007940E+02 0.  0.
         12    1    1    2    0    0 -0.25784488618E+02  0.20275790766E+02  0.24025359952E+02  0.40659137538E+02  0.00000000000E+00 0. -1.
         11    1    3    3    0    0  0.15617966874E+02 -0.10179171107E+02 -0.52708889430E+01  0.19373143375E+02  0.51100000000E-03 0. -1.
        -11    1    3    3    0    0  0.87264703358E+01 -0.98672339735E+01 -0.85846212930E+00  0.13200399551E+02  0.51100000000E-03 0.  1.
         12    1    3    3    0    0  0.14400514081E+01 -0.22938568601E+00 -0.17896008880E+02  0.17955319537E+02  0.00000000000E+00 0. -1.
</event>
<event>
 7    1  0.4520156E-012  0.5052886E+02  0.7816164E-02  0.1300439E+00
        -11   -1    0    0    0    0  0.00000000000E+00  0.00000000000E+00  0.45593999997E+02  0.45594000000E+02  0.51100000000E-03 0.  1.
         11   -1    0    0    0    0 -0.00000000000E+00 -0.00000000000E+00 -0.45593999997E+02  0.45594000000E+02  0.51100000000E-03 0. -1.
    9900012    2    1    2    0    0  0.44893502791E+01 -0.37483952602E+02 -0.15098505447E+02  0.50528857912E+02  0.29999994109E+02 0.  0.
         12    1    1    2    0    0 -0.44893502791E+01  0.37483952602E+02  0.15098505447E+02  0.40659142088E+02  0.00000000000E+00 0. -1.
         11    1    3    3    0    0  0.19906247949E+01 -0.15223667318E+02 -0.42269931706E+01  0.15924512715E+02  0.51100000000E-03 0. -1.
        -11    1    3    3    0    0 -0.86446961167E+01 -0.19098086358E+02 -0.47177417300E+01  0.21487781662E+02  0.51100000000E-03 0.  1.
         12    1    3    3    0    0  0.11143421601E+02 -0.31621989268E+01 -0.61537705466E+01  0.13116563535E+02  0.00000000000E+00 0. -1.
</event>
<event>
 7    1  0.4520156E-012  0.5052886E+02  0.7816164E-02  0.1300439E+00
        -11   -1    0    0    0    0  0.00000000000E+00  0.00000000000E+00  0.45593999997E+02  0.45594000000E+02  0.51100000000E-03 0. -1.
         11   -1    0    0    0    0 -0.00000000000E+00 -0.00000000000E+00 -0.45593999997E+02  0.45594000000E+02  0.51100000000E-03 0.  1.
    9900012    2    1    2    0    0  0.24982892118E+02 -0.14050650843E+02  0.28837475094E+02  0.50528860099E+02  0.30000000757E+02 0.  0.
        -12    1    1    2    0    0 -0.24982892118E+02  0.14050650843E+02 -0.28837475094E+02  0.40659139901E+02  0.00000000000E+00 0.  1.
         11    1    3    3    0    0  0.84907525832E+01  0.42189877571E+01  0.17131176509E+02  0.19579835187E+02  0.51100000000E-03 0. -1.
        -11    1    3    3    0    0  0.91087281041E+01 -0.89785480148E+00  0.69242642312E+01  0.11476955447E+02  0.51100000000E-03 0.  1.
         12    1    3    3    0    0  0.73834114308E+01 -0.17371783799E+02  0.47820343539E+01  0.19472069465E+02  0.00000000000E+00 0. -1.
</event>
<event>
 7    1  0.4520156E-012  0.5052883E+02  0.7816164E-02  0.1300439E+00
        -11   -1    0    0    0    0  0.00000000000E+00  0.00000000000E+00  0.45593999997E+02  0.45594000000E+02  0.51100000000E-03 0.  1.
         11   -1    0    0    0    0 -0.00000000000E+00 -0.00000000000E+00 -0.45593999997E+02  0.45594000000E+02  0.51100000000E-03 0. -1.
    9900012    2    1    2    0    0 -0.32286879494E+02  0.73458343050E+01  0.23595858025E+02  0.50528826557E+02  0.29999898803E+02 0.  0.
        -12    1    1    2    0    0  0.32286879494E+02 -0.73458343050E+01 -0.23595858025E+02  0.40659173443E+02  0.00000000000E+00 0.  1.
         11    1    3    3    0    0 -0.94290432043E+01  0.12873489500E+02  0.90648779023E+01  0.18352264147E+02  0.51100000000E-03 0. -1.
        -11    1    3    3    0    0  0.68098898972E+00 -0.19011207862E+01  0.68662425979E+01  0.71570450552E+01  0.51100000000E-03 0.  1.
        -12    1    3    3    0    0 -0.23538825280E+02 -0.36265344091E+01  0.76647375245E+01  0.25019517355E+02  0.00000000000E+00 0.  1.
</event>
<event>
 7    1  0.4520156E-012  0.5052886E+02  0.7816164E-02  0.1300439E+00
        -11   -1    0    0    0    0  0.00000000000E+00  0.00000000000E+00  0.45593999997E+02  0.45594000000E+02  0.51100000000E-03 0. -1.
         11   -1    0    0    0    0 -0.00000000000E+00 -0.00000000000E+00 -0.45593999997E+02  0.45594000000E+02  0.51100000000E-03 0.  1.
    9900012    2    1    2    0    0  0.93198951594E+00  0.59576786142E+01 -0.40209491547E+02  0.50528858969E+02  0.29999997322E+02 0.  0.
         12    1    1    2    0    0 -0.93198951594E+00 -0.59576786142E+01  0.40209491547E+02  0.40659141031E+02  0.00000000000E+00 0. -1.
         11    1    3    3    0    0  0.16688335386E+01  0.13280566989E+02 -0.26509909126E+02  0.29697369363E+02  0.51100000000E-03 0. -1.
        -11    1    3    3    0    0 -0.38545318098E+01  0.88715742457E-01  0.10820152574E+01  0.40045028698E+01  0.51100000000E-03 0.  1.
        -12    1    3    3    0    0  0.31176877872E+01 -0.74116041170E+01 -0.14781597678E+02  0.16826986737E+02  0.00000000000E+00 0.  1.
</event>
<event>
 7    1  0.4520156E-012  0.5052886E+02  0.7816164E-02  0.1300439E+00
        -11   -1    0    0    0    0  0.00000000000E+00  0.00000000000E+00  0.45593999997E+02  0.45594000000E+02  0.51100000000E-03 0. -1.
         11   -1    0    0    0    0 -0.00000000000E+00 -0.00000000000E+00 -0.45593999997E+02  0.45594000000E+02  0.51100000000E-03 0.  1.
    9900012    2    1    2    0    0 -0.33714110545E+02 -0.58494152804E+01  0.21961522230E+02  0.50528863664E+02  0.30000011592E+02 0.  0.
        -12    1    1    2    0    0  0.33714110545E+02  0.58494152804E+01 -0.21961522230E+02  0.40659136336E+02  0.00000000000E+00 0.  1.
         11    1    3    3    0    0 -0.10612200597E+02 -0.86043072851E+01  0.13567390705E+02  0.19254272154E+02  0.51100000000E-03 0. -1.
        -11    1    3    3    0    0 -0.10349382404E+02 -0.82419411283E+01  0.46551315475E+01  0.14025318524E+02  0.51100000000E-03 0.  1.
         12    1    3    3    0    0 -0.12752527544E+02  0.10996833133E+02  0.37389999775E+01  0.17249272986E+02  0.00000000000E+00 0. -1.
</event>
<event>
 7    1  0.4520156E-012  0.5052887E+02  0.7816164E-02  0.1300439E+00
        -11   -1    0    0    0    0  0.00000000000E+00  0.00000000000E+00  0.45593999997E+02  0.45594000000E+02  0.51100000000E-03 0. -1.
         11   -1    0    0    0    0 -0.00000000000E+00 -0.00000000000E+00 -0.45593999997E+02  0.45594000000E+02  0.51100000000E-03 0.  1.
    9900012    2    1    2    0    0 -0.57182946248E+01 -0.42019731943E+01  0.40035101130E+02  0.50528870710E+02  0.30000033011E+02 0.  0.
        -12    1    1    2    0    0  0.57182946248E+01  0.42019731943E+01 -0.40035101130E+02  0.40659129290E+02  0.00000000000E+00 0.  1.
         11    1    3    3    0    0 -0.73901458203E+01 -0.65395348118E+01  0.24572444295E+02  0.26479894065E+02  0.51100000000E-03 0. -1.
        -11    1    3    3    0    0 -0.35621955369E+01 -0.63276861335E+01  0.10521819529E+02  0.12784269056E+02  0.51100000000E-03 0.  1.
         12    1    3    3    0    0  0.52340467323E+01  0.86652477510E+01  0.49408373056E+01  0.11264707589E+02  0.00000000000E+00 0. -1.
</event>
<event>
 7    1  0.4520156E-012  0.5052887E+02  0.7816164E-02  0.1300439E+00
        -11   -1    0    0    0    0  0.00000000000E+00  0.00000000000E+00  0.45593999997E+02  0.45594000000E+02  0.51100000000E-03 0. -1.
         11   -1    0    0    0    0 -0.00000000000E+00 -0.00000000000E+00 -0.45593999997E+02  0.45594000000E+02  0.51100000000E-03 0.  1.
    9900012    2    1    2    0    0  0.13726013649E+02 -0.11122141790E+02  0.36620481023E+02  0.50528866721E+02  0.30000020884E+02 0.  0.
        -12    1    1    2    0    0 -0.13726013649E+02  0.11122141790E+02 -0.36620481023E+02  0.40659133279E+02  0.00000000000E+00 0.  1.
         11    1    3    3    0    0  0.18889745971E+01 -0.70589626586E+01 -0.89447454708E+00  0.73618790958E+01  0.51100000000E-03 0.  1.
        -11    1    3    3    0    0 -0.14016677179E+01 -0.71352148072E+01  0.17737383320E+02  0.19170047731E+02  0.51100000000E-03 0. -1.
         12    1    3    3    0    0  0.13238706770E+02  0.30720356760E+01  0.19777572250E+02  0.23996939893E+02  0.00000000000E+00 0. -1.
</event>
<event>
 7    1  0.4520156E-012  0.5052886E+02  0.7816164E-02  0.1300439E+00
        -11   -1    0    0    0    0  0.00000000000E+00  0.00000000000E+00  0.45593999997E+02  0.45594000000E+02  0.51100000000E-03 0. -1.
         11   -1    0    0    0    0 -0.00000000000E+00 -0.00000000000E+00 -0.45593999997E+02  0.45594000000E+02  0.51100000000E-03 0.  1.
    9900012    2    1    2    0    0 -0.26146404721E+02 -0.49112880392E+00  0.31133420455E+02  0.50528861340E+02  0.30000004530E+02 0.  0.
        -12    1    1    2    0    0  0.26146404721E+02  0.49112880392E+00 -0.31133420455E+02  0.40659138660E+02  0.00000000000E+00 0.  1.
         11    1    3    3    0    0  0.71620356465E+00  0.15552355440E+01  0.47031032088E+01  0.50050859331E+01  0.51100000000E-03 0.  1.
        -11    1    3    3    0    0 -0.21906566420E+02 -0.87368295897E+01  0.73457486345E+01  0.24702021513E+02  0.51100000000E-03 0. -1.
         12    1    3    3    0    0 -0.49560418659E+01  0.66904652417E+01  0.19084568611E+02  0.20821753894E+02  0.00000000000E+00 0. -1.
</event>
<event>
 7    1  0.4520156E-012  0.5052886E+02  0.7816164E-02  0.1300439E+00
        -11   -1    0    0    0    0  0.00000000000E+00  0.00000000000E+00  0.45593999997E+02  0.45594000000E+02  0.51100000000E-03 0. -1.
         11   -1    0    0    0    0 -0.00000000000E+00 -0.00000000000E+00 -0.45593999997E+02  0.45594000000E+02  0.51100000000E-03 0.  1.
    9900012    2    1    2    0    0  0.33598901242E+01  0.14021611089E+02 -0.38016723175E+02  0.50528859820E+02  0.29999999909E+02 0.  0.
         12    1    1    2    0    0 -0.33598901242E+01 -0.14021611089E+02  0.38016723175E+02  0.40659140180E+02  0.00000000000E+00 0. -1.
         11    1    3    3    0    0 -0.33706368777E+00 -0.63374750125E+01 -0.12832763463E+02  0.14316320052E+02  0.51100000000E-03 0. -1.
        -11    1    3    3    0    0  0.22577073093E+01 -0.23459309179E+01 -0.35710358298E+01  0.48324870745E+01  0.51100000000E-03 0.  1.
         12    1    3    3    0    0  0.14392465027E+01  0.22705017019E+02 -0.21612923883E+02  0.31380052694E+02  0.00000000000E+00 0. -1.
</event>
<event>
 7    1  0.4520156E-012  0.5052885E+02  0.7816164E-02  0.1300439E+00
        -11   -1    0    0    0    0  0.00000000000E+00  0.00000000000E+00  0.45593999997E+02  0.45594000000E+02  0.51100000000E-03 0. -1.
         11   -1    0    0    0    0 -0.00000000000E+00 -0.00000000000E+00 -0.45593999997E+02  0.45594000000E+02  0.51100000000E-03 0.  1.
    9900012    2    1    2    0    0  0.95555501823E+01  0.11375381920E+02 -0.37847836694E+02  0.50528848564E+02  0.29999965695E+02 0.  0.
         12    1    1    2    0    0 -0.95555501823E+01 -0.11375381920E+02  0.37847836694E+02  0.40659151436E+02  0.00000000000E+00 0. -1.
         11    1    3    3    0    0  0.49012437281E+00  0.68535747227E+01 -0.96144515399E+01  0.11817334177E+02  0.51100000000E-03 0.  1.
        -11    1    3    3    0    0  0.35489017932E+01  0.16218332255E+01 -0.31454779142E+02  0.31695870048E+02  0.51100000000E-03 0. -1.
         12    1    3    3    0    0  0.55165240163E+01  0.28999739714E+01  0.32213939886E+01  0.70156443387E+01  0.00000000000E+00 0. -1.
</event>
<event>
 7    1  0.4520156E-012  0.5052886E+02  0.7816164E-02  0.1300439E+00
        -11   -1    0    0    0    0  0.00000000000E+00  0.00000000000E+00  0.45593999997E+02  0.45594000000E+02  0.51100000000E-03 0. -1.
         11   -1    0    0    0    0 -0.00000000000E+00 -0.00000000000E+00 -0.45593999997E+02  0.45594000000E+02  0.51100000000E-03 0.  1.
    9900012    2    1    2    0    0  0.57966137129E+01 -0.26578529264E+02 -0.30218312205E+02  0.50528863992E+02  0.30000012591E+02 0.  0.
         12    1    1    2    0    0 -0.57966137129E+01  0.26578529264E+02  0.30218312205E+02  0.40659136008E+02  0.00000000000E+00 0. -1.
         11    1    3    3    0    0  0.44361066767E+01  0.16237310279E+00 -0.85289353373E+01  0.96149958773E+01  0.51100000000E-03 0. -1.
        -11    1    3    3    0    0  0.52518846155E+00 -0.58249412455E+01 -0.18914536505E+02  0.19798117459E+02  0.51100000000E-03 0.  1.
         12    1    3    3    0    0  0.83531857464E+00 -0.20915961121E+02 -0.27748403622E+01  0.21115750656E+02  0.00000000000E+00 0. -1.
</event>
<event>
 7    1  0.4520156E-012  0.5052886E+02  0.7816164E-02  0.1300439E+00
        -11   -1    0    0    0    0  0.00000000000E+00  0.00000000000E+00  0.45593999997E+02  0.45594000000E+02  0.51100000000E-03 0. -1.
         11   -1    0    0    0    0 -0.00000000000E+00 -0.00000000000E+00 -0.45593999997E+02  0.45594000000E+02  0.51100000000E-03 0.  1.
    9900012    2    1    2    0    0  0.75513886113E+01  0.35546333658E+02  0.18237341643E+02  0.50528856666E+02  0.29999990322E+02 0.  0.
        -12    1    1    2    0    0 -0.75513886113E+01 -0.35546333658E+02 -0.18237341643E+02  0.40659143334E+02  0.00000000000E+00 0.  1.
         11    1    3    3    0    0 -0.86821310994E+00 -0.12709448529E+01 -0.86276770124E+00  0.17645008333E+01  0.51100000000E-03 0.  1.
        -11    1    3    3    0    0  0.83951789096E+01  0.25590617403E+01  0.10026040158E+02  0.13324762941E+02  0.51100000000E-03 0. -1.
         12    1    3    3    0    0  0.24422811655E-01  0.34258216770E+02  0.90740691862E+01  0.35439592892E+02  0.00000000000E+00 0. -1.
</event>
<event>
 7    1  0.4520156E-012  0.5052886E+02  0.7816164E-02  0.1300439E+00
        -11   -1    0    0    0    0  0.00000000000E+00  0.00000000000E+00  0.45593999997E+02  0.45594000000E+02  0.51100000000E-03 0. -1.
         11   -1    0    0    0    0 -0.00000000000E+00 -0.00000000000E+00 -0.45593999997E+02  0.45594000000E+02  0.51100000000E-03 0.  1.
    9900012    2    1    2    0    0  0.20323337104E+02 -0.34717633297E+02 -0.59002735858E+01  0.50528864235E+02  0.30000013329E+02 0.  0.
         12    1    1    2    0    0 -0.20323337104E+02  0.34717633297E+02  0.59002735858E+01  0.40659135765E+02  0.00000000000E+00 0. -1.
         11    1    3    3    0    0  0.81746259408E-01 -0.72763822885E+01  0.35790563264E+01  0.81093813641E+01  0.51100000000E-03 0. -1.
        -11    1    3    3    0    0  0.50476229313E+01 -0.21831887747E+02  0.21053744937E+01  0.22506497326E+02  0.51100000000E-03 0.  1.
        -12    1    3    3    0    0  0.15193967913E+02 -0.56093632609E+01 -0.11584704406E+02  0.19912985545E+02  0.00000000000E+00 0.  1.
</event>
<event>
 7    1  0.4520156E-012  0.5052886E+02  0.7816164E-02  0.1300439E+00
        -11   -1    0    0    0    0  0.00000000000E+00  0.00000000000E+00  0.45593999997E+02  0.45594000000E+02  0.51100000000E-03 0. -1.
         11   -1    0    0    0    0 -0.00000000000E+00 -0.00000000000E+00 -0.45593999997E+02  0.45594000000E+02  0.51100000000E-03 0.  1.
    9900012    2    1    2    0    0 -0.47198319698E+01 -0.17908033128E+02 -0.36196565041E+02  0.50528858530E+02  0.29999995987E+02 0.  0.
         12    1    1    2    0    0  0.47198319698E+01  0.17908033128E+02  0.36196565041E+02  0.40659141470E+02  0.00000000000E+00 0. -1.
         11    1    3    3    0    0 -0.68475310595E+01 -0.54600409351E+01 -0.20413543131E+02  0.22212912282E+02  0.51100000000E-03 0. -1.
        -11    1    3    3    0    0 -0.36851528639E+01  0.43690279463E+01 -0.37680367607E+01  0.68459373439E+01  0.51100000000E-03 0.  1.
        -12    1    3    3    0    0  0.58128519536E+01 -0.16817020139E+02 -0.12014985149E+02  0.21470008904E+02  0.00000000000E+00 0.  1.
</event>
<event>
 7    1  0.4520156E-012  0.5052885E+02  0.7816164E-02  0.1300439E+00
        -11   -1    0    0    0    0  0.00000000000E+00  0.00000000000E+00  0.45593999997E+02  0.45594000000E+02  0.51100000000E-03 0. -1.
         11   -1    0    0    0    0 -0.00000000000E+00 -0.00000000000E+00 -0.45593999997E+02  0.45594000000E+02  0.51100000000E-03 0.  1.
    9900012    2    1    2    0    0 -0.16363657087E+00 -0.33430043692E+02  0.23142424390E+02  0.50528850909E+02  0.29999972823E+02 0.  0.
        -12    1    1    2    0    0  0.16363657087E+00  0.33430043692E+02 -0.23142424390E+02  0.40659149091E+02  0.00000000000E+00 0.  1.
         11    1    3    3    0    0 -0.41276144739E+01 -0.12113148874E+02  0.11030651217E+02  0.16894994626E+02  0.51100000000E-03 0.  1.
        -11    1    3    3    0    0 -0.62608095585E+01 -0.18620131156E+02  0.12075875934E+02  0.23059353860E+02  0.51100000000E-03 0. -1.
        -12    1    3    3    0    0  0.10224787461E+02 -0.26967636621E+01  0.35897238625E-01  0.10574502423E+02  0.00000000000E+00 0.  1.
</event>
<event>
 7    1  0.4520156E-012  0.5052884E+02  0.7816164E-02  0.1300439E+00
        -11   -1    0    0    0    0  0.00000000000E+00  0.00000000000E+00  0.45593999997E+02  0.45594000000E+02  0.51100000000E-03 0. -1.
         11   -1    0    0    0    0 -0.00000000000E+00 -0.00000000000E+00 -0.45593999997E+02  0.45594000000E+02  0.51100000000E-03 0.  1.
    9900012    2    1    2    0    0 -0.98246918544E+01 -0.26120694536E+02  0.29569442599E+02  0.50528841269E+02  0.29999943522E+02 0.  0.
        -12    1    1    2    0    0  0.98246918544E+01  0.26120694536E+02 -0.29569442599E+02  0.40659158731E+02  0.00000000000E+00 0.  1.
         11    1    3    3    0    0 -0.12300050033E+02 -0.23899182601E+02  0.28331060045E+02  0.39052671143E+02  0.51100000000E-03 0. -1.
        -11    1    3    3    0    0 -0.43468988518E+00 -0.46632124694E+01  0.44809088272E+01  0.64817474503E+01  0.51100000000E-03 0.  1.
        -12    1    3    3    0    0  0.29100480641E+01  0.24417005341E+01 -0.32425262738E+01  0.49944226764E+01  0.00000000000E+00 0.  1.
</event>
<event>
 7    1  0.4520156E-012  0.5052886E+02  0.7816164E-02  0.1300439E+00
        -11   -1    0    0    0    0  0.00000000000E+00  0.00000000000E+00  0.45593999997E+02  0.45594000000E+02  0.51100000000E-03 0. -1.
         11   -1    0    0    0    0 -0.00000000000E+00 -0.00000000000E+00 -0.45593999997E+02  0.45594000000E+02  0.51100000000E-03 0.  1.
    9900012    2    1    2    0    0  0.41872230350E+01 -0.54165555372E+01  0.40078589969E+02  0.50528864685E+02  0.30000014698E+02 0.  0.
        -12    1    1    2    0    0 -0.41872230350E+01  0.54165555372E+01 -0.40078589969E+02  0.40659135315E+02  0.00000000000E+00 0.  1.
         11    1    3    3    0    0  0.30300768209E+01 -0.12160589611E+02  0.18736906068E+02  0.22541804597E+02  0.51100000000E-03 0. -1.
        -11    1    3    3    0    0  0.65147841910E+01 -0.26282684533E+01  0.10902123591E+02  0.12969445137E+02  0.51100000000E-03 0.  1.
         12    1    3    3    0    0 -0.53576379769E+01  0.93723025272E+01  0.10439560311E+02  0.15017614952E+02  0.00000000000E+00 0. -1.
</event>
<event>
 7    1  0.4520156E-012  0.5052885E+02  0.7816164E-02  0.1300439E+00
        -11   -1    0    0    0    0  0.00000000000E+00  0.00000000000E+00  0.45593999997E+02  0.45594000000E+02  0.51100000000E-03 0. -1.
         11   -1    0    0    0    0 -0.00000000000E+00 -0.00000000000E+00 -0.45593999997E+02  0.45594000000E+02  0.51100000000E-03 0.  1.
    9900012    2    1    2    0    0  0.11159349188E+02  0.10108052886E+02  0.37768541413E+02  0.50528849395E+02  0.29999968221E+02 0.  0.
        -12    1    1    2    0    0 -0.11159349188E+02 -0.10108052886E+02 -0.37768541413E+02  0.40659150605E+02  0.00000000000E+00 0.  1.
         11    1    3    3    0    0  0.11036979140E+02 -0.22682641768E+01  0.20593963850E+02  0.23474907417E+02  0.51100000000E-03 0. -1.
        -11    1    3    3    0    0  0.22421157916E+01  0.10059741917E+02  0.20210173133E+02  0.22686484721E+02  0.51100000000E-03 0.  1.
        -12    1    3    3    0    0 -0.21197457436E+01  0.23165751455E+01 -0.30355955702E+01  0.43674572566E+01  0.00000000000E+00 0.  1.
</event>
<event>
 7    1  0.4520156E-012  0.5052886E+02  0.7816164E-02  0.1300439E+00
        -11   -1    0    0    0    0  0.00000000000E+00  0.00000000000E+00  0.45593999997E+02  0.45594000000E+02  0.51100000000E-03 0.  1.
         11   -1    0    0    0    0 -0.00000000000E+00 -0.00000000000E+00 -0.45593999997E+02  0.45594000000E+02  0.51100000000E-03 0. -1.
    9900012    2    1    2    0    0  0.38493435862E+02 -0.13453845795E+01 -0.13023477250E+02  0.50528860513E+02  0.30000002017E+02 0.  0.
         12    1    1    2    0    0 -0.38493435862E+02  0.13453845795E+01  0.13023477250E+02  0.40659139487E+02  0.00000000000E+00 0. -1.
         11    1    3    3    0    0  0.88364513670E+01 -0.24293103252E+00 -0.65621384299E+01  0.11009248352E+02  0.51100000000E-03 0. -1.
        -11    1    3    3    0    0  0.31914765351E+02 -0.32152065344E+01 -0.11101905777E+02  0.33943218949E+02  0.51100000000E-03 0.  1.
        -12    1    3    3    0    0 -0.22577808567E+01  0.21127529874E+01  0.46405669561E+01  0.55763932121E+01  0.00000000000E+00 0.  1.
</event>
<event>
 7    1  0.4520156E-012  0.5052886E+02  0.7816164E-02  0.1300439E+00
        -11   -1    0    0    0    0  0.00000000000E+00  0.00000000000E+00  0.45593999997E+02  0.45594000000E+02  0.51100000000E-03 0.  1.
         11   -1    0    0    0    0 -0.00000000000E+00 -0.00000000000E+00 -0.45593999997E+02  0.45594000000E+02  0.51100000000E-03 0. -1.
    9900012    2    1    2    0    0  0.24706614229E+02 -0.36372521015E+01 -0.32086124869E+02  0.50528858363E+02  0.29999995481E+02 0.  0.
         12    1    1    2    0    0 -0.24706614229E+02  0.36372521015E+01  0.32086124869E+02  0.40659141637E+02  0.00000000000E+00 0. -1.
         11    1    3    3    0    0  0.78294154467E+01 -0.24971492932E+01 -0.91296338355E+01  0.12283554659E+02  0.51100000000E-03 0. -1.
        -11    1    3    3    0    0  0.22867088331E+02 -0.50725734104E+01 -0.17454532505E+02  0.29211221045E+02  0.51100000000E-03 0.  1.
         12    1    3    3    0    0 -0.59898895483E+01  0.39324706021E+01 -0.55019585287E+01  0.90340826589E+01  0.00000000000E+00 0. -1.
</event>
<event>
 7    1  0.4520156E-012  0.5052885E+02  0.7816164E-02  0.1300439E+00
        -11   -1    0    0    0    0  0.00000000000E+00  0.00000000000E+00  0.45593999997E+02  0.45594000000E+02  0.51100000000E-03 0.  1.
         11   -1    0    0    0    0 -0.00000000000E+00 -0.00000000000E+00 -0.45593999997E+02  0.45594000000E+02  0.51100000000E-03 0. -1.
    9900012    2    1    2    0    0 -0.30730454403E+02  0.28834898419E+01  0.26466788011E+02  0.50528853316E+02  0.29999980138E+02 0.  0.
        -12    1    1    2    0    0  0.30730454403E+02 -0.28834898419E+01 -0.26466788011E+02  0.40659146684E+02  0.00000000000E+00 0.  1.
         11    1    3    3    0    0  0.30564320286E+01 -0.66578900871E+00  0.37595413362E+01  0.48907262313E+01  0.51100000000E-03 0. -1.
        -11    1    3    3    0    0 -0.26548646536E+02 -0.63635394292E+00  0.25505760635E+02  0.36820909890E+02  0.51100000000E-03 0.  1.
         12    1    3    3    0    0 -0.72382398957E+01  0.41856327936E+01 -0.27985139607E+01  0.88172171946E+01  0.00000000000E+00 0. -1.
</event>
<event>
 7    1  0.4520156E-012  0.5052888E+02  0.7816164E-02  0.1300439E+00
        -11   -1    0    0    0    0  0.00000000000E+00  0.00000000000E+00  0.45593999997E+02  0.45594000000E+02  0.51100000000E-03 0. -1.
         11   -1    0    0    0    0 -0.00000000000E+00 -0.00000000000E+00 -0.45593999997E+02  0.45594000000E+02  0.51100000000E-03 0.  1.
    9900012    2    1    2    0    0  0.32518875778E+01 -0.86266405052E+01  0.39600126131E+02  0.50528884309E+02  0.30000074345E+02 0.  0.
        -12    1    1    2    0    0 -0.32518875778E+01  0.86266405052E+01 -0.39600126131E+02  0.40659115691E+02  0.00000000000E+00 0.  1.
         11    1    3    3    0    0  0.50865265816E+00  0.28483761568E+01  0.22909351034E+02  0.23091347715E+02  0.51100000000E-03 0. -1.
        -11    1    3    3    0    0  0.10004047635E+02 -0.80048900098E+01  0.13938328077E+02  0.18932411970E+02  0.51100000000E-03 0.  1.
        -12    1    3    3    0    0 -0.72608127152E+01 -0.34701266522E+01  0.27524470196E+01  0.85051246236E+01  0.00000000000E+00 0.  1.
</event>
<event>
 7    1  0.4520156E-012  0.5052885E+02  0.7816164E-02  0.1300439E+00
        -11   -1    0    0    0    0  0.00000000000E+00  0.00000000000E+00  0.45593999997E+02  0.45594000000E+02  0.51100000000E-03 0. -1.
         11   -1    0    0    0    0 -0.00000000000E+00 -0.00000000000E+00 -0.45593999997E+02  0.45594000000E+02  0.51100000000E-03 0.  1.
    9900012    2    1    2    0    0  0.99436507584E+00 -0.96066018900E+01 -0.39495453446E+02  0.50528850911E+02  0.29999972829E+02 0.  0.
         12    1    1    2    0    0 -0.99436507584E+00  0.96066018900E+01  0.39495453446E+02  0.40659149089E+02  0.00000000000E+00 0. -1.
         11    1    3    3    0    0 -0.53059761198E+01 -0.94112195117E+01 -0.43436761627E+00  0.10812636624E+02  0.51100000000E-03 0. -1.
        -11    1    3    3    0    0  0.99760380340E-01 -0.59200438130E+00 -0.11296022007E+01  0.12792273895E+01  0.51100000000E-03 0.  1.
         12    1    3    3    0    0  0.62005808153E+01  0.39662200298E+00 -0.37931483629E+02  0.38436986897E+02  0.00000000000E+00 0. -1.
</event>
<event>
 7    1  0.4520156E-012  0.5052882E+02  0.7816164E-02  0.1300439E+00
        -11   -1    0    0    0    0  0.00000000000E+00  0.00000000000E+00  0.45593999997E+02  0.45594000000E+02  0.51100000000E-03 0. -1.
         11   -1    0    0    0    0 -0.00000000000E+00 -0.00000000000E+00 -0.45593999997E+02  0.45594000000E+02  0.51100000000E-03 0.  1.
    9900012    2    1    2    0    0 -0.33832861953E+01 -0.30338685968E+02  0.26856776506E+02  0.50528819782E+02  0.29999878208E+02 0.  0.
        -12    1    1    2    0    0  0.33832861953E+01  0.30338685968E+02 -0.26856776506E+02  0.40659180218E+02  0.00000000000E+00 0.  1.
         11    1    3    3    0    0 -0.33096887295E+01 -0.10214117160E+02 -0.30450737555E+01  0.11160407846E+02  0.51100000000E-03 0. -1.
        -11    1    3    3    0    0 -0.38544691813E+01 -0.13488992829E+01  0.27888213610E+00  0.40931940403E+01  0.51100000000E-03 0.  1.
         12    1    3    3    0    0  0.37808717155E+01 -0.18775669525E+02  0.29622968125E+02  0.35275217896E+02  0.00000000000E+00 0. -1.
</event>
<event>
 7    1  0.4520156E-012  0.5052890E+02  0.7816164E-02  0.1300439E+00
        -11   -1    0    0    0    0  0.00000000000E+00  0.00000000000E+00  0.45593999997E+02  0.45594000000E+02  0.51100000000E-03 0. -1.
         11   -1    0    0    0    0 -0.00000000000E+00 -0.00000000000E+00 -0.45593999997E+02  0.45594000000E+02  0.51100000000E-03 0.  1.
    9900012    2    1    2    0    0  0.27706392832E+02  0.84042429558E-01 -0.29757537384E+02  0.50528901412E+02  0.30000126330E+02 0.  0.
         12    1    1    2    0    0 -0.27706392832E+02 -0.84042429558E-01  0.29757537384E+02  0.40659098588E+02  0.00000000000E+00 0. -1.
         11    1    3    3    0    0  0.45620789894E+01 -0.62186577270E+01 -0.10914460981E+02  0.13364495030E+02  0.51100000000E-03 0. -1.
        -11    1    3    3    0    0  0.27655571446E+00  0.82274814265E+01 -0.89908895273E+01  0.12190325198E+02  0.51100000000E-03 0.  1.
         12    1    3    3    0    0  0.22867758128E+02 -0.19247812699E+01 -0.98521868755E+01  0.24974081183E+02  0.00000000000E+00 0. -1.
</event>
<event>
 7    1  0.4520156E-012  0.5052886E+02  0.7816164E-02  0.1300439E+00
        -11   -1    0    0    0    0  0.00000000000E+00  0.00000000000E+00  0.45593999997E+02  0.45594000000E+02  0.51100000000E-03 0. -1.
         11   -1    0    0    0    0 -0.00000000000E+00 -0.00000000000E+00 -0.45593999997E+02  0.45594000000E+02  0.51100000000E-03 0.  1.
    9900012    2    1    2    0    0  0.19685953292E+02 -0.29936446480E+02  0.19220776415E+02  0.50528857967E+02  0.29999994276E+02 0.  0.
        -12    1    1    2    0    0 -0.19685953292E+02  0.29936446480E+02 -0.19220776415E+02  0.40659142033E+02  0.00000000000E+00 0.  1.
         11    1    3    3    0    0  0.54510191052E+01 -0.21525867308E+02  0.49132838646E+01  0.22742403814E+02  0.51100000000E-03 0. -1.
        -11    1    3    3    0    0  0.49599505340E+01 -0.98622655446E+01  0.45005662925E+00  0.11048436188E+02  0.51100000000E-03 0.  1.
         12    1    3    3    0    0  0.92749836527E+01  0.14516863721E+01  0.13857435921E+02  0.16738017965E+02  0.00000000000E+00 0. -1.
</event>
<event>
 7    1  0.4520156E-012  0.5052887E+02  0.7816164E-02  0.1300439E+00
        -11   -1    0    0    0    0  0.00000000000E+00  0.00000000000E+00  0.45593999997E+02  0.45594000000E+02  0.51100000000E-03 0. -1.
         11   -1    0    0    0    0 -0.00000000000E+00 -0.00000000000E+00 -0.45593999997E+02  0.45594000000E+02  0.51100000000E-03 0.  1.
    9900012    2    1    2    0    0 -0.42663739369E+01  0.25391304579E+02  0.31468146972E+02  0.50528873489E+02  0.30000041458E+02 0.  0.
        -12    1    1    2    0    0  0.42663739369E+01 -0.25391304579E+02 -0.31468146972E+02  0.40659126511E+02  0.00000000000E+00 0.  1.
         11    1    3    3    0    0  0.86584490400E+00  0.22591371837E+01  0.15940695226E+02  0.16123248828E+02  0.51100000000E-03 0. -1.
        -11    1    3    3    0    0 -0.38321208188E+01 -0.11503117473E+01  0.80086927667E+01  0.89525151314E+01  0.51100000000E-03 0.  1.
         12    1    3    3    0    0 -0.13000980221E+01  0.24282479142E+02  0.75187589794E+01  0.25453109530E+02  0.00000000000E+00 0. -1.
</event>
<event>
 7    1  0.4520156E-012  0.5052873E+02  0.7816164E-02  0.1300439E+00
        -11   -1    0    0    0    0  0.00000000000E+00  0.00000000000E+00  0.45593999997E+02  0.45594000000E+02  0.51100000000E-03 0. -1.
         11   -1    0    0    0    0 -0.00000000000E+00 -0.00000000000E+00 -0.45593999997E+02  0.45594000000E+02  0.51100000000E-03 0.  1.
    9900012    2    1    2    0    0 -0.35490824118E+02  0.19715262669E+02  0.22105241576E+01  0.50528725588E+02  0.29999591893E+02 0.  0.
        -12    1    1    2    0    0  0.35490824118E+02 -0.19715262669E+02 -0.22105241576E+01  0.40659274412E+02  0.00000000000E+00 0.  1.
         11    1    3    3    0    0 -0.18218173399E+02  0.65781153381E+01 -0.14662739975E+01  0.19424814107E+02  0.51100000000E-03 0. -1.
        -11    1    3    3    0    0 -0.17150650558E+02 -0.22362994212E+00  0.44508227183E+01  0.17720176299E+02  0.51100000000E-03 0.  1.
        -12    1    3    3    0    0 -0.12200016029E+00  0.13360777273E+02 -0.77402456321E+00  0.13383735181E+02  0.00000000000E+00 0.  1.
</event>
<event>
 7    1  0.4520156E-012  0.5052887E+02  0.7816164E-02  0.1300439E+00
        -11   -1    0    0    0    0  0.00000000000E+00  0.00000000000E+00  0.45593999997E+02  0.45594000000E+02  0.51100000000E-03 0. -1.
         11   -1    0    0    0    0 -0.00000000000E+00 -0.00000000000E+00 -0.45593999997E+02  0.45594000000E+02  0.51100000000E-03 0.  1.
    9900012    2    1    2    0    0 -0.11095049449E+02  0.34496124364E+02  0.18441324595E+02  0.50528866079E+02  0.30000018932E+02 0.  0.
        -12    1    1    2    0    0  0.11095049449E+02 -0.34496124364E+02 -0.18441324595E+02  0.40659133921E+02  0.00000000000E+00 0.  1.
         11    1    3    3    0    0  0.45315145995E+00  0.81970814070E+01  0.95119694325E+01  0.12564833966E+02  0.51100000000E-03 0. -1.
        -11    1    3    3    0    0  0.71136365691E+01  0.58855241931E+01  0.18921916383E+01  0.94246278293E+01  0.51100000000E-03 0.  1.
         12    1    3    3    0    0 -0.18661837479E+02  0.20413518764E+02  0.70371635246E+01  0.28539404284E+02  0.00000000000E+00 0. -1.
</event>
<event>
 7    1  0.4520156E-012  0.5052884E+02  0.7816164E-02  0.1300439E+00
        -11   -1    0    0    0    0  0.00000000000E+00  0.00000000000E+00  0.45593999997E+02  0.45594000000E+02  0.51100000000E-03 0. -1.
         11   -1    0    0    0    0 -0.00000000000E+00 -0.00000000000E+00 -0.45593999997E+02  0.45594000000E+02  0.51100000000E-03 0.  1.
    9900012    2    1    2    0    0  0.61620480570E+01  0.22475831787E+02 -0.33317162519E+02  0.50528841510E+02  0.29999944255E+02 0.  0.
         12    1    1    2    0    0 -0.61620480570E+01 -0.22475831787E+02  0.33317162519E+02  0.40659158490E+02  0.00000000000E+00 0. -1.
         11    1    3    3    0    0 -0.37578947531E+01  0.76050327956E+01 -0.31029373765E+02  0.32168001699E+02  0.51100000000E-03 0.  1.
        -11    1    3    3    0    0  0.37049761592E+01  0.74007845542E+01 -0.24853030310E+01  0.86414808786E+01  0.51100000000E-03 0. -1.
        -12    1    3    3    0    0  0.62149666509E+01  0.74700144377E+01  0.19751427779E+00  0.97193589326E+01  0.00000000000E+00 0.  1.
</event>
<event>
 7    1  0.4520156E-012  0.5052886E+02  0.7816164E-02  0.1300439E+00
        -11   -1    0    0    0    0  0.00000000000E+00  0.00000000000E+00  0.45593999997E+02  0.45594000000E+02  0.51100000000E-03 0. -1.
         11   -1    0    0    0    0 -0.00000000000E+00 -0.00000000000E+00 -0.45593999997E+02  0.45594000000E+02  0.51100000000E-03 0.  1.
    9900012    2    1    2    0    0 -0.27780384164E+02 -0.13463949896E+02  0.26460124735E+02  0.50528857214E+02  0.29999991989E+02 0.  0.
        -12    1    1    2    0    0  0.27780384164E+02  0.13463949896E+02 -0.26460124735E+02  0.40659142786E+02  0.00000000000E+00 0.  1.
         11    1    3    3    0    0 -0.14854676873E+02 -0.11309410017E+02  0.16419451963E+02  0.24862875598E+02  0.51100000000E-03 0. -1.
        -11    1    3    3    0    0 -0.22410579645E+01 -0.45606549183E+01  0.13301127944E+02  0.14238747098E+02  0.51100000000E-03 0.  1.
        -12    1    3    3    0    0 -0.10684649326E+02  0.24061150399E+01 -0.32604551727E+01  0.11427234519E+02  0.00000000000E+00 0.  1.
</event>
<event>
 7    1  0.4520156E-012  0.5052884E+02  0.7816164E-02  0.1300439E+00
        -11   -1    0    0    0    0  0.00000000000E+00  0.00000000000E+00  0.45593999997E+02  0.45594000000E+02  0.51100000000E-03 0. -1.
         11   -1    0    0    0    0 -0.00000000000E+00 -0.00000000000E+00 -0.45593999997E+02  0.45594000000E+02  0.51100000000E-03 0.  1.
    9900012    2    1    2    0    0 -0.15140084740E+02  0.20924953309E+02 -0.31402089066E+02  0.50528843164E+02  0.29999949280E+02 0.  0.
         12    1    1    2    0    0  0.15140084740E+02 -0.20924953309E+02  0.31402089066E+02  0.40659156836E+02  0.00000000000E+00 0. -1.
         11    1    3    3    0    0 -0.19509654799E-01 -0.39870500771E+01  0.42230052708E+00  0.40093998230E+01  0.51100000000E-03 0. -1.
        -11    1    3    3    0    0 -0.31504397125E+01  0.59525414032E+01 -0.20138795806E+02  0.21235091625E+02  0.51100000000E-03 0.  1.
         12    1    3    3    0    0 -0.11970135373E+02  0.18959461983E+02 -0.11685593787E+02  0.25284351715E+02  0.00000000000E+00 0. -1.
</event>
<event>
 7    1  0.4520156E-012  0.5052886E+02  0.7816164E-02  0.1300439E+00
        -11   -1    0    0    0    0  0.00000000000E+00  0.00000000000E+00  0.45593999997E+02  0.45594000000E+02  0.51100000000E-03 0. -1.
         11   -1    0    0    0    0 -0.00000000000E+00 -0.00000000000E+00 -0.45593999997E+02  0.45594000000E+02  0.51100000000E-03 0.  1.
    9900012    2    1    2    0    0 -0.20072047456E+02 -0.15074900832E+02 -0.31984771876E+02  0.50528863805E+02  0.30000012021E+02 0.  0.
         12    1    1    2    0    0  0.20072047456E+02  0.15074900832E+02  0.31984771876E+02  0.40659136195E+02  0.00000000000E+00 0. -1.
         11    1    3    3    0    0 -0.17562770387E+02 -0.21117849857E+01 -0.11292098550E+02  0.20986234284E+02  0.51100000000E-03 0. -1.
        -11    1    3    3    0    0 -0.71876157570E+01  0.64908346309E-01 -0.60812669218E+01  0.94152982427E+01  0.51100000000E-03 0.  1.
         12    1    3    3    0    0  0.46783386886E+01 -0.13028024193E+02 -0.14611406405E+02  0.20127331278E+02  0.00000000000E+00 0. -1.
</event>
<event>
 7    1  0.4520156E-012  0.5052886E+02  0.7816164E-02  0.1300439E+00
        -11   -1    0    0    0    0  0.00000000000E+00  0.00000000000E+00  0.45593999997E+02  0.45594000000E+02  0.51100000000E-03 0. -1.
         11   -1    0    0    0    0 -0.00000000000E+00 -0.00000000000E+00 -0.45593999997E+02  0.45594000000E+02  0.51100000000E-03 0.  1.
    9900012    2    1    2    0    0 -0.26102938880E+02 -0.18887888087E+02 -0.24800201294E+02  0.50528859345E+02  0.29999998466E+02 0.  0.
         12    1    1    2    0    0  0.26102938880E+02  0.18887888087E+02  0.24800201294E+02  0.40659140655E+02  0.00000000000E+00 0. -1.
         11    1    3    3    0    0 -0.96312988602E+01 -0.91593697449E+00 -0.16847538459E+02  0.19427825681E+02  0.51100000000E-03 0. -1.
        -11    1    3    3    0    0 -0.44274991816E+01  0.11365010913E+01 -0.71661205835E+01  0.84998628349E+01  0.51100000000E-03 0.  1.
        -12    1    3    3    0    0 -0.12044140838E+02 -0.19108452204E+02 -0.78654225098E+00  0.22601170830E+02  0.00000000000E+00 0.  1.
</event>
<event>
 7    1  0.4520156E-012  0.5052885E+02  0.7816164E-02  0.1300439E+00
        -11   -1    0    0    0    0  0.00000000000E+00  0.00000000000E+00  0.45593999997E+02  0.45594000000E+02  0.51100000000E-03 0. -1.
         11   -1    0    0    0    0 -0.00000000000E+00 -0.00000000000E+00 -0.45593999997E+02  0.45594000000E+02  0.51100000000E-03 0.  1.
    9900012    2    1    2    0    0  0.64499117554E+01 -0.36582157507E+02  0.16532127188E+02  0.50528845571E+02  0.29999956599E+02 0.  0.
        -12    1    1    2    0    0 -0.64499117554E+01  0.36582157507E+02 -0.16532127188E+02  0.40659154429E+02  0.00000000000E+00 0.  1.
         11    1    3    3    0    0  0.31879564286E+01 -0.64797565654E+01  0.25130346591E+01  0.76462837245E+01  0.51100000000E-03 0. -1.
        -11    1    3    3    0    0  0.10001443712E+02 -0.31469087316E+02  0.14337431144E+02  0.35998531427E+02  0.51100000000E-03 0.  1.
        -12    1    3    3    0    0 -0.67394883856E+01  0.13666863748E+01 -0.31833861516E+00  0.68840304198E+01  0.00000000000E+00 0.  1.
</event>
<event>
 7    1  0.4520156E-012  0.5052887E+02  0.7816164E-02  0.1300439E+00
        -11   -1    0    0    0    0  0.00000000000E+00  0.00000000000E+00  0.45593999997E+02  0.45594000000E+02  0.51100000000E-03 0. -1.
         11   -1    0    0    0    0 -0.00000000000E+00 -0.00000000000E+00 -0.45593999997E+02  0.45594000000E+02  0.51100000000E-03 0.  1.
    9900012    2    1    2    0    0 -0.38923784717E+02 -0.93440355330E+00  0.11714556625E+02  0.50528868632E+02  0.30000026694E+02 0.  0.
        -12    1    1    2    0    0  0.38923784717E+02  0.93440355330E+00 -0.11714556625E+02  0.40659131368E+02  0.00000000000E+00 0.  1.
         11    1    3    3    0    0 -0.23322157436E+02 -0.74149001672E+01  0.15383052757E+02  0.28905744833E+02  0.51100000000E-03 0. -1.
        -11    1    3    3    0    0 -0.49042121669E+01 -0.36159626927E+01  0.10336793301E+01  0.61802084424E+01  0.51100000000E-03 0.  1.
         12    1    3    3    0    0 -0.10697415114E+02  0.10096459307E+02 -0.47021754621E+01  0.15442915357E+02  0.00000000000E+00 0. -1.
</event>
<event>
 7    1  0.4520156E-012  0.5052886E+02  0.7816164E-02  0.1300439E+00
        -11   -1    0    0    0    0  0.00000000000E+00  0.00000000000E+00  0.45593999997E+02  0.45594000000E+02  0.51100000000E-03 0. -1.
         11   -1    0    0    0    0 -0.00000000000E+00 -0.00000000000E+00 -0.45593999997E+02  0.45594000000E+02  0.51100000000E-03 0.  1.
    9900012    2    1    2    0    0  0.14419660940E+01  0.10140659735E+02 -0.39347852836E+02  0.50528858729E+02  0.29999996593E+02 0.  0.
         12    1    1    2    0    0 -0.14419660940E+01 -0.10140659735E+02  0.39347852836E+02  0.40659141271E+02  0.00000000000E+00 0. -1.
         11    1    3    3    0    0  0.90994082111E+01 -0.41840513965E+01 -0.12496711755E+02  0.16014784446E+02  0.51100000000E-03 0. -1.
        -11    1    3    3    0    0  0.34222944608E+01  0.72252635056E-01 -0.26897109014E+01  0.43533739575E+01  0.51100000000E-03 0.  1.
        -12    1    3    3    0    0 -0.11079736578E+02  0.14252458497E+02 -0.24161430179E+02  0.30160700326E+02  0.00000000000E+00 0.  1.
</event>
<event>
 7    1  0.5284980E-012  0.5052886E+02  0.7816164E-02  0.1300439E+00
        -11   -1    0    0    0    0  0.00000000000E+00  0.00000000000E+00  0.45593999997E+02  0.45594000000E+02  0.51100000000E-03 0. -1.
         11   -1    0    0    0    0 -0.00000000000E+00 -0.00000000000E+00 -0.45593999997E+02  0.45594000000E+02  0.51100000000E-03 0.  1.
    9900012    2    1    2    0    0  0.18639216588E+01 -0.92513080140E+01  0.39548762945E+02  0.50528861366E+02  0.30000004609E+02 0.  0.
        -12    1    1    2    0    0 -0.18639216588E+01  0.92513080140E+01 -0.39548762945E+02  0.40659138634E+02  0.00000000000E+00 0.  1.
         11    1    3    3    0    0  0.52517279817E+00 -0.67112316751E+01  0.48212493280E+01  0.82801499025E+01  0.51100000000E-03 0. -1.
        -11    1    3    3    0    0 -0.19383470604E+01 -0.98125253120E+00 -0.33531884383E+01  0.39954873070E+01  0.51100000000E-03 0.  1.
         12    1    3    3    0    0  0.32770959210E+01 -0.15588238077E+01  0.38080702056E+02  0.38253224157E+02  0.00000000000E+00 0. -1.
</event>
<event>
 7    1  0.4520156E-012  0.5052887E+02  0.7816164E-02  0.1300439E+00
        -11   -1    0    0    0    0  0.00000000000E+00  0.00000000000E+00  0.45593999997E+02  0.45594000000E+02  0.51100000000E-03 0.  1.
         11   -1    0    0    0    0 -0.00000000000E+00 -0.00000000000E+00 -0.45593999997E+02  0.45594000000E+02  0.51100000000E-03 0. -1.
    9900012    2    1    2    0    0  0.10170739613E+01  0.37799375690E+02  0.14944496886E+02  0.50528865366E+02  0.30000016767E+02 0.  0.
        -12    1    1    2    0    0 -0.10170739613E+01 -0.37799375690E+02 -0.14944496886E+02  0.40659134634E+02  0.00000000000E+00 0.  1.
         11    1    3    3    0    0  0.47618252042E+01  0.21503731640E+00  0.10503529567E+01  0.48810308253E+01  0.51100000000E-03 0. -1.
        -11    1    3    3    0    0  0.34545132869E+01  0.28372956495E+02  0.17375579153E+02  0.33449500348E+02  0.51100000000E-03 0.  1.
         12    1    3    3    0    0 -0.71992645298E+01  0.92113818781E+01 -0.34814352236E+01  0.12198334193E+02  0.00000000000E+00 0. -1.
</event>
<event>
 7    1  0.4520156E-012  0.5052886E+02  0.7816164E-02  0.1300439E+00
        -11   -1    0    0    0    0  0.00000000000E+00  0.00000000000E+00  0.45593999997E+02  0.45594000000E+02  0.51100000000E-03 0. -1.
         11   -1    0    0    0    0 -0.00000000000E+00 -0.00000000000E+00 -0.45593999997E+02  0.45594000000E+02  0.51100000000E-03 0.  1.
    9900012    2    1    2    0    0  0.91045344703E+00  0.29667317659E+02 -0.27788248482E+02  0.50528863066E+02  0.30000009775E+02 0.  0.
         12    1    1    2    0    0 -0.91045344703E+00 -0.29667317659E+02  0.27788248482E+02  0.40659136934E+02  0.00000000000E+00 0. -1.
         11    1    3    3    0    0 -0.18987677474E+01  0.25574809352E+01  0.15079222374E+01  0.35241818097E+01  0.51100000000E-03 0. -1.
        -11    1    3    3    0    0 -0.79335648121E+01  0.38175486920E+00 -0.58993199306E+01  0.98938952548E+01  0.51100000000E-03 0.  1.
        -12    1    3    3    0    0  0.10742786007E+02  0.26728081855E+02 -0.23396850788E+02  0.37110786001E+02  0.00000000000E+00 0.  1.
</event>
<event>
 7    1  0.4520156E-012  0.5052887E+02  0.7816164E-02  0.1300439E+00
        -11   -1    0    0    0    0  0.00000000000E+00  0.00000000000E+00  0.45593999997E+02  0.45594000000E+02  0.51100000000E-03 0. -1.
         11   -1    0    0    0    0 -0.00000000000E+00 -0.00000000000E+00 -0.45593999997E+02  0.45594000000E+02  0.51100000000E-03 0.  1.
    9900012    2    1    2    0    0 -0.16062429170E+02  0.49860072613E+01 -0.37017608369E+02  0.50528865373E+02  0.30000016786E+02 0.  0.
         12    1    1    2    0    0  0.16062429170E+02 -0.49860072613E+01  0.37017608369E+02  0.40659134627E+02  0.00000000000E+00 0. -1.
         11    1    3    3    0    0 -0.28389268483E+01  0.29603708126E+01  0.14810315393E+00  0.41042947998E+01  0.51100000000E-03 0. -1.
        -11    1    3    3    0    0 -0.13417285956E+02  0.80199462371E+00 -0.51643089628E+01  0.14399195989E+02  0.51100000000E-03 0.  1.
        -12    1    3    3    0    0  0.19378363366E+00  0.12236418250E+01 -0.32001402561E+02  0.32025374584E+02  0.00000000000E+00 0.  1.
</event>
<event>
 7    1  0.4520156E-012  0.5052886E+02  0.7816164E-02  0.1300439E+00
        -11   -1    0    0    0    0  0.00000000000E+00  0.00000000000E+00  0.45593999997E+02  0.45594000000E+02  0.51100000000E-03 0. -1.
         11   -1    0    0    0    0 -0.00000000000E+00 -0.00000000000E+00 -0.45593999997E+02  0.45594000000E+02  0.51100000000E-03 0.  1.
    9900012    2    1    2    0    0  0.62502062345E+01 -0.12917669391E+02 -0.38042539314E+02  0.50528855175E+02  0.29999985788E+02 0.  0.
         12    1    1    2    0    0 -0.62502062345E+01  0.12917669391E+02  0.38042539314E+02  0.40659144825E+02  0.00000000000E+00 0. -1.
         11    1    3    3    0    0  0.10553778080E+01 -0.10592344784E+02 -0.27370026959E+02  0.29367157955E+02  0.51100000000E-03 0.  1.
        -11    1    3    3    0    0 -0.51113638513E+01 -0.15935710028E+01 -0.93105268262E+01  0.10740177792E+02  0.51100000000E-03 0. -1.
         12    1    3    3    0    0  0.10306192278E+02 -0.73175360453E+00 -0.13619855290E+01  0.10421519428E+02  0.00000000000E+00 0. -1.
</event>
<event>
 7    1  0.4520156E-012  0.5052885E+02  0.7816164E-02  0.1300439E+00
        -11   -1    0    0    0    0  0.00000000000E+00  0.00000000000E+00  0.45593999997E+02  0.45594000000E+02  0.51100000000E-03 0. -1.
         11   -1    0    0    0    0 -0.00000000000E+00 -0.00000000000E+00 -0.45593999997E+02  0.45594000000E+02  0.51100000000E-03 0.  1.
    9900012    2    1    2    0    0 -0.23961553857E+02  0.22887290694E+02 -0.23562315416E+02  0.50528845479E+02  0.29999956318E+02 0.  0.
         12    1    1    2    0    0  0.23961553857E+02 -0.22887290694E+02  0.23562315416E+02  0.40659154521E+02  0.00000000000E+00 0. -1.
         11    1    3    3    0    0 -0.41505914400E+01 -0.54845884896E+01 -0.34581489285E+00  0.68867777954E+01  0.51100000000E-03 0. -1.
        -11    1    3    3    0    0 -0.15442883390E+01 -0.34879913490E+00 -0.45598458594E+01  0.48268708117E+01  0.51100000000E-03 0.  1.
        -12    1    3    3    0    0 -0.18266674078E+02  0.28720678318E+02 -0.18656654664E+02  0.38815196872E+02  0.00000000000E+00 0.  1.
</event>
<event>
 7    1  0.4520156E-012  0.5052887E+02  0.7816164E-02  0.1300439E+00
        -11   -1    0    0    0    0  0.00000000000E+00  0.00000000000E+00  0.45593999997E+02  0.45594000000E+02  0.51100000000E-03 0. -1.
         11   -1    0    0    0    0 -0.00000000000E+00 -0.00000000000E+00 -0.45593999997E+02  0.45594000000E+02  0.51100000000E-03 0.  1.
    9900012    2    1    2    0    0 -0.24819950004E+02  0.23392747497E+02 -0.22134005088E+02  0.50528871444E+02  0.30000035242E+02 0.  0.
         12    1    1    2    0    0  0.24819950004E+02 -0.23392747497E+02  0.22134005088E+02  0.40659128556E+02  0.00000000000E+00 0. -1.
         11    1    3    3    0    0 -0.71585336219E-01  0.17376178686E+01 -0.50813731353E+01  0.53707349142E+01  0.51100000000E-03 0. -1.
        -11    1    3    3    0    0  0.17610911707E+01  0.10077672575E+02 -0.12040501384E+02  0.15799829128E+02  0.51100000000E-03 0.  1.
         12    1    3    3    0    0 -0.26509455839E+02  0.11577457054E+02 -0.50121305693E+01  0.29358307402E+02  0.00000000000E+00 0. -1.
</event>
<event>
 7    1  0.4520156E-012  0.5052886E+02  0.7816164E-02  0.1300439E+00
        -11   -1    0    0    0    0  0.00000000000E+00  0.00000000000E+00  0.45593999997E+02  0.45594000000E+02  0.51100000000E-03 0. -1.
         11   -1    0    0    0    0 -0.00000000000E+00 -0.00000000000E+00 -0.45593999997E+02  0.45594000000E+02  0.51100000000E-03 0.  1.
    9900012    2    1    2    0    0 -0.73601103017E+01 -0.10586570086E+02 -0.38560583705E+02  0.50528864427E+02  0.30000013912E+02 0.  0.
         12    1    1    2    0    0  0.73601103017E+01  0.10586570086E+02  0.38560583705E+02  0.40659135573E+02  0.00000000000E+00 0. -1.
         11    1    3    3    0    0  0.60684881945E+01  0.36011793694E+00 -0.10495954756E+02  0.12129356965E+02  0.51100000000E-03 0. -1.
        -11    1    3    3    0    0  0.16212230618E+01 -0.48302075782E+01 -0.19258291583E+02  0.19920870072E+02  0.51100000000E-03 0.  1.
         12    1    3    3    0    0 -0.15049821558E+02 -0.61164804446E+01 -0.88063373661E+01  0.18478637389E+02  0.00000000000E+00 0. -1.
</event>
<event>
 7    1  0.4520156E-012  0.5052886E+02  0.7816164E-02  0.1300439E+00
        -11   -1    0    0    0    0  0.00000000000E+00  0.00000000000E+00  0.45593999997E+02  0.45594000000E+02  0.51100000000E-03 0. -1.
         11   -1    0    0    0    0 -0.00000000000E+00 -0.00000000000E+00 -0.45593999997E+02  0.45594000000E+02  0.51100000000E-03 0.  1.
    9900012    2    1    2    0    0  0.26637542941E+02  0.93104139750E+01  0.29273246579E+02  0.50528862434E+02  0.30000007854E+02 0.  0.
        -12    1    1    2    0    0 -0.26637542941E+02 -0.93104139750E+01 -0.29273246579E+02  0.40659137566E+02  0.00000000000E+00 0.  1.
         11    1    3    3    0    0  0.13510259463E+02 -0.65622255865E+01  0.42197943527E+01  0.15601172394E+02  0.51100000000E-03 0.  1.
        -11    1    3    3    0    0  0.39871205037E+01 -0.13756317837E+01  0.78365305462E+01  0.88994777362E+01  0.51100000000E-03 0. -1.
         12    1    3    3    0    0  0.91401629742E+01  0.17248271345E+02  0.17216921680E+02  0.26028212304E+02  0.00000000000E+00 0. -1.
</event>
<event>
 7    1  0.4520156E-012  0.5052887E+02  0.7816164E-02  0.1300439E+00
        -11   -1    0    0    0    0  0.00000000000E+00  0.00000000000E+00  0.45593999997E+02  0.45594000000E+02  0.51100000000E-03 0. -1.
         11   -1    0    0    0    0 -0.00000000000E+00 -0.00000000000E+00 -0.45593999997E+02  0.45594000000E+02  0.51100000000E-03 0.  1.
    9900012    2    1    2    0    0  0.59153665612E+01 -0.19597919351E+02  0.35129690187E+02  0.50528866499E+02  0.30000020210E+02 0.  0.
        -12    1    1    2    0    0 -0.59153665612E+01  0.19597919351E+02 -0.35129690187E+02  0.40659133501E+02  0.00000000000E+00 0.  1.
         11    1    3    3    0    0 -0.30732864201E+01 -0.30342990882E+00  0.16805584506E+01  0.35158834020E+01  0.51100000000E-03 0. -1.
        -11    1    3    3    0    0 -0.20912071342E+01  0.44296737384E+01  0.12676144678E+02  0.13589694657E+02  0.51100000000E-03 0.  1.
         12    1    3    3    0    0  0.11079860115E+02 -0.23724163181E+02  0.20772987058E+02  0.33423288440E+02  0.00000000000E+00 0. -1.
</event>
<event>
 7    1  0.4520156E-012  0.5052886E+02  0.7816164E-02  0.1300439E+00
        -11   -1    0    0    0    0  0.00000000000E+00  0.00000000000E+00  0.45593999997E+02  0.45594000000E+02  0.51100000000E-03 0. -1.
         11   -1    0    0    0    0 -0.00000000000E+00 -0.00000000000E+00 -0.45593999997E+02  0.45594000000E+02  0.51100000000E-03 0.  1.
    9900012    2    1    2    0    0  0.13847816724E+02  0.19018687645E+02 -0.33161625117E+02  0.50528857263E+02  0.29999992135E+02 0.  0.
         12    1    1    2    0    0 -0.13847816724E+02 -0.19018687645E+02  0.33161625117E+02  0.40659142737E+02  0.00000000000E+00 0. -1.
         11    1    3    3    0    0 -0.41775220849E+00  0.59993559336E+01 -0.32544905474E+01  0.68380185368E+01  0.51100000000E-03 0. -1.
        -11    1    3    3    0    0  0.16566250290E+02  0.17127109130E+02 -0.15236008280E+02  0.28282759137E+02  0.51100000000E-03 0.  1.
        -12    1    3    3    0    0 -0.23006813581E+01 -0.41077774179E+01 -0.14671126289E+02  0.15408079589E+02  0.00000000000E+00 0.  1.
</event>
<event>
 7    1  0.4520156E-012  0.5052886E+02  0.7816164E-02  0.1300439E+00
        -11   -1    0    0    0    0  0.00000000000E+00  0.00000000000E+00  0.45593999997E+02  0.45594000000E+02  0.51100000000E-03 0. -1.
         11   -1    0    0    0    0 -0.00000000000E+00 -0.00000000000E+00 -0.45593999997E+02  0.45594000000E+02  0.51100000000E-03 0.  1.
    9900012    2    1    2    0    0  0.64060216728E+01 -0.34180493604E+02 -0.21067090661E+02  0.50528861229E+02  0.30000004191E+02 0.  0.
         12    1    1    2    0    0 -0.64060216728E+01  0.34180493604E+02  0.21067090661E+02  0.40659138771E+02  0.00000000000E+00 0. -1.
         11    1    3    3    0    0  0.81141658534E+01 -0.21088030657E+01 -0.90774082615E+01  0.12356620852E+02  0.51100000000E-03 0. -1.
        -11    1    3    3    0    0  0.67940390381E+01 -0.99824254094E+01 -0.70856750217E+01  0.14000520500E+02  0.51100000000E-03 0.  1.
         12    1    3    3    0    0 -0.85021832187E+01 -0.22089265129E+02 -0.49040073781E+01  0.24171719877E+02  0.00000000000E+00 0. -1.
</event>
<event>
 7    1  0.4520156E-012  0.5052885E+02  0.7816164E-02  0.1300439E+00
        -11   -1    0    0    0    0  0.00000000000E+00  0.00000000000E+00  0.45593999997E+02  0.45594000000E+02  0.51100000000E-03 0. -1.
         11   -1    0    0    0    0 -0.00000000000E+00 -0.00000000000E+00 -0.45593999997E+02  0.45594000000E+02  0.51100000000E-03 0.  1.
    9900012    2    1    2    0    0  0.60230203617E+01 -0.11026268004E+02  0.38669249722E+02  0.50528853004E+02  0.29999979190E+02 0.  0.
        -12    1    1    2    0    0 -0.60230203617E+01  0.11026268004E+02 -0.38669249722E+02  0.40659146996E+02  0.00000000000E+00 0.  1.
         11    1    3    3    0    0  0.55903625406E+01 -0.65966919349E+01  0.25810934864E+02  0.27220816604E+02  0.51100000000E-03 0. -1.
        -11    1    3    3    0    0 -0.11012505880E+01 -0.82690215808E+01  0.16047636787E+02  0.18086351690E+02  0.51100000000E-03 0.  1.
        -12    1    3    3    0    0  0.15339084091E+01  0.38394455115E+01 -0.31893219277E+01  0.52216847091E+01  0.00000000000E+00 0.  1.
</event>
<event>
 7    1  0.4520156E-012  0.5052887E+02  0.7816164E-02  0.1300439E+00
        -11   -1    0    0    0    0  0.00000000000E+00  0.00000000000E+00  0.45593999997E+02  0.45594000000E+02  0.51100000000E-03 0. -1.
         11   -1    0    0    0    0 -0.00000000000E+00 -0.00000000000E+00 -0.45593999997E+02  0.45594000000E+02  0.51100000000E-03 0.  1.
    9900012    2    1    2    0    0 -0.49184122590E+01 -0.46973285070E+01  0.40086276160E+02  0.50528865595E+02  0.30000017461E+02 0.  0.
        -12    1    1    2    0    0  0.49184122590E+01  0.46973285070E+01 -0.40086276160E+02  0.40659134405E+02  0.00000000000E+00 0.  1.
         11    1    3    3    0    0 -0.26108505295E+01  0.35760320346E+01  0.36822317079E+01  0.57587651638E+01  0.51100000000E-03 0. -1.
        -11    1    3    3    0    0 -0.18717735058E+01  0.47866648613E+01  0.29589703054E+02  0.30032752515E+02  0.51100000000E-03 0.  1.
        -12    1    3    3    0    0 -0.43578822372E+00 -0.13060025403E+02  0.68143413976E+01  0.14737347916E+02  0.00000000000E+00 0.  1.
</event>
<event>
 7    1  0.4520156E-012  0.5052887E+02  0.7816164E-02  0.1300439E+00
        -11   -1    0    0    0    0  0.00000000000E+00  0.00000000000E+00  0.45593999997E+02  0.45594000000E+02  0.51100000000E-03 0. -1.
         11   -1    0    0    0    0 -0.00000000000E+00 -0.00000000000E+00 -0.45593999997E+02  0.45594000000E+02  0.51100000000E-03 0.  1.
    9900012    2    1    2    0    0 -0.18578703189E+02 -0.32173954524E+02 -0.16517664851E+02  0.50528870471E+02  0.30000032284E+02 0.  0.
         12    1    1    2    0    0  0.18578703189E+02  0.32173954524E+02  0.16517664851E+02  0.40659129529E+02  0.00000000000E+00 0. -1.
         11    1    3    3    0    0 -0.43695406145E+01 -0.11502372966E+02 -0.61178028405E+01  0.13741360227E+02  0.51100000000E-03 0. -1.
        -11    1    3    3    0    0 -0.46037254698E+01 -0.23386854775E+02 -0.11987303401E+02  0.26680230651E+02  0.51100000000E-03 0.  1.
         12    1    3    3    0    0 -0.96054371050E+01  0.27152732175E+01  0.15874413898E+01  0.10107279594E+02  0.00000000000E+00 0. -1.
</event>
<event>
 7    1  0.4520156E-012  0.5052886E+02  0.7816164E-02  0.1300439E+00
        -11   -1    0    0    0    0  0.00000000000E+00  0.00000000000E+00  0.45593999997E+02  0.45594000000E+02  0.51100000000E-03 0. -1.
         11   -1    0    0    0    0 -0.00000000000E+00 -0.00000000000E+00 -0.45593999997E+02  0.45594000000E+02  0.51100000000E-03 0.  1.
    9900012    2    1    2    0    0  0.32899420222E+00 -0.13958713113E+02  0.38186535030E+02  0.50528863676E+02  0.30000011630E+02 0.  0.
        -12    1    1    2    0    0 -0.32899420222E+00  0.13958713113E+02 -0.38186535030E+02  0.40659136324E+02  0.00000000000E+00 0.  1.
         11    1    3    3    0    0 -0.53883231863E+01 -0.16637114517E+02  0.17103536254E+02  0.24461368704E+02  0.51100000000E-03 0. -1.
        -11    1    3    3    0    0  0.15620650899E+01 -0.67616973338E-01 -0.19515474849E+01  0.25006313697E+01  0.51100000000E-03 0.  1.
        -12    1    3    3    0    0  0.41552522987E+01  0.27460183774E+01  0.23034546261E+02  0.23566863602E+02  0.00000000000E+00 0.  1.
</event>
<event>
 7    1  0.4520156E-012  0.5052885E+02  0.7816164E-02  0.1300439E+00
        -11   -1    0    0    0    0  0.00000000000E+00  0.00000000000E+00  0.45593999997E+02  0.45594000000E+02  0.51100000000E-03 0. -1.
         11   -1    0    0    0    0 -0.00000000000E+00 -0.00000000000E+00 -0.45593999997E+02  0.45594000000E+02  0.51100000000E-03 0.  1.
    9900012    2    1    2    0    0  0.21919582996E+02  0.26987897461E+02  0.21079642942E+02  0.50528854969E+02  0.29999985164E+02 0.  0.
        -12    1    1    2    0    0 -0.21919582996E+02 -0.26987897461E+02 -0.21079642942E+02  0.40659145031E+02  0.00000000000E+00 0.  1.
         11    1    3    3    0    0  0.82058979627E+01  0.46997792708E+01  0.13386697311E+02  0.16389885653E+02  0.51100000000E-03 0. -1.
        -11    1    3    3    0    0 -0.15124124129E+01 -0.12245941002E+01 -0.34748695705E+01  0.39826801039E+01  0.51100000000E-03 0.  1.
         12    1    3    3    0    0  0.15226097446E+02  0.23512712290E+02  0.11167815202E+02  0.30156289212E+02  0.00000000000E+00 0. -1.
</event>
<event>
 7    1  0.4520156E-012  0.5052888E+02  0.7816164E-02  0.1300439E+00
        -11   -1    0    0    0    0  0.00000000000E+00  0.00000000000E+00  0.45593999997E+02  0.45594000000E+02  0.51100000000E-03 0. -1.
         11   -1    0    0    0    0 -0.00000000000E+00 -0.00000000000E+00 -0.45593999997E+02  0.45594000000E+02  0.51100000000E-03 0.  1.
    9900012    2    1    2    0    0  0.28920042123E+01  0.26286053242E+01  0.40470865812E+02  0.50528877606E+02  0.30000053970E+02 0.  0.
        -12    1    1    2    0    0 -0.28920042123E+01 -0.26286053242E+01 -0.40470865812E+02  0.40659122394E+02  0.00000000000E+00 0.  1.
         11    1    3    3    0    0 -0.45160691980E+01  0.29353032138E+01  0.22472865291E+01  0.58361959326E+01  0.51100000000E-03 0. -1.
        -11    1    3    3    0    0 -0.71964119124E+01  0.35741054411E+01  0.14009977357E+02  0.16150604940E+02  0.51100000000E-03 0.  1.
         12    1    3    3    0    0  0.14604485323E+02 -0.38808033307E+01  0.24213601926E+02  0.28542076733E+02  0.00000000000E+00 0. -1.
</event>
<event>
 7    1  0.4520156E-012  0.5052884E+02  0.7816164E-02  0.1300439E+00
        -11   -1    0    0    0    0  0.00000000000E+00  0.00000000000E+00  0.45593999997E+02  0.45594000000E+02  0.51100000000E-03 0. -1.
         11   -1    0    0    0    0 -0.00000000000E+00 -0.00000000000E+00 -0.45593999997E+02  0.45594000000E+02  0.51100000000E-03 0.  1.
    9900012    2    1    2    0    0  0.58096509311E+01 -0.37793309836E+02 -0.13823192680E+02  0.50528843981E+02  0.29999951766E+02 0.  0.
         12    1    1    2    0    0 -0.58096509311E+01  0.37793309836E+02  0.13823192680E+02  0.40659156019E+02  0.00000000000E+00 0. -1.
         11    1    3    3    0    0 -0.28246168694E+01  0.26861304169E+01  0.67045551896E+00  0.39551571321E+01  0.51100000000E-03 0. -1.
        -11    1    3    3    0    0  0.42182662076E+01 -0.18138680659E+02 -0.14817439008E+02  0.23798361390E+02  0.51100000000E-03 0.  1.
         12    1    3    3    0    0  0.44160015929E+01 -0.22340759593E+02  0.32379080895E+00  0.22775325459E+02  0.00000000000E+00 0. -1.
</event>
<event>
 7    1  0.4520156E-012  0.5052886E+02  0.7816164E-02  0.1300439E+00
        -11   -1    0    0    0    0  0.00000000000E+00  0.00000000000E+00  0.45593999997E+02  0.45594000000E+02  0.51100000000E-03 0.  1.
         11   -1    0    0    0    0 -0.00000000000E+00 -0.00000000000E+00 -0.45593999997E+02  0.45594000000E+02  0.51100000000E-03 0. -1.
    9900012    2    1    2    0    0  0.11200593858E+01 -0.39813067749E+02  0.81749891986E+01  0.50528863942E+02  0.30000012437E+02 0.  0.
        -12    1    1    2    0    0 -0.11200593858E+01  0.39813067749E+02 -0.81749891986E+01  0.40659136058E+02  0.00000000000E+00 0.  1.
         11    1    3    3    0    0 -0.20246342117E+01 -0.32296167553E+01  0.58085931953E+01  0.69476127732E+01  0.51100000000E-03 0. -1.
        -11    1    3    3    0    0  0.20959474167E+01 -0.27004112985E+02  0.12294780258E+02  0.29745196848E+02  0.51100000000E-03 0.  1.
         12    1    3    3    0    0  0.10487461808E+01 -0.95793380091E+01 -0.99283842548E+01  0.13836054320E+02  0.00000000000E+00 0. -1.
</event>
<event>
 7    1  0.4520156E-012  0.5052885E+02  0.7816164E-02  0.1300439E+00
        -11   -1    0    0    0    0  0.00000000000E+00  0.00000000000E+00  0.45593999997E+02  0.45594000000E+02  0.51100000000E-03 0.  1.
         11   -1    0    0    0    0 -0.00000000000E+00 -0.00000000000E+00 -0.45593999997E+02  0.45594000000E+02  0.51100000000E-03 0. -1.
    9900012    2    1    2    0    0 -0.34039097216E+02  0.20692235032E+02  0.81447791619E+01  0.50528853950E+02  0.29999982067E+02 0.  0.
        -12    1    1    2    0    0  0.34039097216E+02 -0.20692235032E+02 -0.81447791619E+01  0.40659146050E+02  0.00000000000E+00 0.  1.
         11    1    3    3    0    0 -0.69584217738E+01 -0.35028732608E+01  0.79549974264E+01  0.11134259696E+02  0.51100000000E-03 0. -1.
        -11    1    3    3    0    0 -0.26463318624E+01 -0.20593022498E+01 -0.10318073131E+01  0.35083364540E+01  0.51100000000E-03 0.  1.
         12    1    3    3    0    0 -0.24434343580E+02  0.26254410543E+02  0.12215890487E+01  0.35886257800E+02  0.00000000000E+00 0. -1.
</event>
