<event>
 7    1  0.5987893E-013  0.5930200E+02  0.7816164E-02  0.1266605E+00
        -11   -1    0    0    0    0  0.00000000000E+00  0.00000000000E+00  0.45593999997E+02  0.45594000000E+02  0.51100000000E-03 0.  1.
         11   -1    0    0    0    0 -0.00000000000E+00 -0.00000000000E+00 -0.45593999997E+02  0.45594000000E+02  0.51100000000E-03 0. -1.
    9900012    2    1    2    0    0 -0.26980377984E+02  0.16856594006E+02 -0.21521089048E+01  0.59301997893E+02  0.50000098236E+02 0.  0.
        -12    1    1    2    0    0  0.26980377984E+02 -0.16856594006E+02  0.21521089048E+01  0.31886002107E+02  0.00000000000E+00 0.  1.
         11    1    3    3    0    0  0.11102931585E+02 -0.49041208288E+01 -0.87233690940E+01  0.14947329511E+02  0.51100000000E-03 0.  1.
        -11    1    3    3    0    0 -0.25030126958E+02  0.14456976703E+02  0.41119082295E+01  0.29196219284E+02  0.51100000000E-03 0. -1.
        -12    1    3    3    0    0 -0.13053182611E+02  0.73037381322E+01  0.24593519597E+01  0.15158449098E+02  0.00000000000E+00 0.  1.
</event>
<event>
 7    1  0.5987893E-013  0.5930198E+02  0.7816164E-02  0.1266605E+00
        -11   -1    0    0    0    0  0.00000000000E+00  0.00000000000E+00  0.45593999997E+02  0.45594000000E+02  0.51100000000E-03 0.  1.
         11   -1    0    0    0    0 -0.00000000000E+00 -0.00000000000E+00 -0.45593999997E+02  0.45594000000E+02  0.51100000000E-03 0. -1.
    9900012    2    1    2    0    0  0.20950897866E+02 -0.22146918400E+02 -0.93430314415E+01  0.59301978728E+02  0.50000063285E+02 0.  0.
        -12    1    1    2    0    0 -0.20950897866E+02  0.22146918400E+02  0.93430314415E+01  0.31886021272E+02  0.00000000000E+00 0.  1.
         11    1    3    3    0    0  0.15507294996E+02 -0.14286496332E+02 -0.25673357277E+02  0.33222002493E+02  0.51100000000E-03 0.  1.
        -11    1    3    3    0    0  0.11408293601E+02 -0.46819731583E+01  0.14585044062E+02  0.19099569265E+02  0.51100000000E-03 0. -1.
         12    1    3    3    0    0 -0.59646907313E+01 -0.31784489104E+01  0.17452817739E+01  0.69804069699E+01  0.00000000000E+00 0. -1.
</event>
<event>
 7    1  0.5987893E-013  0.5930190E+02  0.7816164E-02  0.1266605E+00
        -11   -1    0    0    0    0  0.00000000000E+00  0.00000000000E+00  0.45593999997E+02  0.45594000000E+02  0.51100000000E-03 0. -1.
         11   -1    0    0    0    0 -0.00000000000E+00 -0.00000000000E+00 -0.45593999997E+02  0.45594000000E+02  0.51100000000E-03 0.  1.
    9900012    2    1    2    0    0 -0.26481309111E+02  0.33252953197E+01 -0.17447243561E+02  0.59301895988E+02  0.49999912387E+02 0.  0.
        -12    1    1    2    0    0  0.26481309111E+02 -0.33252953197E+01  0.17447243561E+02  0.31886104012E+02  0.00000000000E+00 0.  1.
         11    1    3    3    0    0 -0.19304764484E+02  0.14829903013E+02 -0.19833378911E+01  0.24424037025E+02  0.51100000000E-03 0. -1.
        -11    1    3    3    0    0  0.84704628669E+01  0.24772423279E+01 -0.97060218368E+01  0.13118396658E+02  0.51100000000E-03 0.  1.
        -12    1    3    3    0    0 -0.15647007494E+02 -0.13981850021E+02 -0.57578838334E+01  0.21759462304E+02  0.00000000000E+00 0.  1.
</event>
<event>
 7    1  0.5987893E-013  0.5930196E+02  0.7816164E-02  0.1266605E+00
        -11   -1    0    0    0    0  0.00000000000E+00  0.00000000000E+00  0.45593999997E+02  0.45594000000E+02  0.51100000000E-03 0.  1.
         11   -1    0    0    0    0 -0.00000000000E+00 -0.00000000000E+00 -0.45593999997E+02  0.45594000000E+02  0.51100000000E-03 0. -1.
    9900012    2    1    2    0    0 -0.14085007806E+01  0.11472516516E+01 -0.31834250912E+02  0.59301959294E+02  0.50000027842E+02 0.  0.
        -12    1    1    2    0    0  0.14085007806E+01 -0.11472516516E+01  0.31834250912E+02  0.31886040706E+02  0.00000000000E+00 0.  1.
         11    1    3    3    0    0 -0.84673208568E+01 -0.21049152105E+02 -0.12782634177E+02  0.26041468154E+02  0.51100000000E-03 0. -1.
        -11    1    3    3    0    0  0.15243836699E+01  0.18834412699E+02 -0.81457020099E+01  0.20576960630E+02  0.51100000000E-03 0.  1.
        -12    1    3    3    0    0  0.55344364063E+01  0.33619910583E+01 -0.10905914725E+02  0.12683530510E+02  0.00000000000E+00 0.  1.
</event>
<event>
 7    1  0.5987893E-013  0.5930195E+02  0.7816164E-02  0.1266605E+00
        -11   -1    0    0    0    0  0.00000000000E+00  0.00000000000E+00  0.45593999997E+02  0.45594000000E+02  0.51100000000E-03 0.  1.
         11   -1    0    0    0    0 -0.00000000000E+00 -0.00000000000E+00 -0.45593999997E+02  0.45594000000E+02  0.51100000000E-03 0. -1.
    9900012    2    1    2    0    0  0.43807024257E+01 -0.26103930700E+02 -0.17779604936E+02  0.59301951273E+02  0.50000013213E+02 0.  0.
        -12    1    1    2    0    0 -0.43807024257E+01  0.26103930700E+02  0.17779604936E+02  0.31886048727E+02  0.00000000000E+00 0.  1.
         11    1    3    3    0    0 -0.11971217988E+02 -0.67703258165E+01  0.30540664631E+01  0.14088104698E+02  0.51100000000E-03 0. -1.
        -11    1    3    3    0    0  0.19501544819E+02 -0.11046053394E+01 -0.17879584095E+02  0.26480368784E+02  0.51100000000E-03 0.  1.
        -12    1    3    3    0    0 -0.31496244058E+01 -0.18228999545E+02 -0.29540873048E+01  0.18733477790E+02  0.00000000000E+00 0.  1.
</event>
<event>
 7    1  0.5987893E-013  0.5930193E+02  0.7816164E-02  0.1266605E+00
        -11   -1    0    0    0    0  0.00000000000E+00  0.00000000000E+00  0.45593999997E+02  0.45594000000E+02  0.51100000000E-03 0.  1.
         11   -1    0    0    0    0 -0.00000000000E+00 -0.00000000000E+00 -0.45593999997E+02  0.45594000000E+02  0.51100000000E-03 0. -1.
    9900012    2    1    2    0    0  0.21531641860E+02  0.18548536828E+02 -0.14458964004E+02  0.59301930006E+02  0.49999974427E+02 0.  0.
        -12    1    1    2    0    0 -0.21531641860E+02 -0.18548536828E+02  0.14458964004E+02  0.31886069994E+02  0.00000000000E+00 0.  1.
         11    1    3    3    0    0 -0.14848345215E+00  0.37430940662E+01 -0.74840101733E+01  0.83691821022E+01  0.51100000000E-03 0. -1.
        -11    1    3    3    0    0  0.22458924444E+02 -0.10639432974E+02 -0.15196775620E+01  0.24897996734E+02  0.51100000000E-03 0.  1.
        -12    1    3    3    0    0 -0.77879913237E+00  0.25444875736E+02 -0.54552762682E+01  0.26034751170E+02  0.00000000000E+00 0.  1.
</event>
<event>
 7    1  0.5987893E-013  0.5930196E+02  0.7816164E-02  0.1266605E+00
        -11   -1    0    0    0    0  0.00000000000E+00  0.00000000000E+00  0.45593999997E+02  0.45594000000E+02  0.51100000000E-03 0.  1.
         11   -1    0    0    0    0 -0.00000000000E+00 -0.00000000000E+00 -0.45593999997E+02  0.45594000000E+02  0.51100000000E-03 0. -1.
    9900012    2    1    2    0    0 -0.15117322213E+02 -0.19027545888E+02 -0.20643127506E+02  0.59301958436E+02  0.50000026277E+02 0.  0.
        -12    1    1    2    0    0  0.15117322213E+02  0.19027545888E+02  0.20643127506E+02  0.31886041564E+02  0.00000000000E+00 0.  1.
         11    1    3    3    0    0  0.10944836203E+01 -0.65758335028E+01  0.11594331778E+02  0.13374154564E+02  0.51100000000E-03 0.  1.
        -11    1    3    3    0    0 -0.78440190429E+01 -0.10102700027E+02 -0.34627285337E+02  0.36913982075E+02  0.51100000000E-03 0. -1.
         12    1    3    3    0    0 -0.83677867902E+01 -0.23490123581E+01  0.23898260523E+01  0.90138217969E+01  0.00000000000E+00 0. -1.
</event>
<event>
 7    1  0.5987893E-013  0.5930195E+02  0.7816164E-02  0.1266605E+00
        -11   -1    0    0    0    0  0.00000000000E+00  0.00000000000E+00  0.45593999997E+02  0.45594000000E+02  0.51100000000E-03 0.  1.
         11   -1    0    0    0    0 -0.00000000000E+00 -0.00000000000E+00 -0.45593999997E+02  0.45594000000E+02  0.51100000000E-03 0. -1.
    9900012    2    1    2    0    0 -0.27259188355E+02  0.58121532329E+01  0.15487911472E+02  0.59301954828E+02  0.50000019696E+02 0.  0.
        -12    1    1    2    0    0  0.27259188355E+02 -0.58121532329E+01 -0.15487911472E+02  0.31886045172E+02  0.00000000000E+00 0.  1.
         11    1    3    3    0    0 -0.30324004646E+02  0.60728326199E+01  0.13734537703E+02  0.33838765935E+02  0.51100000000E-03 0. -1.
        -11    1    3    3    0    0  0.12229362572E+02  0.66505024644E+01  0.11755360173E+01  0.13970267611E+02  0.51100000000E-03 0.  1.
        -12    1    3    3    0    0 -0.91645462805E+01 -0.69111818514E+01  0.57783775164E+00  0.11492921281E+02  0.00000000000E+00 0.  1.
</event>
<event>
 7    1  0.5987893E-013  0.5930189E+02  0.7816164E-02  0.1266605E+00
        -11   -1    0    0    0    0  0.00000000000E+00  0.00000000000E+00  0.45593999997E+02  0.45594000000E+02  0.51100000000E-03 0.  1.
         11   -1    0    0    0    0 -0.00000000000E+00 -0.00000000000E+00 -0.45593999997E+02  0.45594000000E+02  0.51100000000E-03 0. -1.
    9900012    2    1    2    0    0  0.31693748724E+02 -0.26312426729E+01 -0.23037129681E+01  0.59301886414E+02  0.49999894926E+02 0.  0.
        -12    1    1    2    0    0 -0.31693748724E+02  0.26312426729E+01  0.23037129681E+01  0.31886113586E+02  0.00000000000E+00 0.  1.
         11    1    3    3    0    0  0.11291110699E+02  0.16688036133E+02 -0.58106400515E+01  0.20970056482E+02  0.51100000000E-03 0. -1.
        -11    1    3    3    0    0  0.80902962135E+01 -0.13229274431E+02  0.14120696063E+02  0.20972855131E+02  0.51100000000E-03 0.  1.
         12    1    3    3    0    0  0.12312341812E+02 -0.60900043747E+01 -0.10613768980E+02  0.17358974801E+02  0.00000000000E+00 0. -1.
</event>
<event>
 7    1  0.5987893E-013  0.5930196E+02  0.7816164E-02  0.1266605E+00
        -11   -1    0    0    0    0  0.00000000000E+00  0.00000000000E+00  0.45593999997E+02  0.45594000000E+02  0.51100000000E-03 0. -1.
         11   -1    0    0    0    0 -0.00000000000E+00 -0.00000000000E+00 -0.45593999997E+02  0.45594000000E+02  0.51100000000E-03 0.  1.
    9900012    2    1    2    0    0  0.17593178510E+02 -0.14631597490E+02  0.22206212978E+02  0.59301961205E+02  0.50000031328E+02 0.  0.
        -12    1    1    2    0    0 -0.17593178510E+02  0.14631597490E+02 -0.22206212978E+02  0.31886038795E+02  0.00000000000E+00 0.  1.
         11    1    3    3    0    0 -0.12099696329E+00 -0.94926578888E+01 -0.33527766649E+01  0.10068083516E+02  0.51100000000E-03 0. -1.
        -11    1    3    3    0    0  0.21763046684E+02  0.11666038799E+02  0.13342707463E+02  0.28066964655E+02  0.51100000000E-03 0.  1.
        -12    1    3    3    0    0 -0.40488712107E+01 -0.16804978400E+02  0.12216282179E+02  0.21166913034E+02  0.00000000000E+00 0.  1.
</event>
<event>
 7    1  0.5987893E-013  0.5930194E+02  0.7816164E-02  0.1266605E+00
        -11   -1    0    0    0    0  0.00000000000E+00  0.00000000000E+00  0.45593999997E+02  0.45594000000E+02  0.51100000000E-03 0. -1.
         11   -1    0    0    0    0 -0.00000000000E+00 -0.00000000000E+00 -0.45593999997E+02  0.45594000000E+02  0.51100000000E-03 0.  1.
    9900012    2    1    2    0    0 -0.79319936750E+01  0.22194081046E+02  0.21476203199E+02  0.59301936258E+02  0.49999985830E+02 0.  0.
        -12    1    1    2    0    0  0.79319936750E+01 -0.22194081046E+02 -0.21476203199E+02  0.31886063742E+02  0.00000000000E+00 0.  1.
         11    1    3    3    0    0 -0.21030417835E+02  0.19945522943E+02  0.19128987429E+02  0.34727806152E+02  0.51100000000E-03 0. -1.
        -11    1    3    3    0    0  0.15900673082E+02  0.26869571257E+01  0.81845518435E+01  0.18084192883E+02  0.51100000000E-03 0.  1.
         12    1    3    3    0    0 -0.28022489220E+01 -0.43839902302E+00 -0.58373360738E+01  0.64899372234E+01  0.00000000000E+00 0. -1.
</event>
<event>
 7    1  0.5987893E-013  0.5930190E+02  0.7816164E-02  0.1266605E+00
        -11   -1    0    0    0    0  0.00000000000E+00  0.00000000000E+00  0.45593999997E+02  0.45594000000E+02  0.51100000000E-03 0.  1.
         11   -1    0    0    0    0 -0.00000000000E+00 -0.00000000000E+00 -0.45593999997E+02  0.45594000000E+02  0.51100000000E-03 0. -1.
    9900012    2    1    2    0    0 -0.61922007374E+01  0.38350619957E+01 -0.31043074858E+02  0.59301897273E+02  0.49999914730E+02 0.  0.
        -12    1    1    2    0    0  0.61922007374E+01 -0.38350619957E+01  0.31043074858E+02  0.31886102727E+02  0.00000000000E+00 0.  1.
         11    1    3    3    0    0 -0.43869491594E+01  0.21673130777E+02  0.84662000040E+00  0.22128865455E+02  0.51100000000E-03 0.  1.
        -11    1    3    3    0    0 -0.90321402627E+00 -0.10749156375E+02 -0.25082385519E+02  0.27303593572E+02  0.51100000000E-03 0. -1.
        -12    1    3    3    0    0 -0.90203755170E+00 -0.70889124063E+01 -0.68073093391E+01  0.98694382458E+01  0.00000000000E+00 0.  1.
</event>
<event>
 7    1  0.5987893E-013  0.5930195E+02  0.7816164E-02  0.1266605E+00
        -11   -1    0    0    0    0  0.00000000000E+00  0.00000000000E+00  0.45593999997E+02  0.45594000000E+02  0.51100000000E-03 0. -1.
         11   -1    0    0    0    0 -0.00000000000E+00 -0.00000000000E+00 -0.45593999997E+02  0.45594000000E+02  0.51100000000E-03 0.  1.
    9900012    2    1    2    0    0  0.27443657675E+02  0.91782004110E+01 -0.13391293124E+02  0.59301945981E+02  0.50000003562E+02 0.  0.
        -12    1    1    2    0    0 -0.27443657675E+02 -0.91782004110E+01  0.13391293124E+02  0.31886054019E+02  0.00000000000E+00 0.  1.
         11    1    3    3    0    0  0.16049831999E+02 -0.36827936292E+01  0.47400189971E+01  0.17135572838E+02  0.51100000000E-03 0. -1.
        -11    1    3    3    0    0 -0.81544406107E+01  0.13330626115E+02 -0.18899133169E+00  0.15628058493E+02  0.51100000000E-03 0.  1.
        -12    1    3    3    0    0  0.19548266287E+02 -0.46963207481E+00 -0.17942320790E+02  0.26538314649E+02  0.00000000000E+00 0.  1.
</event>
<event>
 7    1  0.5987893E-013  0.5930193E+02  0.7816164E-02  0.1266605E+00
        -11   -1    0    0    0    0  0.00000000000E+00  0.00000000000E+00  0.45593999997E+02  0.45594000000E+02  0.51100000000E-03 0.  1.
         11   -1    0    0    0    0 -0.00000000000E+00 -0.00000000000E+00 -0.45593999997E+02  0.45594000000E+02  0.51100000000E-03 0. -1.
    9900012    2    1    2    0    0 -0.88786856754E+01  0.18468766212E+02 -0.24429385389E+02  0.59301933212E+02  0.49999980275E+02 0.  0.
        -12    1    1    2    0    0  0.88786856754E+01 -0.18468766212E+02  0.24429385389E+02  0.31886066788E+02  0.00000000000E+00 0.  1.
         11    1    3    3    0    0  0.55014252814E+01  0.23140885290E+02 -0.29350169605E+02  0.37778283553E+02  0.51100000000E-03 0. -1.
        -11    1    3    3    0    0 -0.13940959094E+02  0.21478067572E+01  0.29432774836E+01  0.14409243455E+02  0.51100000000E-03 0.  1.
         12    1    3    3    0    0 -0.43915186232E+00 -0.68199258355E+01  0.19775067320E+01  0.71144062039E+01  0.00000000000E+00 0. -1.
</event>
<event>
 7    1  0.5987893E-013  0.5930195E+02  0.7816164E-02  0.1266605E+00
        -11   -1    0    0    0    0  0.00000000000E+00  0.00000000000E+00  0.45593999997E+02  0.45594000000E+02  0.51100000000E-03 0.  1.
         11   -1    0    0    0    0 -0.00000000000E+00 -0.00000000000E+00 -0.45593999997E+02  0.45594000000E+02  0.51100000000E-03 0. -1.
    9900012    2    1    2    0    0  0.57281630742E+01  0.31150401722E+02  0.36824581561E+01  0.59301954812E+02  0.50000019668E+02 0.  0.
        -12    1    1    2    0    0 -0.57281630742E+01 -0.31150401722E+02 -0.36824581561E+01  0.31886045188E+02  0.00000000000E+00 0.  1.
         11    1    3    3    0    0 -0.10116998597E+01  0.16424287544E+02 -0.82681282341E+01  0.18415827505E+02  0.51100000000E-03 0. -1.
        -11    1    3    3    0    0  0.42825078750E+01  0.52992710140E+01  0.24254029924E+02  0.25192858409E+02  0.51100000000E-03 0.  1.
        -12    1    3    3    0    0  0.24573550588E+01  0.94268431646E+01 -0.12303443534E+02  0.15693268899E+02  0.00000000000E+00 0.  1.
</event>
<event>
 7    1  0.5987893E-013  0.5930187E+02  0.7816164E-02  0.1266605E+00
        -11   -1    0    0    0    0  0.00000000000E+00  0.00000000000E+00  0.45593999997E+02  0.45594000000E+02  0.51100000000E-03 0.  1.
         11   -1    0    0    0    0 -0.00000000000E+00 -0.00000000000E+00 -0.45593999997E+02  0.45594000000E+02  0.51100000000E-03 0. -1.
    9900012    2    1    2    0    0  0.20029539180E+02  0.17614934964E+02 -0.17471602714E+02  0.59301870180E+02  0.49999865318E+02 0.  0.
        -12    1    1    2    0    0 -0.20029539180E+02 -0.17614934964E+02  0.17471602714E+02  0.31886129820E+02  0.00000000000E+00 0.  1.
         11    1    3    3    0    0 -0.67938172827E+01 -0.61938610602E+01 -0.12626954307E+02  0.15619213919E+02  0.51100000000E-03 0. -1.
        -11    1    3    3    0    0  0.11203097013E+02  0.12172086905E+02  0.98766890703E+01  0.19267020256E+02  0.51100000000E-03 0.  1.
        -12    1    3    3    0    0  0.15620259449E+02  0.11636709119E+02 -0.14721337477E+02  0.24415636005E+02  0.00000000000E+00 0.  1.
</event>
<event>
 7    1  0.5987893E-013  0.5930196E+02  0.7816164E-02  0.1266605E+00
        -11   -1    0    0    0    0  0.00000000000E+00  0.00000000000E+00  0.45593999997E+02  0.45594000000E+02  0.51100000000E-03 0. -1.
         11   -1    0    0    0    0 -0.00000000000E+00 -0.00000000000E+00 -0.45593999997E+02  0.45594000000E+02  0.51100000000E-03 0.  1.
    9900012    2    1    2    0    0  0.45817319397E+01 -0.17859380551E+02  0.26014794526E+02  0.59301964256E+02  0.50000036891E+02 0.  0.
        -12    1    1    2    0    0 -0.45817319397E+01  0.17859380551E+02 -0.26014794526E+02  0.31886035744E+02  0.00000000000E+00 0.  1.
         11    1    3    3    0    0  0.23073885696E+02 -0.17496463253E+02  0.28464085602E+02  0.40604613000E+02  0.51100000000E-03 0. -1.
        -11    1    3    3    0    0 -0.41425581088E+01  0.42670005863E+00 -0.49581972440E+00  0.41938881822E+01  0.51100000000E-03 0.  1.
         12    1    3    3    0    0 -0.14349595647E+02 -0.78961735714E+00 -0.19534713509E+01  0.14503463074E+02  0.00000000000E+00 0. -1.
</event>
<event>
 7    1  0.5987893E-013  0.5930194E+02  0.7816164E-02  0.1266605E+00
        -11   -1    0    0    0    0  0.00000000000E+00  0.00000000000E+00  0.45593999997E+02  0.45594000000E+02  0.51100000000E-03 0.  1.
         11   -1    0    0    0    0 -0.00000000000E+00 -0.00000000000E+00 -0.45593999997E+02  0.45594000000E+02  0.51100000000E-03 0. -1.
    9900012    2    1    2    0    0  0.17715733404E+02 -0.14805176902E+02 -0.21992733097E+02  0.59301940629E+02  0.49999993802E+02 0.  0.
        -12    1    1    2    0    0 -0.17715733404E+02  0.14805176902E+02  0.21992733097E+02  0.31886059371E+02  0.00000000000E+00 0.  1.
         11    1    3    3    0    0  0.94532016292E+01  0.49792269112E+01 -0.24078049505E+01  0.10952316952E+02  0.51100000000E-03 0. -1.
        -11    1    3    3    0    0  0.13950010209E+02 -0.22611298570E+02 -0.27475737428E+02  0.38220279373E+02  0.51100000000E-03 0.  1.
        -12    1    3    3    0    0 -0.56874784343E+01  0.28268947573E+01  0.78908092820E+01  0.10129344304E+02  0.00000000000E+00 0.  1.
</event>
<event>
 7    1  0.5987893E-013  0.5930192E+02  0.7816164E-02  0.1266605E+00
        -11   -1    0    0    0    0  0.00000000000E+00  0.00000000000E+00  0.45593999997E+02  0.45594000000E+02  0.51100000000E-03 0. -1.
         11   -1    0    0    0    0 -0.00000000000E+00 -0.00000000000E+00 -0.45593999997E+02  0.45594000000E+02  0.51100000000E-03 0.  1.
    9900012    2    1    2    0    0  0.15993500127E+02  0.23118895438E+02 -0.15048137123E+02  0.59301924615E+02  0.49999964596E+02 0.  0.
        -12    1    1    2    0    0 -0.15993500127E+02 -0.23118895438E+02  0.15048137123E+02  0.31886075385E+02  0.00000000000E+00 0.  1.
         11    1    3    3    0    0  0.39863104175E+01  0.26330243505E+02 -0.16320166955E+01  0.26680252482E+02  0.51100000000E-03 0. -1.
        -11    1    3    3    0    0  0.15403456228E+02  0.31972040990E+01 -0.18105114678E+02  0.23985073600E+02  0.51100000000E-03 0.  1.
         12    1    3    3    0    0 -0.33962665192E+01 -0.64085521654E+01  0.46889942509E+01  0.86365985325E+01  0.00000000000E+00 0. -1.
</event>
<event>
 7    1  0.5987893E-013  0.5930195E+02  0.7816164E-02  0.1266605E+00
        -11   -1    0    0    0    0  0.00000000000E+00  0.00000000000E+00  0.45593999997E+02  0.45594000000E+02  0.51100000000E-03 0. -1.
         11   -1    0    0    0    0 -0.00000000000E+00 -0.00000000000E+00 -0.45593999997E+02  0.45594000000E+02  0.51100000000E-03 0.  1.
    9900012    2    1    2    0    0 -0.85011212914E+01 -0.30598926712E+02 -0.28559928612E+01  0.59301951729E+02  0.50000014044E+02 0.  0.
        -12    1    1    2    0    0  0.85011212914E+01  0.30598926712E+02  0.28559928612E+01  0.31886048271E+02  0.00000000000E+00 0.  1.
         11    1    3    3    0    0 -0.90044998284E+01 -0.75443481642E+01 -0.24310960344E+02  0.27000388877E+02  0.51100000000E-03 0.  1.
        -11    1    3    3    0    0  0.78909812100E-01 -0.19325092958E+02  0.13708608674E+02  0.23693699514E+02  0.51100000000E-03 0. -1.
        -12    1    3    3    0    0  0.42446872495E+00 -0.37294855898E+01  0.77463588085E+01  0.86078633384E+01  0.00000000000E+00 0.  1.
</event>
<event>
 7    1  0.5987893E-013  0.5930202E+02  0.7816164E-02  0.1266604E+00
        -11   -1    0    0    0    0  0.00000000000E+00  0.00000000000E+00  0.45593999997E+02  0.45594000000E+02  0.51100000000E-03 0.  1.
         11   -1    0    0    0    0 -0.00000000000E+00 -0.00000000000E+00 -0.45593999997E+02  0.45594000000E+02  0.51100000000E-03 0. -1.
    9900012    2    1    2    0    0 -0.13423820335E+02  0.28920351662E+02  0.36020376829E+00  0.59302024409E+02  0.50000146597E+02 0.  0.
        -12    1    1    2    0    0  0.13423820335E+02 -0.28920351662E+02 -0.36020376829E+00  0.31885975591E+02  0.00000000000E+00 0.  1.
         11    1    3    3    0    0 -0.18647938300E+01  0.19365231600E+02 -0.99278336574E+01  0.21841509388E+02  0.51100000000E-03 0. -1.
        -11    1    3    3    0    0 -0.12024363446E+02 -0.10142787481E+02  0.79295848615E+01  0.17616463053E+02  0.51100000000E-03 0.  1.
        -12    1    3    3    0    0  0.46533694067E+00  0.19697907542E+02  0.23584525642E+01  0.19844051968E+02  0.00000000000E+00 0.  1.
</event>
<event>
 7    1  0.5987893E-013  0.5930195E+02  0.7816164E-02  0.1266605E+00
        -11   -1    0    0    0    0  0.00000000000E+00  0.00000000000E+00  0.45593999997E+02  0.45594000000E+02  0.51100000000E-03 0.  1.
         11   -1    0    0    0    0 -0.00000000000E+00 -0.00000000000E+00 -0.45593999997E+02  0.45594000000E+02  0.51100000000E-03 0. -1.
    9900012    2    1    2    0    0  0.12174453540E+02 -0.39205095438E+01 -0.29208434856E+02  0.59301946923E+02  0.50000005280E+02 0.  0.
        -12    1    1    2    0    0 -0.12174453540E+02  0.39205095438E+01  0.29208434856E+02  0.31886053077E+02  0.00000000000E+00 0.  1.
         11    1    3    3    0    0  0.14477588947E+02  0.92680985741E+01 -0.34662372786E+02  0.38690804080E+02  0.51100000000E-03 0. -1.
        -11    1    3    3    0    0  0.47801608191E+01 -0.98063340574E+01 -0.24334967901E+00  0.10912073333E+02  0.51100000000E-03 0.  1.
         12    1    3    3    0    0 -0.70832962265E+01 -0.33822740604E+01  0.56972876091E+01  0.96990695096E+01  0.00000000000E+00 0. -1.
</event>
<event>
 7    1  0.5987893E-013  0.5930193E+02  0.7816164E-02  0.1266605E+00
        -11   -1    0    0    0    0  0.00000000000E+00  0.00000000000E+00  0.45593999997E+02  0.45594000000E+02  0.51100000000E-03 0.  1.
         11   -1    0    0    0    0 -0.00000000000E+00 -0.00000000000E+00 -0.45593999997E+02  0.45594000000E+02  0.51100000000E-03 0. -1.
    9900012    2    1    2    0    0 -0.10630680941E+02  0.69864083865E+01 -0.29238680573E+02  0.59301925907E+02  0.49999966953E+02 0.  0.
        -12    1    1    2    0    0  0.10630680941E+02 -0.69864083865E+01  0.29238680573E+02  0.31886074093E+02  0.00000000000E+00 0.  1.
         11    1    3    3    0    0 -0.19488869368E+02 -0.30541774115E+01 -0.36613887857E+02  0.41589912397E+02  0.51100000000E-03 0. -1.
        -11    1    3    3    0    0  0.84560348248E+01  0.80134756937E+01  0.18281287283E+01  0.11792471012E+02  0.51100000000E-03 0.  1.
         12    1    3    3    0    0  0.40215360243E+00  0.20271101043E+01  0.55470785559E+01  0.59195424992E+01  0.00000000000E+00 0. -1.
</event>
<event>
 7    1  0.5987893E-013  0.5930195E+02  0.7816164E-02  0.1266605E+00
        -11   -1    0    0    0    0  0.00000000000E+00  0.00000000000E+00  0.45593999997E+02  0.45594000000E+02  0.51100000000E-03 0. -1.
         11   -1    0    0    0    0 -0.00000000000E+00 -0.00000000000E+00 -0.45593999997E+02  0.45594000000E+02  0.51100000000E-03 0.  1.
    9900012    2    1    2    0    0 -0.28575514700E+02 -0.12430615859E+02 -0.67557558068E+01  0.59301945250E+02  0.50000002229E+02 0.  0.
        -12    1    1    2    0    0  0.28575514700E+02  0.12430615859E+02  0.67557558068E+01  0.31886054750E+02  0.00000000000E+00 0.  1.
         11    1    3    3    0    0  0.69544743473E+01  0.31315183121E+01 -0.16556784797E+02  0.18229049439E+02  0.51100000000E-03 0.  1.
        -11    1    3    3    0    0 -0.21248177385E+01 -0.29825480253E+01 -0.96934323408E+00  0.37881485863E+01  0.51100000000E-03 0. -1.
         12    1    3    3    0    0 -0.33405171309E+02 -0.12579586146E+02  0.10770372224E+02  0.37284747225E+02  0.00000000000E+00 0. -1.
</event>
<event>
 7    1  0.5987893E-013  0.5930195E+02  0.7816164E-02  0.1266605E+00
        -11   -1    0    0    0    0  0.00000000000E+00  0.00000000000E+00  0.45593999997E+02  0.45594000000E+02  0.51100000000E-03 0.  1.
         11   -1    0    0    0    0 -0.00000000000E+00 -0.00000000000E+00 -0.45593999997E+02  0.45594000000E+02  0.51100000000E-03 0. -1.
    9900012    2    1    2    0    0 -0.11020744719E+02  0.28306798565E+02 -0.96947796919E+01  0.59301946427E+02  0.50000004376E+02 0.  0.
        -12    1    1    2    0    0  0.11020744719E+02 -0.28306798565E+02  0.96947796919E+01  0.31886053573E+02  0.00000000000E+00 0.  1.
         11    1    3    3    0    0 -0.16126641476E+02  0.10274315915E+02 -0.16294762079E+02  0.25122687044E+02  0.51100000000E-03 0. -1.
        -11    1    3    3    0    0  0.12093469224E+02  0.21071673586E+02  0.30801590223E+00  0.24297372278E+02  0.51100000000E-03 0.  1.
         12    1    3    3    0    0 -0.69875724667E+01 -0.30391909353E+01  0.62919664848E+01  0.98818871054E+01  0.00000000000E+00 0. -1.
</event>
<event>
 7    1  0.5987893E-013  0.5930196E+02  0.7816164E-02  0.1266605E+00
        -11   -1    0    0    0    0  0.00000000000E+00  0.00000000000E+00  0.45593999997E+02  0.45594000000E+02  0.51100000000E-03 0.  1.
         11   -1    0    0    0    0 -0.00000000000E+00 -0.00000000000E+00 -0.45593999997E+02  0.45594000000E+02  0.51100000000E-03 0. -1.
    9900012    2    1    2    0    0  0.29501975032E+02 -0.74405608579E+01  0.95389304188E+01  0.59301958067E+02  0.50000025604E+02 0.  0.
        -12    1    1    2    0    0 -0.29501975032E+02  0.74405608579E+01 -0.95389304188E+01  0.31886041933E+02  0.00000000000E+00 0.  1.
         11    1    3    3    0    0  0.38477295449E+02 -0.13178407789E+01  0.52978421814E+01  0.38862656901E+02  0.51100000000E-03 0. -1.
        -11    1    3    3    0    0 -0.35316175315E+01  0.46499698294E+01  0.58465872276E+01  0.82629972936E+01  0.51100000000E-03 0.  1.
         12    1    3    3    0    0 -0.54437028858E+01 -0.10772689908E+02 -0.16054989903E+01  0.12176303872E+02  0.00000000000E+00 0. -1.
</event>
<event>
 7    1  0.5987893E-013  0.5930194E+02  0.7816164E-02  0.1266605E+00
        -11   -1    0    0    0    0  0.00000000000E+00  0.00000000000E+00  0.45593999997E+02  0.45594000000E+02  0.51100000000E-03 0. -1.
         11   -1    0    0    0    0 -0.00000000000E+00 -0.00000000000E+00 -0.45593999997E+02  0.45594000000E+02  0.51100000000E-03 0.  1.
    9900012    2    1    2    0    0 -0.14623497338E+02 -0.22910095754E+02  0.16673376537E+02  0.59301942749E+02  0.49999997668E+02 0.  0.
        -12    1    1    2    0    0  0.14623497338E+02  0.22910095754E+02 -0.16673376537E+02  0.31886057251E+02  0.00000000000E+00 0.  1.
         11    1    3    3    0    0 -0.11275074797E+01 -0.29322674148E+02  0.24932958544E+02  0.38506400952E+02  0.51100000000E-03 0. -1.
        -11    1    3    3    0    0  0.19821314666E+01 -0.54166222924E+00 -0.39258449744E+00  0.20919765702E+01  0.51100000000E-03 0.  1.
         12    1    3    3    0    0 -0.15478121325E+02  0.69542406224E+01 -0.78669975096E+01  0.18703565227E+02  0.00000000000E+00 0. -1.
</event>
<event>
 7    1  0.5987893E-013  0.5930197E+02  0.7816164E-02  0.1266605E+00
        -11   -1    0    0    0    0  0.00000000000E+00  0.00000000000E+00  0.45593999997E+02  0.45594000000E+02  0.51100000000E-03 0. -1.
         11   -1    0    0    0    0 -0.00000000000E+00 -0.00000000000E+00 -0.45593999997E+02  0.45594000000E+02  0.51100000000E-03 0.  1.
    9900012    2    1    2    0    0  0.51500365305E+01 -0.15532819828E+02  0.27366544714E+02  0.59301966417E+02  0.50000040833E+02 0.  0.
        -12    1    1    2    0    0 -0.51500365305E+01  0.15532819828E+02 -0.27366544714E+02  0.31886033583E+02  0.00000000000E+00 0.  1.
         11    1    3    3    0    0 -0.98134280016E-01 -0.91961693253E+01  0.61996223259E+01  0.11091189199E+02  0.51100000000E-03 0. -1.
        -11    1    3    3    0    0  0.47207409834E+01  0.12969177074E+02 -0.58587076607E+01  0.14993645492E+02  0.51100000000E-03 0.  1.
        -12    1    3    3    0    0  0.52742982713E+00 -0.19305827577E+02  0.27025630049E+02  0.33217131727E+02  0.00000000000E+00 0.  1.
</event>
<event>
 7    1  0.5987893E-013  0.5930194E+02  0.7816164E-02  0.1266605E+00
        -11   -1    0    0    0    0  0.00000000000E+00  0.00000000000E+00  0.45593999997E+02  0.45594000000E+02  0.51100000000E-03 0.  1.
         11   -1    0    0    0    0 -0.00000000000E+00 -0.00000000000E+00 -0.45593999997E+02  0.45594000000E+02  0.51100000000E-03 0. -1.
    9900012    2    1    2    0    0 -0.50945888427E+01  0.65643944456E+01 -0.30784322056E+02  0.59301943575E+02  0.49999999174E+02 0.  0.
        -12    1    1    2    0    0  0.50945888427E+01 -0.65643944456E+01  0.30784322056E+02  0.31886056425E+02  0.00000000000E+00 0.  1.
         11    1    3    3    0    0 -0.10380907419E+02  0.73515459546E+01 -0.10589282302E+02  0.16551174178E+02  0.51100000000E-03 0. -1.
        -11    1    3    3    0    0 -0.21127058850E+01 -0.16172774867E+02 -0.49076956615E-02  0.16310186921E+02  0.51100000000E-03 0.  1.
        -12    1    3    3    0    0  0.73990244609E+01  0.15385623358E+02 -0.20190132059E+02  0.26440582475E+02  0.00000000000E+00 0.  1.
</event>
<event>
 7    1  0.5987893E-013  0.5930193E+02  0.7816164E-02  0.1266605E+00
        -11   -1    0    0    0    0  0.00000000000E+00  0.00000000000E+00  0.45593999997E+02  0.45594000000E+02  0.51100000000E-03 0. -1.
         11   -1    0    0    0    0 -0.00000000000E+00 -0.00000000000E+00 -0.45593999997E+02  0.45594000000E+02  0.51100000000E-03 0.  1.
    9900012    2    1    2    0    0  0.79584257637E+00 -0.25121485752E+02  0.19621394682E+02  0.59301928729E+02  0.49999972099E+02 0.  0.
        -12    1    1    2    0    0 -0.79584257637E+00  0.25121485752E+02 -0.19621394682E+02  0.31886071271E+02  0.00000000000E+00 0.  1.
         11    1    3    3    0    0  0.32039858530E+01  0.50423272962E+01  0.35911809756E+01  0.69704498398E+01  0.51100000000E-03 0. -1.
        -11    1    3    3    0    0 -0.12956905949E+02 -0.78207769462E+01 -0.86307671805E+01  0.17422287628E+02  0.51100000000E-03 0.  1.
        -12    1    3    3    0    0  0.10548762673E+02 -0.22343036103E+02  0.24660980887E+02  0.34909191261E+02  0.00000000000E+00 0.  1.
</event>
<event>
 7    1  0.5987893E-013  0.5930194E+02  0.7816164E-02  0.1266605E+00
        -11   -1    0    0    0    0  0.00000000000E+00  0.00000000000E+00  0.45593999997E+02  0.45594000000E+02  0.51100000000E-03 0.  1.
         11   -1    0    0    0    0 -0.00000000000E+00 -0.00000000000E+00 -0.45593999997E+02  0.45594000000E+02  0.51100000000E-03 0. -1.
    9900012    2    1    2    0    0 -0.17925442167E+02  0.11875963729E+02 -0.23544862226E+02  0.59301944605E+02  0.50000001053E+02 0.  0.
        -12    1    1    2    0    0  0.17925442167E+02 -0.11875963729E+02  0.23544862226E+02  0.31886055395E+02  0.00000000000E+00 0.  1.
         11    1    3    3    0    0 -0.57477548316E-01  0.15964083847E+02 -0.26063841307E+02  0.30564343616E+02  0.51100000000E-03 0. -1.
        -11    1    3    3    0    0 -0.19236004476E+02 -0.87352716270E+01 -0.30621918653E+01  0.21347268160E+02  0.51100000000E-03 0.  1.
        -12    1    3    3    0    0  0.13680398573E+01  0.46471515098E+01  0.55811709457E+01  0.73903328296E+01  0.00000000000E+00 0.  1.
</event>
<event>
 7    1  0.5987893E-013  0.5930194E+02  0.7816164E-02  0.1266605E+00
        -11   -1    0    0    0    0  0.00000000000E+00  0.00000000000E+00  0.45593999997E+02  0.45594000000E+02  0.51100000000E-03 0. -1.
         11   -1    0    0    0    0 -0.00000000000E+00 -0.00000000000E+00 -0.45593999997E+02  0.45594000000E+02  0.51100000000E-03 0.  1.
    9900012    2    1    2    0    0  0.31474133850E+02  0.50349176460E+01  0.86565791121E+00  0.59301939395E+02  0.49999991551E+02 0.  0.
        -12    1    1    2    0    0 -0.31474133850E+02 -0.50349176460E+01 -0.86565791121E+00  0.31886060605E+02  0.00000000000E+00 0.  1.
         11    1    3    3    0    0 -0.78478222062E+01 -0.57891035905E+00 -0.10653979437E+02  0.13245026565E+02  0.51100000000E-03 0. -1.
        -11    1    3    3    0    0  0.18994329401E+02 -0.21731395235E+01  0.14622018002E+02  0.24068869842E+02  0.51100000000E-03 0.  1.
        -12    1    3    3    0    0  0.20327626655E+02  0.77869675285E+01 -0.31023806530E+01  0.21988042988E+02  0.00000000000E+00 0.  1.
</event>
<event>
 7    1  0.5987893E-013  0.5930195E+02  0.7816164E-02  0.1266605E+00
        -11   -1    0    0    0    0  0.00000000000E+00  0.00000000000E+00  0.45593999997E+02  0.45594000000E+02  0.51100000000E-03 0.  1.
         11   -1    0    0    0    0 -0.00000000000E+00 -0.00000000000E+00 -0.45593999997E+02  0.45594000000E+02  0.51100000000E-03 0. -1.
    9900012    2    1    2    0    0 -0.17929988184E+02  0.21942768481E+02 -0.14620212900E+02  0.59301949913E+02  0.50000010734E+02 0.  0.
        -12    1    1    2    0    0  0.17929988184E+02 -0.21942768481E+02  0.14620212900E+02  0.31886050087E+02  0.00000000000E+00 0.  1.
         11    1    3    3    0    0 -0.30103607388E+02  0.30046891812E+02 -0.11183747391E+02  0.43978620844E+02  0.51100000000E-03 0. -1.
        -11    1    3    3    0    0  0.62051279097E+01 -0.56349745914E+01 -0.27803565001E+01  0.88310210933E+01  0.51100000000E-03 0.  1.
         12    1    3    3    0    0  0.59684912941E+01 -0.24691487399E+01 -0.65610900867E+00  0.64923079763E+01  0.00000000000E+00 0. -1.
</event>
<event>
 7    1  0.5987893E-013  0.5930196E+02  0.7816164E-02  0.1266605E+00
        -11   -1    0    0    0    0  0.00000000000E+00  0.00000000000E+00  0.45593999997E+02  0.45594000000E+02  0.51100000000E-03 0. -1.
         11   -1    0    0    0    0 -0.00000000000E+00 -0.00000000000E+00 -0.45593999997E+02  0.45594000000E+02  0.51100000000E-03 0.  1.
    9900012    2    1    2    0    0  0.13968837637E+02  0.28096821068E+02 -0.56709328413E+01  0.59301964524E+02  0.50000037380E+02 0.  0.
        -12    1    1    2    0    0 -0.13968837637E+02 -0.28096821068E+02  0.56709328413E+01  0.31886035476E+02  0.00000000000E+00 0.  1.
         11    1    3    3    0    0  0.57711266379E+01  0.20275166879E+02  0.11819277659E+02  0.24167821981E+02  0.51100000000E-03 0. -1.
        -11    1    3    3    0    0  0.14398370832E+01 -0.10249435585E+02 -0.23601920201E+01  0.10615769744E+02  0.51100000000E-03 0.  1.
        -12    1    3    3    0    0  0.67578739160E+01  0.18071089774E+02 -0.15130018480E+02  0.24518372799E+02  0.00000000000E+00 0.  1.
</event>
<event>
 7    1  0.5987893E-013  0.5930193E+02  0.7816164E-02  0.1266605E+00
        -11   -1    0    0    0    0  0.00000000000E+00  0.00000000000E+00  0.45593999997E+02  0.45594000000E+02  0.51100000000E-03 0. -1.
         11   -1    0    0    0    0 -0.00000000000E+00 -0.00000000000E+00 -0.45593999997E+02  0.45594000000E+02  0.51100000000E-03 0.  1.
    9900012    2    1    2    0    0  0.97782213704E+00 -0.31051446010E+02  0.71814258267E+01  0.59301932316E+02  0.49999978641E+02 0.  0.
        -12    1    1    2    0    0 -0.97782213704E+00  0.31051446010E+02 -0.71814258267E+01  0.31886067684E+02  0.00000000000E+00 0.  1.
         11    1    3    3    0    0  0.18810725279E+02  0.22934447852E+00  0.36956546944E+01  0.19171693933E+02  0.51100000000E-03 0. -1.
        -11    1    3    3    0    0 -0.77509640073E+01 -0.28064682046E+02  0.44193098083E+00  0.29118707468E+02  0.51100000000E-03 0.  1.
        -12    1    3    3    0    0 -0.10081939134E+02 -0.32161084427E+01  0.30438401515E+01  0.11011530915E+02  0.00000000000E+00 0.  1.
</event>
<event>
 7    1  0.5987893E-013  0.5930194E+02  0.7816164E-02  0.1266605E+00
        -11   -1    0    0    0    0  0.00000000000E+00  0.00000000000E+00  0.45593999997E+02  0.45594000000E+02  0.51100000000E-03 0.  1.
         11   -1    0    0    0    0 -0.00000000000E+00 -0.00000000000E+00 -0.45593999997E+02  0.45594000000E+02  0.51100000000E-03 0. -1.
    9900012    2    1    2    0    0 -0.14848318447E+02 -0.11189099197E+02 -0.25904674909E+02  0.59301942174E+02  0.49999996619E+02 0.  0.
        -12    1    1    2    0    0  0.14848318447E+02  0.11189099197E+02  0.25904674909E+02  0.31886057826E+02  0.00000000000E+00 0.  1.
         11    1    3    3    0    0 -0.22262598281E+01 -0.22230326446E+02 -0.22540110401E+02  0.31736417943E+02  0.51100000000E-03 0. -1.
        -11    1    3    3    0    0 -0.10335339555E+02  0.16521476893E+02  0.19645767692E+01  0.19586679264E+02  0.51100000000E-03 0.  1.
        -12    1    3    3    0    0 -0.22867190641E+01 -0.54802496449E+01 -0.53291412765E+01  0.79788449661E+01  0.00000000000E+00 0.  1.
</event>
<event>
 7    1  0.5987893E-013  0.5930195E+02  0.7816164E-02  0.1266605E+00
        -11   -1    0    0    0    0  0.00000000000E+00  0.00000000000E+00  0.45593999997E+02  0.45594000000E+02  0.51100000000E-03 0.  1.
         11   -1    0    0    0    0 -0.00000000000E+00 -0.00000000000E+00 -0.45593999997E+02  0.45594000000E+02  0.51100000000E-03 0. -1.
    9900012    2    1    2    0    0  0.31223860954E+02  0.55742612039E+01 -0.32739150559E+01  0.59301946612E+02  0.50000004713E+02 0.  0.
        -12    1    1    2    0    0 -0.31223860954E+02 -0.55742612039E+01  0.32739150559E+01  0.31886053388E+02  0.00000000000E+00 0.  1.
         11    1    3    3    0    0  0.28619074124E+01  0.45608899001E+01 -0.58928560021E+01  0.79823544673E+01  0.51100000000E-03 0. -1.
        -11    1    3    3    0    0  0.39658206624E+02 -0.42106300139E+00  0.39427343130E+01  0.39855938087E+02  0.51100000000E-03 0.  1.
        -12    1    3    3    0    0 -0.11296253082E+02  0.14344343052E+01 -0.13237933668E+01  0.11463654058E+02  0.00000000000E+00 0.  1.
</event>
<event>
 7    1  0.5987893E-013  0.5930193E+02  0.7816164E-02  0.1266605E+00
        -11   -1    0    0    0    0  0.00000000000E+00  0.00000000000E+00  0.45593999997E+02  0.45594000000E+02  0.51100000000E-03 0.  1.
         11   -1    0    0    0    0 -0.00000000000E+00 -0.00000000000E+00 -0.45593999997E+02  0.45594000000E+02  0.51100000000E-03 0. -1.
    9900012    2    1    2    0    0 -0.27737692759E+02 -0.12918321501E+02  0.89698755829E+01  0.59301932541E+02  0.49999979051E+02 0.  0.
        -12    1    1    2    0    0  0.27737692759E+02  0.12918321501E+02 -0.89698755829E+01  0.31886067459E+02  0.00000000000E+00 0.  1.
         11    1    3    3    0    0 -0.25830467561E+02  0.11698801704E+02  0.13675088501E+00  0.28356546278E+02  0.51100000000E-03 0. -1.
        -11    1    3    3    0    0 -0.41538768660E+01 -0.26292065419E+02  0.67702436543E+01  0.27465680337E+02  0.51100000000E-03 0.  1.
        -12    1    3    3    0    0  0.22466516675E+01  0.16749422132E+01  0.20628810436E+01  0.34797059262E+01  0.00000000000E+00 0.  1.
</event>
<event>
 7    1  0.5987893E-013  0.5930189E+02  0.7816164E-02  0.1266605E+00
        -11   -1    0    0    0    0  0.00000000000E+00  0.00000000000E+00  0.45593999997E+02  0.45594000000E+02  0.51100000000E-03 0. -1.
         11   -1    0    0    0    0 -0.00000000000E+00 -0.00000000000E+00 -0.45593999997E+02  0.45594000000E+02  0.51100000000E-03 0.  1.
    9900012    2    1    2    0    0 -0.27243153936E+02  0.72936648636E+01  0.14877398410E+02  0.59301890689E+02  0.49999902724E+02 0.  0.
        -12    1    1    2    0    0  0.27243153936E+02 -0.72936648636E+01 -0.14877398410E+02  0.31886109311E+02  0.00000000000E+00 0.  1.
         11    1    3    3    0    0 -0.14898426321E+02  0.24256385322E+02  0.11187129118E+01  0.28488363494E+02  0.51100000000E-03 0. -1.
        -11    1    3    3    0    0 -0.15854251480E+02 -0.10232299506E+02  0.56290687697E+01  0.19691207648E+02  0.51100000000E-03 0.  1.
         12    1    3    3    0    0  0.35095238654E+01 -0.67304209521E+01  0.81296167288E+01  0.11122319547E+02  0.00000000000E+00 0. -1.
</event>
<event>
 7    1  0.5987893E-013  0.5930195E+02  0.7816164E-02  0.1266605E+00
        -11   -1    0    0    0    0  0.00000000000E+00  0.00000000000E+00  0.45593999997E+02  0.45594000000E+02  0.51100000000E-03 0. -1.
         11   -1    0    0    0    0 -0.00000000000E+00 -0.00000000000E+00 -0.45593999997E+02  0.45594000000E+02  0.51100000000E-03 0.  1.
    9900012    2    1    2    0    0 -0.10875612252E+02  0.17397212159E+02  0.24408567492E+02  0.59301951330E+02  0.50000013318E+02 0.  0.
        -12    1    1    2    0    0  0.10875612252E+02 -0.17397212159E+02 -0.24408567492E+02  0.31886048670E+02  0.00000000000E+00 0.  1.
         11    1    3    3    0    0 -0.24574868981E+02  0.47594780911E+01  0.11586710097E+02  0.27583122888E+02  0.51100000000E-03 0. -1.
        -11    1    3    3    0    0  0.13867031523E+02  0.94352261505E+01 -0.16894340018E+01  0.16857409151E+02  0.51100000000E-03 0.  1.
        -12    1    3    3    0    0 -0.16777479478E+00  0.32025079175E+01  0.14511291397E+02  0.14861419291E+02  0.00000000000E+00 0.  1.
</event>
<event>
 7    1  0.5987893E-013  0.5930191E+02  0.7816164E-02  0.1266605E+00
        -11   -1    0    0    0    0  0.00000000000E+00  0.00000000000E+00  0.45593999997E+02  0.45594000000E+02  0.51100000000E-03 0. -1.
         11   -1    0    0    0    0 -0.00000000000E+00 -0.00000000000E+00 -0.45593999997E+02  0.45594000000E+02  0.51100000000E-03 0.  1.
    9900012    2    1    2    0    0 -0.26889930170E+01  0.14170575618E+02  0.28437416997E+02  0.59301912403E+02  0.49999942325E+02 0.  0.
        -12    1    1    2    0    0  0.26889930170E+01 -0.14170575618E+02 -0.28437416997E+02  0.31886087597E+02  0.00000000000E+00 0.  1.
         11    1    3    3    0    0  0.28430146712E+01  0.82662685215E+01  0.22478052841E+02  0.24117976438E+02  0.51100000000E-03 0. -1.
        -11    1    3    3    0    0  0.74530719006E+01  0.16345571006E+02  0.40227607473E+01  0.18409469752E+02  0.51100000000E-03 0.  1.
        -12    1    3    3    0    0 -0.12985079589E+02 -0.10441263910E+02  0.19366034085E+01  0.16774466213E+02  0.00000000000E+00 0.  1.
</event>
<event>
 7    1  0.5987893E-013  0.5930189E+02  0.7816164E-02  0.1266605E+00
        -11   -1    0    0    0    0  0.00000000000E+00  0.00000000000E+00  0.45593999997E+02  0.45594000000E+02  0.51100000000E-03 0.  1.
         11   -1    0    0    0    0 -0.00000000000E+00 -0.00000000000E+00 -0.45593999997E+02  0.45594000000E+02  0.51100000000E-03 0. -1.
    9900012    2    1    2    0    0 -0.22736063207E+02 -0.20960300820E+02 -0.77756997740E+01  0.59301885662E+02  0.49999893554E+02 0.  0.
        -12    1    1    2    0    0  0.22736063207E+02  0.20960300820E+02  0.77756997740E+01  0.31886114338E+02  0.00000000000E+00 0.  1.
         11    1    3    3    0    0 -0.17410038863E+01 -0.29734128836E+02 -0.91112732326E+01  0.31147468795E+02  0.51100000000E-03 0. -1.
        -11    1    3    3    0    0 -0.90318931634E+01 -0.12817091052E+00  0.77687577968E+01  0.11914072346E+02  0.51100000000E-03 0.  1.
         12    1    3    3    0    0 -0.11963166157E+02  0.89019989267E+01 -0.64331843382E+01  0.16240344520E+02  0.00000000000E+00 0. -1.
</event>
<event>
 7    1  0.5987893E-013  0.5930195E+02  0.7816164E-02  0.1266605E+00
        -11   -1    0    0    0    0  0.00000000000E+00  0.00000000000E+00  0.45593999997E+02  0.45594000000E+02  0.51100000000E-03 0. -1.
         11   -1    0    0    0    0 -0.00000000000E+00 -0.00000000000E+00 -0.45593999997E+02  0.45594000000E+02  0.51100000000E-03 0.  1.
    9900012    2    1    2    0    0 -0.20709416681E+02 -0.13526405338E+02  0.20121544725E+02  0.59301950657E+02  0.50000012090E+02 0.  0.
        -12    1    1    2    0    0  0.20709416681E+02  0.13526405338E+02 -0.20121544725E+02  0.31886049343E+02  0.00000000000E+00 0.  1.
         11    1    3    3    0    0 -0.80480640664E+01 -0.77888523166E+01 -0.21840848187E+01  0.11410862473E+02  0.51100000000E-03 0. -1.
        -11    1    3    3    0    0  0.92204632976E+01  0.66152800760E+01  0.19560242990E+02  0.22613756433E+02  0.51100000000E-03 0.  1.
        -12    1    3    3    0    0 -0.21881815912E+02 -0.12352833097E+02  0.27453865533E+01  0.25277331751E+02  0.00000000000E+00 0.  1.
</event>
<event>
 7    1  0.5987893E-013  0.5930184E+02  0.7816164E-02  0.1266605E+00
        -11   -1    0    0    0    0  0.00000000000E+00  0.00000000000E+00  0.45593999997E+02  0.45594000000E+02  0.51100000000E-03 0.  1.
         11   -1    0    0    0    0 -0.00000000000E+00 -0.00000000000E+00 -0.45593999997E+02  0.45594000000E+02  0.51100000000E-03 0. -1.
    9900012    2    1    2    0    0  0.42636042892E+01  0.25683142343E+02 -0.18409925129E+02  0.59301835831E+02  0.49999802674E+02 0.  0.
        -12    1    1    2    0    0 -0.42636042892E+01 -0.25683142343E+02  0.18409925129E+02  0.31886164169E+02  0.00000000000E+00 0.  1.
         11    1    3    3    0    0 -0.19026599983E+02  0.10551290275E+02 -0.20283858566E+02  0.29745187039E+02  0.51100000000E-03 0. -1.
        -11    1    3    3    0    0  0.15413884092E+02  0.12002884013E+02  0.55642311695E+01  0.20312993777E+02  0.51100000000E-03 0.  1.
         12    1    3    3    0    0  0.78763201802E+01  0.31289680551E+01 -0.36902977331E+01  0.92436550146E+01  0.00000000000E+00 0. -1.
</event>
<event>
 7    1  0.5987893E-013  0.5930195E+02  0.7816164E-02  0.1266605E+00
        -11   -1    0    0    0    0  0.00000000000E+00  0.00000000000E+00  0.45593999997E+02  0.45594000000E+02  0.51100000000E-03 0. -1.
         11   -1    0    0    0    0 -0.00000000000E+00 -0.00000000000E+00 -0.45593999997E+02  0.45594000000E+02  0.51100000000E-03 0.  1.
    9900012    2    1    2    0    0  0.16407687207E+02  0.25801415249E+02 -0.90440624679E+01  0.59301948281E+02  0.50000007756E+02 0.  0.
        -12    1    1    2    0    0 -0.16407687207E+02 -0.25801415249E+02  0.90440624679E+01  0.31886051719E+02  0.00000000000E+00 0.  1.
         11    1    3    3    0    0  0.17201802710E+02 -0.54010426602E+01 -0.10463976476E+02  0.20846296608E+02  0.51100000000E-03 0. -1.
        -11    1    3    3    0    0  0.31602312096E+01  0.18648160136E+02 -0.96714334254E+01  0.21243294531E+02  0.51100000000E-03 0.  1.
         12    1    3    3    0    0 -0.39543467129E+01  0.12554297773E+02  0.11091347434E+02  0.17212357142E+02  0.00000000000E+00 0. -1.
</event>
<event>
 7    1  0.5987893E-013  0.5930199E+02  0.7816164E-02  0.1266605E+00
        -11   -1    0    0    0    0  0.00000000000E+00  0.00000000000E+00  0.45593999997E+02  0.45594000000E+02  0.51100000000E-03 0.  1.
         11   -1    0    0    0    0 -0.00000000000E+00 -0.00000000000E+00 -0.45593999997E+02  0.45594000000E+02  0.51100000000E-03 0. -1.
    9900012    2    1    2    0    0 -0.30850150787E+02 -0.78790613893E+01  0.17047777663E+01  0.59301989287E+02  0.50000082541E+02 0.  0.
        -12    1    1    2    0    0  0.30850150787E+02  0.78790613893E+01 -0.17047777663E+01  0.31886010713E+02  0.00000000000E+00 0.  1.
         11    1    3    3    0    0 -0.24896214554E+02 -0.15380072835E+02  0.66683754961E+01  0.30013919630E+02  0.51100000000E-03 0. -1.
        -11    1    3    3    0    0 -0.11326230860E+02  0.42621392430E+01 -0.13861719161E+02  0.18400994397E+02  0.51100000000E-03 0.  1.
         12    1    3    3    0    0  0.53722946272E+01  0.32388722023E+01  0.88981214314E+01  0.10887075260E+02  0.00000000000E+00 0. -1.
</event>
<event>
 7    1  0.5987893E-013  0.5930201E+02  0.7816164E-02  0.1266605E+00
        -11   -1    0    0    0    0  0.00000000000E+00  0.00000000000E+00  0.45593999997E+02  0.45594000000E+02  0.51100000000E-03 0.  1.
         11   -1    0    0    0    0 -0.00000000000E+00 -0.00000000000E+00 -0.45593999997E+02  0.45594000000E+02  0.51100000000E-03 0. -1.
    9900012    2    1    2    0    0  0.25704493884E+02  0.13291165948E+02 -0.13391806875E+02  0.59302006375E+02  0.50000113706E+02 0.  0.
        -12    1    1    2    0    0 -0.25704493884E+02 -0.13291165948E+02  0.13391806875E+02  0.31885993625E+02  0.00000000000E+00 0.  1.
         11    1    3    3    0    0  0.22463667275E+02  0.10532226984E+02 -0.10378431303E+02  0.26893419070E+02  0.51100000000E-03 0. -1.
        -11    1    3    3    0    0 -0.50826712084E+01 -0.52060906623E+01 -0.14448100696E+02  0.16176666547E+02  0.51100000000E-03 0.  1.
        -12    1    3    3    0    0  0.83234978170E+01  0.79650296264E+01  0.11434725124E+02  0.16231920758E+02  0.00000000000E+00 0.  1.
</event>
<event>
 7    1  0.5987893E-013  0.5930192E+02  0.7816164E-02  0.1266605E+00
        -11   -1    0    0    0    0  0.00000000000E+00  0.00000000000E+00  0.45593999997E+02  0.45594000000E+02  0.51100000000E-03 0. -1.
         11   -1    0    0    0    0 -0.00000000000E+00 -0.00000000000E+00 -0.45593999997E+02  0.45594000000E+02  0.51100000000E-03 0.  1.
    9900012    2    1    2    0    0 -0.23364423474E+02 -0.27258473208E+01  0.21526631149E+02  0.59301915629E+02  0.49999948208E+02 0.  0.
        -12    1    1    2    0    0  0.23364423474E+02  0.27258473208E+01 -0.21526631149E+02  0.31886084371E+02  0.00000000000E+00 0.  1.
         11    1    3    3    0    0  0.28982623894E+01  0.11144061055E+02  0.15459857922E+02  0.19276857340E+02  0.51100000000E-03 0. -1.
        -11    1    3    3    0    0 -0.28405355507E+02 -0.14949340931E+02 -0.14529327346E+01  0.32131884935E+02  0.51100000000E-03 0.  1.
         12    1    3    3    0    0  0.21426696433E+01  0.10794325545E+01  0.75197059614E+01  0.78931733534E+01  0.00000000000E+00 0. -1.
</event>
<event>
 7    1  0.5987893E-013  0.5930196E+02  0.7816164E-02  0.1266605E+00
        -11   -1    0    0    0    0  0.00000000000E+00  0.00000000000E+00  0.45593999997E+02  0.45594000000E+02  0.51100000000E-03 0.  1.
         11   -1    0    0    0    0 -0.00000000000E+00 -0.00000000000E+00 -0.45593999997E+02  0.45594000000E+02  0.51100000000E-03 0. -1.
    9900012    2    1    2    0    0  0.92256974616E+01 -0.96184975362E+01 -0.28967064077E+02  0.59301956192E+02  0.50000022184E+02 0.  0.
        -12    1    1    2    0    0 -0.92256974616E+01  0.96184975362E+01  0.28967064077E+02  0.31886043808E+02  0.00000000000E+00 0.  1.
         11    1    3    3    0    0  0.61889803542E+01 -0.19315470950E+02 -0.12953848123E+02  0.24066430506E+02  0.51100000000E-03 0. -1.
        -11    1    3    3    0    0 -0.31267042816E+01  0.67771538198E+01  0.76030418005E+01  0.10654216932E+02  0.51100000000E-03 0.  1.
        -12    1    3    3    0    0  0.61634213890E+01  0.29198195943E+01 -0.23616257754E+02  0.24581308753E+02  0.00000000000E+00 0.  1.
</event>
<event>
 7    1  0.5987893E-013  0.5930194E+02  0.7816164E-02  0.1266605E+00
        -11   -1    0    0    0    0  0.00000000000E+00  0.00000000000E+00  0.45593999997E+02  0.45594000000E+02  0.51100000000E-03 0.  1.
         11   -1    0    0    0    0 -0.00000000000E+00 -0.00000000000E+00 -0.45593999997E+02  0.45594000000E+02  0.51100000000E-03 0. -1.
    9900012    2    1    2    0    0  0.91939131131E+01  0.17418593318E+02 -0.25075598541E+02  0.59301936058E+02  0.49999985465E+02 0.  0.
        -12    1    1    2    0    0 -0.91939131131E+01 -0.17418593318E+02  0.25075598541E+02  0.31886063942E+02  0.00000000000E+00 0.  1.
         11    1    3    3    0    0  0.15901340250E+02  0.68309422094E+01  0.68908735386E+01  0.18627896597E+02  0.51100000000E-03 0.  1.
        -11    1    3    3    0    0  0.45790994089E+01 -0.59753758903E+00 -0.20665471881E+02  0.21175148899E+02  0.51100000000E-03 0. -1.
         12    1    3    3    0    0 -0.11286526546E+02  0.11185188697E+02 -0.11301000199E+02  0.19498890562E+02  0.00000000000E+00 0. -1.
</event>
<event>
 7    1  0.5987893E-013  0.5930194E+02  0.7816164E-02  0.1266605E+00
        -11   -1    0    0    0    0  0.00000000000E+00  0.00000000000E+00  0.45593999997E+02  0.45594000000E+02  0.51100000000E-03 0.  1.
         11   -1    0    0    0    0 -0.00000000000E+00 -0.00000000000E+00 -0.45593999997E+02  0.45594000000E+02  0.51100000000E-03 0. -1.
    9900012    2    1    2    0    0  0.17433679484E+02  0.86593927781E+01 -0.25254756797E+02  0.59301937143E+02  0.49999987445E+02 0.  0.
        -12    1    1    2    0    0 -0.17433679484E+02 -0.86593927781E+01  0.25254756797E+02  0.31886062857E+02  0.00000000000E+00 0.  1.
         11    1    3    3    0    0 -0.84908631823E+01  0.92435584164E+01 -0.13420315564E+01  0.12622962360E+02  0.51100000000E-03 0. -1.
        -11    1    3    3    0    0  0.10445840824E+02 -0.14633652341E+02 -0.54453669064E+01  0.18785936025E+02  0.51100000000E-03 0.  1.
        -12    1    3    3    0    0  0.15478701842E+02  0.14049486702E+02 -0.18467358334E+02  0.27893038758E+02  0.00000000000E+00 0.  1.
</event>
<event>
 7    1  0.5987893E-013  0.5930192E+02  0.7816164E-02  0.1266605E+00
        -11   -1    0    0    0    0  0.00000000000E+00  0.00000000000E+00  0.45593999997E+02  0.45594000000E+02  0.51100000000E-03 0.  1.
         11   -1    0    0    0    0 -0.00000000000E+00 -0.00000000000E+00 -0.45593999997E+02  0.45594000000E+02  0.51100000000E-03 0. -1.
    9900012    2    1    2    0    0 -0.53868587519E+00 -0.18763503786E+02 -0.25775234778E+02  0.59301921774E+02  0.49999959414E+02 0.  0.
        -12    1    1    2    0    0  0.53868587519E+00  0.18763503786E+02  0.25775234778E+02  0.31886078226E+02  0.00000000000E+00 0.  1.
         11    1    3    3    0    0 -0.63614883318E+01 -0.19224208218E+02 -0.25304657977E+02  0.32409326297E+02  0.51100000000E-03 0. -1.
        -11    1    3    3    0    0  0.12669737386E+02  0.26413657593E+01 -0.89819148346E+01  0.15753534615E+02  0.51100000000E-03 0.  1.
         12    1    3    3    0    0 -0.68469349294E+01 -0.21806613266E+01  0.85113380339E+01  0.11139060862E+02  0.00000000000E+00 0. -1.
</event>
<event>
 7    1  0.5987893E-013  0.5930184E+02  0.7816164E-02  0.1266605E+00
        -11   -1    0    0    0    0  0.00000000000E+00  0.00000000000E+00  0.45593999997E+02  0.45594000000E+02  0.51100000000E-03 0. -1.
         11   -1    0    0    0    0 -0.00000000000E+00 -0.00000000000E+00 -0.45593999997E+02  0.45594000000E+02  0.51100000000E-03 0.  1.
    9900012    2    1    2    0    0  0.24521562899E+02 -0.18878168919E+02  0.76834317145E+01  0.59301836360E+02  0.49999803639E+02 0.  0.
        -12    1    1    2    0    0 -0.24521562899E+02  0.18878168919E+02 -0.76834317145E+01  0.31886163640E+02  0.00000000000E+00 0.  1.
         11    1    3    3    0    0  0.33571349584E+01 -0.12054051950E+01  0.22931202801E+02  0.23206969189E+02  0.51100000000E-03 0. -1.
        -11    1    3    3    0    0  0.32806386292E+01 -0.12151178042E+02 -0.11031265186E+01  0.12634500623E+02  0.51100000000E-03 0.  1.
         12    1    3    3    0    0  0.17883789312E+02 -0.55215856820E+01 -0.14144644567E+02  0.23460366547E+02  0.00000000000E+00 0. -1.
</event>
<event>
 7    1  0.5987893E-013  0.5930196E+02  0.7816164E-02  0.1266605E+00
        -11   -1    0    0    0    0  0.00000000000E+00  0.00000000000E+00  0.45593999997E+02  0.45594000000E+02  0.51100000000E-03 0. -1.
         11   -1    0    0    0    0 -0.00000000000E+00 -0.00000000000E+00 -0.45593999997E+02  0.45594000000E+02  0.51100000000E-03 0.  1.
    9900012    2    1    2    0    0 -0.14013062586E+02  0.24793430430E+02  0.14340135592E+02  0.59301959099E+02  0.50000027487E+02 0.  0.
        -12    1    1    2    0    0  0.14013062586E+02 -0.24793430430E+02 -0.14340135592E+02  0.31886040901E+02  0.00000000000E+00 0.  1.
         11    1    3    3    0    0  0.71691491611E+01 -0.10150053558E+02  0.62073331744E+01  0.13890690132E+02  0.51100000000E-03 0. -1.
        -11    1    3    3    0    0 -0.13759328755E+02  0.32460457350E+02  0.11218165922E+02  0.36997941376E+02  0.51100000000E-03 0.  1.
        -12    1    3    3    0    0 -0.74228829921E+01  0.24830266390E+01 -0.30853635050E+01  0.84133275916E+01  0.00000000000E+00 0.  1.
</event>
<event>
 7    1  0.5987893E-013  0.5930194E+02  0.7816164E-02  0.1266605E+00
        -11   -1    0    0    0    0  0.00000000000E+00  0.00000000000E+00  0.45593999997E+02  0.45594000000E+02  0.51100000000E-03 0. -1.
         11   -1    0    0    0    0 -0.00000000000E+00 -0.00000000000E+00 -0.45593999997E+02  0.45594000000E+02  0.51100000000E-03 0.  1.
    9900012    2    1    2    0    0  0.56218811265E+01  0.20874900406E+02  0.23438294547E+02  0.59301942457E+02  0.49999997135E+02 0.  0.
        -12    1    1    2    0    0 -0.56218811265E+01 -0.20874900406E+02 -0.23438294547E+02  0.31886057543E+02  0.00000000000E+00 0.  1.
         11    1    3    3    0    0 -0.23670145518E+01  0.32733152142E+02  0.21798269235E+02  0.39398306422E+02  0.51100000000E-03 0. -1.
        -11    1    3    3    0    0  0.52164324165E+01 -0.16054491493E+01 -0.49799635455E+01  0.73884146677E+01  0.51100000000E-03 0.  1.
         12    1    3    3    0    0  0.27724632618E+01 -0.10252802586E+02  0.66199888567E+01  0.12515221367E+02  0.00000000000E+00 0. -1.
</event>
<event>
 7    1  0.5987893E-013  0.5930193E+02  0.7816164E-02  0.1266605E+00
        -11   -1    0    0    0    0  0.00000000000E+00  0.00000000000E+00  0.45593999997E+02  0.45594000000E+02  0.51100000000E-03 0.  1.
         11   -1    0    0    0    0 -0.00000000000E+00 -0.00000000000E+00 -0.45593999997E+02  0.45594000000E+02  0.51100000000E-03 0. -1.
    9900012    2    1    2    0    0  0.83468011327E+01  0.10450885647E+02 -0.28945316410E+02  0.59301930283E+02  0.49999974932E+02 0.  0.
        -12    1    1    2    0    0 -0.83468011327E+01 -0.10450885647E+02  0.28945316410E+02  0.31886069717E+02  0.00000000000E+00 0.  1.
         11    1    3    3    0    0  0.30359572063E+01  0.26852418612E+01 -0.39987873354E+01  0.56936684507E+01  0.51100000000E-03 0. -1.
        -11    1    3    3    0    0 -0.15740711897E+01  0.10755124142E+02  0.11834727577E+02  0.16068950573E+02  0.51100000000E-03 0.  1.
        -12    1    3    3    0    0  0.68849151161E+01 -0.29894803558E+01 -0.36781256652E+02  0.37539311259E+02  0.00000000000E+00 0.  1.
</event>
<event>
 7    1  0.5987893E-013  0.5930195E+02  0.7816164E-02  0.1266605E+00
        -11   -1    0    0    0    0  0.00000000000E+00  0.00000000000E+00  0.45593999997E+02  0.45594000000E+02  0.51100000000E-03 0. -1.
         11   -1    0    0    0    0 -0.00000000000E+00 -0.00000000000E+00 -0.45593999997E+02  0.45594000000E+02  0.51100000000E-03 0.  1.
    9900012    2    1    2    0    0  0.29701183024E+02  0.95775897864E+01  0.65444462835E+01  0.59301948562E+02  0.50000008269E+02 0.  0.
        -12    1    1    2    0    0 -0.29701183024E+02 -0.95775897864E+01 -0.65444462835E+01  0.31886051438E+02  0.00000000000E+00 0.  1.
         11    1    3    3    0    0  0.23363672257E+02 -0.32230007438E+01  0.14414531762E+02  0.27641049931E+02  0.51100000000E-03 0. -1.
        -11    1    3    3    0    0 -0.11633581019E+01  0.13150951278E+02 -0.15900240274E+02  0.20666846944E+02  0.51100000000E-03 0.  1.
        -12    1    3    3    0    0  0.75008688694E+01 -0.35036074810E+00  0.80301547949E+01  0.10994051686E+02  0.00000000000E+00 0.  1.
</event>
<event>
 7    1  0.5987893E-013  0.5930195E+02  0.7816164E-02  0.1266605E+00
        -11   -1    0    0    0    0  0.00000000000E+00  0.00000000000E+00  0.45593999997E+02  0.45594000000E+02  0.51100000000E-03 0.  1.
         11   -1    0    0    0    0 -0.00000000000E+00 -0.00000000000E+00 -0.45593999997E+02  0.45594000000E+02  0.51100000000E-03 0. -1.
    9900012    2    1    2    0    0  0.19041738727E+02 -0.25568030156E+02  0.63868009981E+00  0.59301954587E+02  0.50000019258E+02 0.  0.
        -12    1    1    2    0    0 -0.19041738727E+02  0.25568030156E+02 -0.63868009981E+00  0.31886045413E+02  0.00000000000E+00 0.  1.
         11    1    3    3    0    0 -0.15065125651E+01 -0.14559990287E+02 -0.14750436332E+02  0.20780718696E+02  0.51100000000E-03 0. -1.
        -11    1    3    3    0    0  0.20881324906E+02 -0.91666727487E+01 -0.21453548170E+00  0.22805780953E+02  0.51100000000E-03 0.  1.
         12    1    3    3    0    0 -0.33307361458E+00 -0.18413671204E+01  0.15603651913E+02  0.15715454939E+02  0.00000000000E+00 0. -1.
</event>
<event>
 7    1  0.5987893E-013  0.5930194E+02  0.7816164E-02  0.1266605E+00
        -11   -1    0    0    0    0  0.00000000000E+00  0.00000000000E+00  0.45593999997E+02  0.45594000000E+02  0.51100000000E-03 0.  1.
         11   -1    0    0    0    0 -0.00000000000E+00 -0.00000000000E+00 -0.45593999997E+02  0.45594000000E+02  0.51100000000E-03 0. -1.
    9900012    2    1    2    0    0 -0.16532532223E+01 -0.23471542667E+02 -0.21519159393E+02  0.59301940627E+02  0.49999993798E+02 0.  0.
        -12    1    1    2    0    0  0.16532532223E+01  0.23471542667E+02  0.21519159393E+02  0.31886059373E+02  0.00000000000E+00 0.  1.
         11    1    3    3    0    0 -0.22693041237E+02 -0.13425171154E+02 -0.90314039557E+01  0.27870694264E+02  0.51100000000E-03 0. -1.
        -11    1    3    3    0    0  0.20384245679E+02 -0.13173548887E+02 -0.13865225113E+02  0.27951821584E+02  0.51100000000E-03 0.  1.
         12    1    3    3    0    0  0.65554233620E+00  0.31271773736E+01  0.13774696764E+01  0.34794247786E+01  0.00000000000E+00 0. -1.
</event>
<event>
 7    1  0.5987893E-013  0.5930195E+02  0.7816164E-02  0.1266605E+00
        -11   -1    0    0    0    0  0.00000000000E+00  0.00000000000E+00  0.45593999997E+02  0.45594000000E+02  0.51100000000E-03 0.  1.
         11   -1    0    0    0    0 -0.00000000000E+00 -0.00000000000E+00 -0.45593999997E+02  0.45594000000E+02  0.51100000000E-03 0. -1.
    9900012    2    1    2    0    0 -0.24186081032E+01 -0.27954512269E+02 -0.15146480533E+02  0.59301948286E+02  0.50000007766E+02 0.  0.
        -12    1    1    2    0    0  0.24186081032E+01  0.27954512269E+02  0.15146480533E+02  0.31886051714E+02  0.00000000000E+00 0.  1.
         11    1    3    3    0    0 -0.70246421777E+01 -0.19897167221E+02 -0.24496069502E+02  0.32331103947E+02  0.51100000000E-03 0. -1.
        -11    1    3    3    0    0  0.99578526028E+01  0.36572073820E+01  0.92755399578E+01  0.14091473878E+02  0.51100000000E-03 0.  1.
         12    1    3    3    0    0 -0.53518185283E+01 -0.11714552430E+02  0.74049010846E-01  0.12879370461E+02  0.00000000000E+00 0. -1.
</event>
<event>
 7    1  0.5987893E-013  0.5930195E+02  0.7816164E-02  0.1266605E+00
        -11   -1    0    0    0    0  0.00000000000E+00  0.00000000000E+00  0.45593999997E+02  0.45594000000E+02  0.51100000000E-03 0.  1.
         11   -1    0    0    0    0 -0.00000000000E+00 -0.00000000000E+00 -0.45593999997E+02  0.45594000000E+02  0.51100000000E-03 0. -1.
    9900012    2    1    2    0    0 -0.45922934356E+01 -0.26195786375E+02 -0.17590112188E+02  0.59301946158E+02  0.50000003886E+02 0.  0.
        -12    1    1    2    0    0  0.45922934356E+01  0.26195786375E+02  0.17590112188E+02  0.31886053842E+02  0.00000000000E+00 0.  1.
         11    1    3    3    0    0  0.22534796372E+01 -0.30152459625E+02  0.24866135098E+01  0.30338626187E+02  0.51100000000E-03 0. -1.
        -11    1    3    3    0    0 -0.96983606771E+01  0.34839869962E+01 -0.18023308721E+01  0.10461585064E+02  0.51100000000E-03 0.  1.
         12    1    3    3    0    0  0.28525876044E+01  0.47268625417E+00 -0.18274394826E+02  0.18501734907E+02  0.00000000000E+00 0. -1.
</event>
<event>
 7    1  0.5987893E-013  0.5930195E+02  0.7816164E-02  0.1266605E+00
        -11   -1    0    0    0    0  0.00000000000E+00  0.00000000000E+00  0.45593999997E+02  0.45594000000E+02  0.51100000000E-03 0.  1.
         11   -1    0    0    0    0 -0.00000000000E+00 -0.00000000000E+00 -0.45593999997E+02  0.45594000000E+02  0.51100000000E-03 0. -1.
    9900012    2    1    2    0    0 -0.19948718952E+02  0.48066090922E+01 -0.24406255740E+02  0.59301949790E+02  0.50000010509E+02 0.  0.
        -12    1    1    2    0    0  0.19948718952E+02 -0.48066090922E+01  0.24406255740E+02  0.31886050210E+02  0.00000000000E+00 0.  1.
         11    1    3    3    0    0  0.99422027487E+01  0.44609023128E+01 -0.91179422250E+01  0.14208585982E+02  0.51100000000E-03 0. -1.
        -11    1    3    3    0    0 -0.14186688154E+02 -0.11551893995E+02  0.26037906356E+01  0.18479396678E+02  0.51100000000E-03 0.  1.
        -12    1    3    3    0    0 -0.15704233546E+02  0.11897600774E+02 -0.17892104150E+02  0.26613967130E+02  0.00000000000E+00 0.  1.
</event>
<event>
 7    1  0.5987893E-013  0.5930192E+02  0.7816164E-02  0.1266605E+00
        -11   -1    0    0    0    0  0.00000000000E+00  0.00000000000E+00  0.45593999997E+02  0.45594000000E+02  0.51100000000E-03 0.  1.
         11   -1    0    0    0    0 -0.00000000000E+00 -0.00000000000E+00 -0.45593999997E+02  0.45594000000E+02  0.51100000000E-03 0. -1.
    9900012    2    1    2    0    0  0.16658507126E+02 -0.97369288363E+01 -0.25385206963E+02  0.59301915647E+02  0.49999948240E+02 0.  0.
        -12    1    1    2    0    0 -0.16658507126E+02  0.97369288363E+01  0.25385206963E+02  0.31886084353E+02  0.00000000000E+00 0.  1.
         11    1    3    3    0    0  0.96927835828E+01 -0.52437668697E+01 -0.18818016752E+02  0.21807450546E+02  0.51100000000E-03 0. -1.
        -11    1    3    3    0    0 -0.10158467626E+02  0.93254162778E+01  0.18943740263E+01  0.13919285415E+02  0.51100000000E-03 0.  1.
        -12    1    3    3    0    0  0.17124191169E+02 -0.13818578244E+02 -0.84615642374E+01  0.23575179686E+02  0.00000000000E+00 0.  1.
</event>
<event>
 7    1  0.7298618E-013  0.5930231E+02  0.7816164E-02  0.1266603E+00
        -11   -1    0    0    0    0  0.00000000000E+00  0.00000000000E+00  0.45593999997E+02  0.45594000000E+02  0.51100000000E-03 0. -1.
         11   -1    0    0    0    0 -0.00000000000E+00 -0.00000000000E+00 -0.45593999997E+02  0.45594000000E+02  0.51100000000E-03 0.  1.
    9900012    2    1    2    0    0 -0.65130451424E+00 -0.22013159399E+02  0.23058490222E+02  0.59302307980E+02  0.50000663757E+02 0.  0.
        -12    1    1    2    0    0  0.65130451424E+00  0.22013159399E+02 -0.23058490222E+02  0.31885692020E+02  0.00000000000E+00 0.  1.
         11    1    3    3    0    0  0.11610226675E+02 -0.15673144996E+02  0.21892601476E+02  0.29321167050E+02  0.51100000000E-03 0. -1.
        -11    1    3    3    0    0  0.23793275338E+01  0.45934383295E+01 -0.80089075368E+01  0.95343314078E+01  0.51100000000E-03 0.  1.
         12    1    3    3    0    0 -0.14640858723E+02 -0.10933452732E+02  0.91747962830E+01  0.20446809522E+02  0.00000000000E+00 0. -1.
</event>
<event>
 7    1  0.5987893E-013  0.5930191E+02  0.7816164E-02  0.1266605E+00
        -11   -1    0    0    0    0  0.00000000000E+00  0.00000000000E+00  0.45593999997E+02  0.45594000000E+02  0.51100000000E-03 0. -1.
         11   -1    0    0    0    0 -0.00000000000E+00 -0.00000000000E+00 -0.45593999997E+02  0.45594000000E+02  0.51100000000E-03 0.  1.
    9900012    2    1    2    0    0  0.23190024428E+02 -0.79518139121E+00  0.21870366460E+02  0.59301914077E+02  0.49999945377E+02 0.  0.
        -12    1    1    2    0    0 -0.23190024428E+02  0.79518139121E+00 -0.21870366460E+02  0.31886085923E+02  0.00000000000E+00 0.  1.
         11    1    3    3    0    0 -0.35663373746E+00 -0.65819522685E+01  0.53057027998E+01  0.84616644786E+01  0.51100000000E-03 0. -1.
        -11    1    3    3    0    0  0.77960002052E+01  0.31080809608E+01 -0.14016523242E+02  0.16337096147E+02  0.51100000000E-03 0.  1.
        -12    1    3    3    0    0  0.15750657960E+02  0.26786899165E+01  0.30581186901E+02  0.34503153452E+02  0.00000000000E+00 0.  1.
</event>
<event>
 7    1  0.5987893E-013  0.5930192E+02  0.7816164E-02  0.1266605E+00
        -11   -1    0    0    0    0  0.00000000000E+00  0.00000000000E+00  0.45593999997E+02  0.45594000000E+02  0.51100000000E-03 0.  1.
         11   -1    0    0    0    0 -0.00000000000E+00 -0.00000000000E+00 -0.45593999997E+02  0.45594000000E+02  0.51100000000E-03 0. -1.
    9900012    2    1    2    0    0 -0.19587910640E+02  0.22122417943E+02 -0.11984750951E+02  0.59301923505E+02  0.49999962572E+02 0.  0.
        -12    1    1    2    0    0  0.19587910640E+02 -0.22122417943E+02  0.11984750951E+02  0.31886076495E+02  0.00000000000E+00 0.  1.
         11    1    3    3    0    0  0.33641692387E+01 -0.43398107109E+01  0.64882755748E+01  0.84999595216E+01  0.51100000000E-03 0.  1.
        -11    1    3    3    0    0 -0.19050212453E+02  0.33521574610E+02 -0.11766091214E+02  0.40311877425E+02  0.51100000000E-03 0. -1.
        -12    1    3    3    0    0 -0.39018674256E+01 -0.70593459558E+01 -0.67069353123E+01  0.10490086559E+02  0.00000000000E+00 0.  1.
</event>
<event>
 7    1  0.5987893E-013  0.5930197E+02  0.7816164E-02  0.1266605E+00
        -11   -1    0    0    0    0  0.00000000000E+00  0.00000000000E+00  0.45593999997E+02  0.45594000000E+02  0.51100000000E-03 0. -1.
         11   -1    0    0    0    0 -0.00000000000E+00 -0.00000000000E+00 -0.45593999997E+02  0.45594000000E+02  0.51100000000E-03 0.  1.
    9900012    2    1    2    0    0 -0.93459984389E+01 -0.30445433633E+02 -0.15642081807E+01  0.59301970722E+02  0.50000048683E+02 0.  0.
        -12    1    1    2    0    0  0.93459984389E+01  0.30445433633E+02  0.15642081807E+01  0.31886029278E+02  0.00000000000E+00 0.  1.
         11    1    3    3    0    0 -0.16352491429E+02 -0.26681010122E+02  0.50861352761E+01  0.31704085689E+02  0.51100000000E-03 0. -1.
        -11    1    3    3    0    0  0.76577028975E+01  0.11975292413E+01  0.85823198318E+01  0.11564199233E+02  0.51100000000E-03 0.  1.
        -12    1    3    3    0    0 -0.65120990771E+00 -0.49619527524E+01 -0.15232663289E+02  0.16033685800E+02  0.00000000000E+00 0.  1.
</event>
<event>
 7    1  0.5987893E-013  0.5930195E+02  0.7816164E-02  0.1266605E+00
        -11   -1    0    0    0    0  0.00000000000E+00  0.00000000000E+00  0.45593999997E+02  0.45594000000E+02  0.51100000000E-03 0.  1.
         11   -1    0    0    0    0 -0.00000000000E+00 -0.00000000000E+00 -0.45593999997E+02  0.45594000000E+02  0.51100000000E-03 0. -1.
    9900012    2    1    2    0    0 -0.38620283259E+01  0.13433528852E+02 -0.28659123358E+02  0.59301948004E+02  0.50000007252E+02 0.  0.
        -12    1    1    2    0    0  0.38620283259E+01 -0.13433528852E+02  0.28659123358E+02  0.31886051996E+02  0.00000000000E+00 0.  1.
         11    1    3    3    0    0 -0.24155330513E+02  0.16557007988E+01 -0.13556186865E+02  0.27748721410E+02  0.51100000000E-03 0. -1.
        -11    1    3    3    0    0  0.44476933602E+01  0.90106799563E+01 -0.11108867128E+02  0.14979361089E+02  0.51100000000E-03 0.  1.
         12    1    3    3    0    0  0.15845608827E+02  0.27671480967E+01 -0.39940693659E+01  0.16573865505E+02  0.00000000000E+00 0. -1.
</event>
<event>
 7    1  0.5987893E-013  0.5930192E+02  0.7816164E-02  0.1266605E+00
        -11   -1    0    0    0    0  0.00000000000E+00  0.00000000000E+00  0.45593999997E+02  0.45594000000E+02  0.51100000000E-03 0.  1.
         11   -1    0    0    0    0 -0.00000000000E+00 -0.00000000000E+00 -0.45593999997E+02  0.45594000000E+02  0.51100000000E-03 0. -1.
    9900012    2    1    2    0    0  0.64689752333E+01 -0.25792520526E+02 -0.17596027146E+02  0.59301922678E+02  0.49999961063E+02 0.  0.
        -12    1    1    2    0    0 -0.64689752333E+01  0.25792520526E+02  0.17596027146E+02  0.31886077322E+02  0.00000000000E+00 0.  1.
         11    1    3    3    0    0  0.25250827575E+02 -0.10145173066E+02 -0.17695498860E+02  0.32460121840E+02  0.51100000000E-03 0. -1.
        -11    1    3    3    0    0 -0.22460194494E+01  0.15535089498E+01 -0.11174550142E+01  0.29507116759E+01  0.51100000000E-03 0.  1.
         12    1    3    3    0    0 -0.16535832892E+02 -0.17200856410E+02  0.12169267275E+01  0.23891089161E+02  0.00000000000E+00 0. -1.
</event>
<event>
 7    1  0.5987893E-013  0.5930198E+02  0.7816164E-02  0.1266605E+00
        -11   -1    0    0    0    0  0.00000000000E+00  0.00000000000E+00  0.45593999997E+02  0.45594000000E+02  0.51100000000E-03 0.  1.
         11   -1    0    0    0    0 -0.00000000000E+00 -0.00000000000E+00 -0.45593999997E+02  0.45594000000E+02  0.51100000000E-03 0. -1.
    9900012    2    1    2    0    0  0.23679776580E+02 -0.11459756370E+02 -0.18018344629E+02  0.59301975191E+02  0.50000056834E+02 0.  0.
        -12    1    1    2    0    0 -0.23679776580E+02  0.11459756370E+02  0.18018344629E+02  0.31886024809E+02  0.00000000000E+00 0.  1.
         11    1    3    3    0    0  0.10526239670E+01 -0.14217054575E+02 -0.21366052780E+02  0.25685421345E+02  0.51100000000E-03 0. -1.
        -11    1    3    3    0    0 -0.10489636412E+01  0.78171741631E+01  0.50180766175E+01  0.93482420710E+01  0.51100000000E-03 0.  1.
         12    1    3    3    0    0  0.23676116254E+02 -0.50598759582E+01 -0.16703684666E+01  0.24268311775E+02  0.00000000000E+00 0. -1.
</event>
<event>
 7    1  0.5987893E-013  0.5930196E+02  0.7816164E-02  0.1266605E+00
        -11   -1    0    0    0    0  0.00000000000E+00  0.00000000000E+00  0.45593999997E+02  0.45594000000E+02  0.51100000000E-03 0.  1.
         11   -1    0    0    0    0 -0.00000000000E+00 -0.00000000000E+00 -0.45593999997E+02  0.45594000000E+02  0.51100000000E-03 0. -1.
    9900012    2    1    2    0    0  0.12789420325E+01 -0.71969819602E+01 -0.31036869608E+02  0.59301960467E+02  0.50000029981E+02 0.  0.
        -12    1    1    2    0    0 -0.12789420325E+01  0.71969819602E+01  0.31036869608E+02  0.31886039533E+02  0.00000000000E+00 0.  1.
         11    1    3    3    0    0  0.51462850405E+01  0.13989245684E+02 -0.13942409752E+02  0.20410145381E+02  0.51100000000E-03 0. -1.
        -11    1    3    3    0    0 -0.12629689276E+02 -0.65381885329E+01  0.69416975221E+00  0.14238638713E+02  0.51100000000E-03 0.  1.
         12    1    3    3    0    0  0.87623462681E+01 -0.14648039111E+02 -0.17788629608E+02  0.24653176372E+02  0.00000000000E+00 0. -1.
</event>
<event>
 7    1  0.5987893E-013  0.5930193E+02  0.7816164E-02  0.1266605E+00
        -11   -1    0    0    0    0  0.00000000000E+00  0.00000000000E+00  0.45593999997E+02  0.45594000000E+02  0.51100000000E-03 0. -1.
         11   -1    0    0    0    0 -0.00000000000E+00 -0.00000000000E+00 -0.45593999997E+02  0.45594000000E+02  0.51100000000E-03 0.  1.
    9900012    2    1    2    0    0  0.30540705855E+02 -0.69473095911E+01  0.59767595673E+01  0.59301929693E+02  0.49999973858E+02 0.  0.
        -12    1    1    2    0    0 -0.30540705855E+02  0.69473095911E+01 -0.59767595673E+01  0.31886070307E+02  0.00000000000E+00 0.  1.
         11    1    3    3    0    0  0.98616696165E+01  0.38111409462E+00  0.95596543058E+01  0.13739896880E+02  0.51100000000E-03 0. -1.
        -11    1    3    3    0    0  0.12013984950E+02 -0.23425050421E+02 -0.63288140700E+01  0.27076238834E+02  0.51100000000E-03 0.  1.
        -12    1    3    3    0    0  0.86650512882E+01  0.16096626735E+02  0.27459193316E+01  0.18485793979E+02  0.00000000000E+00 0.  1.
</event>
<event>
 7    1  0.5987893E-013  0.5930194E+02  0.7816164E-02  0.1266605E+00
        -11   -1    0    0    0    0  0.00000000000E+00  0.00000000000E+00  0.45593999997E+02  0.45594000000E+02  0.51100000000E-03 0. -1.
         11   -1    0    0    0    0 -0.00000000000E+00 -0.00000000000E+00 -0.45593999997E+02  0.45594000000E+02  0.51100000000E-03 0.  1.
    9900012    2    1    2    0    0  0.13500527006E+02 -0.25715575748E+02  0.13159243570E+02  0.59301941027E+02  0.49999994527E+02 0.  0.
        -12    1    1    2    0    0 -0.13500527006E+02  0.25715575748E+02 -0.13159243570E+02  0.31886058973E+02  0.00000000000E+00 0.  1.
         11    1    3    3    0    0 -0.26207363999E+01 -0.55584366443E+01  0.65036239336E+01  0.89477148892E+01  0.51100000000E-03 0. -1.
        -11    1    3    3    0    0  0.18611891906E+02  0.73511101995E+01 -0.45920103171E+01  0.20531144647E+02  0.51100000000E-03 0.  1.
        -12    1    3    3    0    0 -0.24906285000E+01 -0.27508249303E+02  0.11247629953E+02  0.29823081491E+02  0.00000000000E+00 0.  1.
</event>
<event>
 7    1  0.5987893E-013  0.5930189E+02  0.7816164E-02  0.1266605E+00
        -11   -1    0    0    0    0  0.00000000000E+00  0.00000000000E+00  0.45593999997E+02  0.45594000000E+02  0.51100000000E-03 0.  1.
         11   -1    0    0    0    0 -0.00000000000E+00 -0.00000000000E+00 -0.45593999997E+02  0.45594000000E+02  0.51100000000E-03 0. -1.
    9900012    2    1    2    0    0 -0.44773673612E+01 -0.21613322825E+02 -0.23011761803E+02  0.59301894511E+02  0.49999909693E+02 0.  0.
        -12    1    1    2    0    0  0.44773673612E+01  0.21613322825E+02  0.23011761803E+02  0.31886105489E+02  0.00000000000E+00 0.  1.
         11    1    3    3    0    0 -0.91152459923E+01 -0.15699508387E+02  0.10578717378E+02  0.21011224018E+02  0.51100000000E-03 0.  1.
        -11    1    3    3    0    0  0.65135965128E+01 -0.46203241983E+01 -0.34804515007E+02  0.35708942863E+02  0.51100000000E-03 0. -1.
         12    1    3    3    0    0 -0.18757178817E+01 -0.12934902389E+01  0.12140358267E+01  0.25817276305E+01  0.00000000000E+00 0. -1.
</event>
<event>
 7    1  0.5987893E-013  0.5930198E+02  0.7816164E-02  0.1266605E+00
        -11   -1    0    0    0    0  0.00000000000E+00  0.00000000000E+00  0.45593999997E+02  0.45594000000E+02  0.51100000000E-03 0.  1.
         11   -1    0    0    0    0 -0.00000000000E+00 -0.00000000000E+00 -0.45593999997E+02  0.45594000000E+02  0.51100000000E-03 0. -1.
    9900012    2    1    2    0    0  0.68613882514E+00  0.38810525408E+01 -0.31641510106E+02  0.59301976148E+02  0.50000058580E+02 0.  0.
        -12    1    1    2    0    0 -0.68613882514E+00 -0.38810525408E+01  0.31641510106E+02  0.31886023852E+02  0.00000000000E+00 0.  1.
         11    1    3    3    0    0  0.85978736127E+01 -0.43095058864E+01 -0.37270571048E+02  0.38491437205E+02  0.51100000000E-03 0. -1.
        -11    1    3    3    0    0 -0.93862486516E+01  0.73189877579E+01  0.10359611453E+02  0.15779442173E+02  0.51100000000E-03 0.  1.
        -12    1    3    3    0    0  0.14745138641E+01  0.87157066927E+00 -0.47305505118E+01  0.50310967703E+01  0.00000000000E+00 0.  1.
</event>
<event>
 7    1  0.5987893E-013  0.5930193E+02  0.7816164E-02  0.1266605E+00
        -11   -1    0    0    0    0  0.00000000000E+00  0.00000000000E+00  0.45593999997E+02  0.45594000000E+02  0.51100000000E-03 0. -1.
         11   -1    0    0    0    0 -0.00000000000E+00 -0.00000000000E+00 -0.45593999997E+02  0.45594000000E+02  0.51100000000E-03 0.  1.
    9900012    2    1    2    0    0 -0.15820189579E+01  0.28541577301E+02  0.14127875105E+02  0.59301932921E+02  0.49999979743E+02 0.  0.
        -12    1    1    2    0    0  0.15820189579E+01 -0.28541577301E+02 -0.14127875105E+02  0.31886067079E+02  0.00000000000E+00 0.  1.
         11    1    3    3    0    0 -0.92770350406E+01  0.11163593443E+02  0.23515602217E+02  0.27634629463E+02  0.51100000000E-03 0. -1.
        -11    1    3    3    0    0 -0.17485260238E+01  0.11784583318E+02 -0.15148174329E+02  0.19271765176E+02  0.51100000000E-03 0.  1.
         12    1    3    3    0    0  0.94435421065E+01  0.55934005403E+01  0.57604472176E+01  0.12395538281E+02  0.00000000000E+00 0. -1.
</event>
<event>
 7    1  0.5987893E-013  0.5930196E+02  0.7816164E-02  0.1266605E+00
        -11   -1    0    0    0    0  0.00000000000E+00  0.00000000000E+00  0.45593999997E+02  0.45594000000E+02  0.51100000000E-03 0. -1.
         11   -1    0    0    0    0 -0.00000000000E+00 -0.00000000000E+00 -0.45593999997E+02  0.45594000000E+02  0.51100000000E-03 0.  1.
    9900012    2    1    2    0    0 -0.25598437773E+02 -0.16664129050E+02 -0.91512917889E+01  0.59301963012E+02  0.50000034623E+02 0.  0.
        -12    1    1    2    0    0  0.25598437773E+02  0.16664129050E+02  0.91512917889E+01  0.31886036988E+02  0.00000000000E+00 0.  1.
         11    1    3    3    0    0 -0.36082387953E+02 -0.44406345355E+00 -0.10688684980E+02  0.37634876107E+02  0.51100000000E-03 0. -1.
        -11    1    3    3    0    0  0.59859115770E+01 -0.11511577224E+02 -0.34950873483E+01  0.13437380080E+02  0.51100000000E-03 0.  1.
         12    1    3    3    0    0  0.44980386036E+01 -0.47084883725E+01  0.50324805393E+01  0.82297068241E+01  0.00000000000E+00 0. -1.
</event>
<event>
 7    1  0.5987893E-013  0.5930197E+02  0.7816164E-02  0.1266605E+00
        -11   -1    0    0    0    0  0.00000000000E+00  0.00000000000E+00  0.45593999997E+02  0.45594000000E+02  0.51100000000E-03 0. -1.
         11   -1    0    0    0    0 -0.00000000000E+00 -0.00000000000E+00 -0.45593999997E+02  0.45594000000E+02  0.51100000000E-03 0.  1.
    9900012    2    1    2    0    0 -0.20353813306E+01  0.48756554388E+01  0.31445251381E+02  0.59301974416E+02  0.50000055421E+02 0.  0.
        -12    1    1    2    0    0  0.20353813306E+01 -0.48756554388E+01 -0.31445251381E+02  0.31886025584E+02  0.00000000000E+00 0.  1.
         11    1    3    3    0    0  0.17060007680E+01  0.14093864037E+01  0.11098052513E+02  0.11316517949E+02  0.51100000000E-03 0. -1.
        -11    1    3    3    0    0  0.65006804506E+01  0.10928427585E+02 -0.92932751630E+01  0.15749740928E+02  0.51100000000E-03 0.  1.
        -12    1    3    3    0    0 -0.10242062549E+02 -0.74621585496E+01  0.29640474031E+02  0.32235715538E+02  0.00000000000E+00 0.  1.
</event>
<event>
 7    1  0.5987893E-013  0.5930193E+02  0.7816164E-02  0.1266605E+00
        -11   -1    0    0    0    0  0.00000000000E+00  0.00000000000E+00  0.45593999997E+02  0.45594000000E+02  0.51100000000E-03 0. -1.
         11   -1    0    0    0    0 -0.00000000000E+00 -0.00000000000E+00 -0.45593999997E+02  0.45594000000E+02  0.51100000000E-03 0.  1.
    9900012    2    1    2    0    0  0.96652758805E+01 -0.30385755933E+02  0.10008059861E+00  0.59301925648E+02  0.49999966479E+02 0.  0.
        -12    1    1    2    0    0 -0.96652758805E+01  0.30385755933E+02 -0.10008059861E+00  0.31886074352E+02  0.00000000000E+00 0.  1.
         11    1    3    3    0    0 -0.13781064540E+02 -0.60168630890E+01  0.74547550568E+01  0.16783734820E+02  0.51100000000E-03 0. -1.
        -11    1    3    3    0    0  0.13140764725E+01 -0.14842631554E+02 -0.10485582390E+02  0.18220261983E+02  0.51100000000E-03 0.  1.
         12    1    3    3    0    0  0.22132263948E+02 -0.95262612902E+01  0.31309079318E+01  0.24297928844E+02  0.00000000000E+00 0. -1.
</event>
<event>
 7    1  0.5987893E-013  0.5930203E+02  0.7816164E-02  0.1266604E+00
        -11   -1    0    0    0    0  0.00000000000E+00  0.00000000000E+00  0.45593999997E+02  0.45594000000E+02  0.51100000000E-03 0. -1.
         11   -1    0    0    0    0 -0.00000000000E+00 -0.00000000000E+00 -0.45593999997E+02  0.45594000000E+02  0.51100000000E-03 0.  1.
    9900012    2    1    2    0    0 -0.82414650100E+01  0.81971203271E+01 -0.29691756690E+02  0.59302032200E+02  0.50000160805E+02 0.  0.
        -12    1    1    2    0    0  0.82414650100E+01 -0.81971203271E+01  0.29691756690E+02  0.31885967800E+02  0.00000000000E+00 0.  1.
         11    1    3    3    0    0  0.87107178241E+01  0.14607296073E+02 -0.30816352537E+02  0.35197972776E+02  0.51100000000E-03 0. -1.
        -11    1    3    3    0    0 -0.11398175988E+02 -0.95647412663E+01 -0.45503826402E+01  0.15559841701E+02  0.51100000000E-03 0.  1.
         12    1    3    3    0    0 -0.55540068464E+01  0.31545655201E+01  0.56749784871E+01  0.85442177231E+01  0.00000000000E+00 0. -1.
</event>
<event>
 7    1  0.1285287E-012  0.5930194E+02  0.7816164E-02  0.1266605E+00
        -11   -1    0    0    0    0  0.00000000000E+00  0.00000000000E+00  0.45593999997E+02  0.45594000000E+02  0.51100000000E-03 0. -1.
         11   -1    0    0    0    0 -0.00000000000E+00 -0.00000000000E+00 -0.45593999997E+02  0.45594000000E+02  0.51100000000E-03 0.  1.
    9900012    2    1    2    0    0 -0.10154393188E+02  0.22655208409E+02  0.20008759377E+02  0.59301943159E+02  0.49999998416E+02 0.  0.
        -12    1    1    2    0    0  0.10154393188E+02 -0.22655208409E+02 -0.20008759377E+02  0.31886056841E+02  0.00000000000E+00 0.  1.
         11    1    3    3    0    0  0.11491582250E+01  0.45358535345E+01  0.24407827491E+02  0.24852295165E+02  0.51100000000E-03 0. -1.
        -11    1    3    3    0    0  0.18847476320E+01 -0.20313662140E+01 -0.94456570493E+01  0.98437370792E+01  0.51100000000E-03 0.  1.
         12    1    3    3    0    0 -0.13188299045E+02  0.20150721088E+02  0.50465889354E+01  0.24605910915E+02  0.00000000000E+00 0. -1.
</event>
<event>
 7    1  0.5987893E-013  0.5930198E+02  0.7816164E-02  0.1266605E+00
        -11   -1    0    0    0    0  0.00000000000E+00  0.00000000000E+00  0.45593999997E+02  0.45594000000E+02  0.51100000000E-03 0.  1.
         11   -1    0    0    0    0 -0.00000000000E+00 -0.00000000000E+00 -0.45593999997E+02  0.45594000000E+02  0.51100000000E-03 0. -1.
    9900012    2    1    2    0    0  0.22205917589E+02 -0.22634226662E+02  0.33626617700E+01  0.59301976624E+02  0.50000059448E+02 0.  0.
        -12    1    1    2    0    0 -0.22205917589E+02  0.22634226662E+02 -0.33626617700E+01  0.31886023376E+02  0.00000000000E+00 0.  1.
         11    1    3    3    0    0 -0.68973793582E+01 -0.14570051294E+02 -0.41039515510E+01  0.16634381723E+02  0.51100000000E-03 0. -1.
        -11    1    3    3    0    0  0.22430818022E+02 -0.28494051534E+01  0.18178614111E+02  0.29012457981E+02  0.51100000000E-03 0.  1.
        -12    1    3    3    0    0  0.66724789248E+01 -0.52147702148E+01 -0.10712000790E+02  0.13655136920E+02  0.00000000000E+00 0.  1.
</event>
<event>
 7    1  0.5987893E-013  0.5930195E+02  0.7816164E-02  0.1266605E+00
        -11   -1    0    0    0    0  0.00000000000E+00  0.00000000000E+00  0.45593999997E+02  0.45594000000E+02  0.51100000000E-03 0.  1.
         11   -1    0    0    0    0 -0.00000000000E+00 -0.00000000000E+00 -0.45593999997E+02  0.45594000000E+02  0.51100000000E-03 0. -1.
    9900012    2    1    2    0    0  0.13278268241E+02  0.22360577250E+01 -0.28903424588E+02  0.59301947962E+02  0.50000007176E+02 0.  0.
        -12    1    1    2    0    0 -0.13278268241E+02 -0.22360577250E+01  0.28903424588E+02  0.31886052038E+02  0.00000000000E+00 0.  1.
         11    1    3    3    0    0  0.59747928396E+00 -0.16610584356E+01  0.65075526937E+01  0.67427248901E+01  0.51100000000E-03 0.  1.
        -11    1    3    3    0    0 -0.75961406964E-01  0.18405463457E+02 -0.11050698435E+02  0.21468227485E+02  0.51100000000E-03 0. -1.
        -12    1    3    3    0    0  0.12756750364E+02 -0.14508347296E+02 -0.24360278847E+02  0.31090995587E+02  0.00000000000E+00 0.  1.
</event>
<event>
 7    1  0.5987893E-013  0.5930198E+02  0.7816164E-02  0.1266605E+00
        -11   -1    0    0    0    0  0.00000000000E+00  0.00000000000E+00  0.45593999997E+02  0.45594000000E+02  0.51100000000E-03 0.  1.
         11   -1    0    0    0    0 -0.00000000000E+00 -0.00000000000E+00 -0.45593999997E+02  0.45594000000E+02  0.51100000000E-03 0. -1.
    9900012    2    1    2    0    0  0.14473122880E+02 -0.48347001316E+01 -0.27997731142E+02  0.59301975469E+02  0.50000057342E+02 0.  0.
        -12    1    1    2    0    0 -0.14473122880E+02  0.48347001316E+01  0.27997731142E+02  0.31886024531E+02  0.00000000000E+00 0.  1.
         11    1    3    3    0    0  0.11767209444E+02 -0.88348581730E+01 -0.92707732678E+01  0.17391640932E+02  0.51100000000E-03 0. -1.
        -11    1    3    3    0    0 -0.67139722978E+01  0.10885643552E+02 -0.25421998146E+02  0.28457910140E+02  0.51100000000E-03 0.  1.
        -12    1    3    3    0    0  0.94198857333E+01 -0.68854855102E+01  0.66950402713E+01  0.13452424398E+02  0.00000000000E+00 0.  1.
</event>
<event>
 7    1  0.5987893E-013  0.5930195E+02  0.7816164E-02  0.1266605E+00
        -11   -1    0    0    0    0  0.00000000000E+00  0.00000000000E+00  0.45593999997E+02  0.45594000000E+02  0.51100000000E-03 0.  1.
         11   -1    0    0    0    0 -0.00000000000E+00 -0.00000000000E+00 -0.45593999997E+02  0.45594000000E+02  0.51100000000E-03 0. -1.
    9900012    2    1    2    0    0  0.70008024149E+01  0.93409852634E+00 -0.31093993260E+02  0.59301949894E+02  0.50000010699E+02 0.  0.
        -12    1    1    2    0    0 -0.70008024149E+01 -0.93409852634E+00  0.31093993260E+02  0.31886050106E+02  0.00000000000E+00 0.  1.
         11    1    3    3    0    0 -0.13830329545E+02 -0.10489329754E+02 -0.26021435233E+02  0.31279692228E+02  0.51100000000E-03 0. -1.
        -11    1    3    3    0    0  0.30741985041E+01 -0.12699783941E+01  0.32611130584E+01  0.46581541628E+01  0.51100000000E-03 0.  1.
         12    1    3    3    0    0  0.17756933456E+02  0.12693406674E+02 -0.83336710854E+01  0.23364103504E+02  0.00000000000E+00 0. -1.
</event>
<event>
 7    1  0.5987893E-013  0.5930155E+02  0.7816164E-02  0.1266606E+00
        -11   -1    0    0    0    0  0.00000000000E+00  0.00000000000E+00  0.45593999997E+02  0.45594000000E+02  0.51100000000E-03 0.  1.
         11   -1    0    0    0    0 -0.00000000000E+00 -0.00000000000E+00 -0.45593999997E+02  0.45594000000E+02  0.51100000000E-03 0. -1.
    9900012    2    1    2    0    0 -0.12920214384E+01  0.69598627583E+01 -0.31090780646E+02  0.59301550681E+02  0.49999282625E+02 0.  0.
        -12    1    1    2    0    0  0.12920214384E+01 -0.69598627583E+01  0.31090780646E+02  0.31886449319E+02  0.00000000000E+00 0.  1.
         11    1    3    3    0    0  0.10853377977E+02  0.20442245632E+02 -0.12753482300E+02  0.26425982121E+02  0.51100000000E-03 0. -1.
        -11    1    3    3    0    0  0.17977850542E+01 -0.12521541614E+02 -0.12323501008E+02  0.17660399567E+02  0.51100000000E-03 0.  1.
         12    1    3    3    0    0 -0.13943184470E+02 -0.96084125959E+00 -0.60137973377E+01  0.15215168994E+02  0.00000000000E+00 0. -1.
</event>
<event>
 7    1  0.5987893E-013  0.5930194E+02  0.7816164E-02  0.1266605E+00
        -11   -1    0    0    0    0  0.00000000000E+00  0.00000000000E+00  0.45593999997E+02  0.45594000000E+02  0.51100000000E-03 0.  1.
         11   -1    0    0    0    0 -0.00000000000E+00 -0.00000000000E+00 -0.45593999997E+02  0.45594000000E+02  0.51100000000E-03 0. -1.
    9900012    2    1    2    0    0 -0.77363084012E+01  0.51321593029E+01 -0.30504614819E+02  0.59301936398E+02  0.49999986085E+02 0.  0.
        -12    1    1    2    0    0  0.77363084012E+01 -0.51321593029E+01  0.30504614819E+02  0.31886063602E+02  0.00000000000E+00 0.  1.
         11    1    3    3    0    0 -0.21644205216E+02  0.97597687072E+01 -0.23300561211E+02  0.33266211952E+02  0.51100000000E-03 0. -1.
        -11    1    3    3    0    0  0.31546138357E+01 -0.14233291891E+01  0.70746696021E+01  0.78758113660E+01  0.51100000000E-03 0.  1.
         12    1    3    3    0    0  0.10753282979E+02 -0.32042802152E+01 -0.14278723210E+02  0.18159913080E+02  0.00000000000E+00 0. -1.
</event>
<event>
 7    1  0.5987893E-013  0.5930198E+02  0.7816164E-02  0.1266605E+00
        -11   -1    0    0    0    0  0.00000000000E+00  0.00000000000E+00  0.45593999997E+02  0.45594000000E+02  0.51100000000E-03 0. -1.
         11   -1    0    0    0    0 -0.00000000000E+00 -0.00000000000E+00 -0.45593999997E+02  0.45594000000E+02  0.51100000000E-03 0.  1.
    9900012    2    1    2    0    0 -0.31730226821E+02 -0.63838594485E+00 -0.30827879168E+01  0.59301977795E+02  0.50000061583E+02 0.  0.
        -12    1    1    2    0    0  0.31730226821E+02  0.63838594485E+00  0.30827879168E+01  0.31886022205E+02  0.00000000000E+00 0.  1.
         11    1    3    3    0    0 -0.14305341681E+02  0.82742815448E+01  0.16296268055E+02  0.23209370704E+02  0.51100000000E-03 0. -1.
        -11    1    3    3    0    0  0.11259346655E+01  0.52047631272E+01 -0.92545180307E+01  0.10677237111E+02  0.51100000000E-03 0.  1.
         12    1    3    3    0    0 -0.18550819805E+02 -0.14117430617E+02 -0.10124537941E+02  0.25415369979E+02  0.00000000000E+00 0. -1.
</event>
<event>
 7    1  0.5987893E-013  0.5930200E+02  0.7816164E-02  0.1266605E+00
        -11   -1    0    0    0    0  0.00000000000E+00  0.00000000000E+00  0.45593999997E+02  0.45594000000E+02  0.51100000000E-03 0.  1.
         11   -1    0    0    0    0 -0.00000000000E+00 -0.00000000000E+00 -0.45593999997E+02  0.45594000000E+02  0.51100000000E-03 0. -1.
    9900012    2    1    2    0    0  0.46193016962E+01 -0.71120044629E+01 -0.30737569215E+02  0.59302004377E+02  0.50000110063E+02 0.  0.
        -12    1    1    2    0    0 -0.46193016962E+01  0.71120044629E+01  0.30737569215E+02  0.31885995623E+02  0.00000000000E+00 0.  1.
         11    1    3    3    0    0 -0.61097580472E+01  0.44253910440E+01 -0.89262720246E+01  0.11687239272E+02  0.51100000000E-03 0. -1.
        -11    1    3    3    0    0 -0.11849167682E+01 -0.22576527915E+02 -0.21751658144E+02  0.31372571981E+02  0.51100000000E-03 0.  1.
        -12    1    3    3    0    0  0.11913976512E+02  0.11039132408E+02 -0.59639045643E-01  0.16242193123E+02  0.00000000000E+00 0.  1.
</event>
<event>
 7    1  0.5987893E-013  0.5930195E+02  0.7816164E-02  0.1266605E+00
        -11   -1    0    0    0    0  0.00000000000E+00  0.00000000000E+00  0.45593999997E+02  0.45594000000E+02  0.51100000000E-03 0. -1.
         11   -1    0    0    0    0 -0.00000000000E+00 -0.00000000000E+00 -0.45593999997E+02  0.45594000000E+02  0.51100000000E-03 0.  1.
    9900012    2    1    2    0    0  0.22236898251E+02  0.17130253610E+01 -0.22788294148E+02  0.59301945840E+02  0.50000003305E+02 0.  0.
        -12    1    1    2    0    0 -0.22236898251E+02 -0.17130253610E+01  0.22788294148E+02  0.31886054160E+02  0.00000000000E+00 0.  1.
         11    1    3    3    0    0  0.17866495338E+02 -0.56714225773E+01 -0.36022076554E+02  0.40607470855E+02  0.51100000000E-03 0. -1.
        -11    1    3    3    0    0  0.39552930894E+01  0.98965128476E+01  0.10623594734E+02  0.15048125309E+02  0.51100000000E-03 0.  1.
        -12    1    3    3    0    0  0.41510982441E+00 -0.25120649094E+01  0.26101876721E+01  0.36463496759E+01  0.00000000000E+00 0.  1.
</event>
<event>
 7    1  0.5987893E-013  0.5930192E+02  0.7816164E-02  0.1266605E+00
        -11   -1    0    0    0    0  0.00000000000E+00  0.00000000000E+00  0.45593999997E+02  0.45594000000E+02  0.51100000000E-03 0.  1.
         11   -1    0    0    0    0 -0.00000000000E+00 -0.00000000000E+00 -0.45593999997E+02  0.45594000000E+02  0.51100000000E-03 0. -1.
    9900012    2    1    2    0    0 -0.17336411072E+02 -0.26049907295E+02 -0.61297131610E+01  0.59301918359E+02  0.49999953187E+02 0.  0.
        -12    1    1    2    0    0  0.17336411072E+02  0.26049907295E+02  0.61297131610E+01  0.31886081641E+02  0.00000000000E+00 0.  1.
         11    1    3    3    0    0 -0.17607976996E+02 -0.24558938551E+02  0.19727094289E+00  0.30219550505E+02  0.51100000000E-03 0. -1.
        -11    1    3    3    0    0  0.13081414360E+02 -0.64728383609E+01 -0.24305140780E+01  0.14796230501E+02  0.51100000000E-03 0.  1.
         12    1    3    3    0    0 -0.12809848436E+02  0.49818696164E+01 -0.38964700259E+01  0.14286137354E+02  0.00000000000E+00 0. -1.
</event>
<event>
 7    1  0.5987893E-013  0.5930193E+02  0.7816164E-02  0.1266605E+00
        -11   -1    0    0    0    0  0.00000000000E+00  0.00000000000E+00  0.45593999997E+02  0.45594000000E+02  0.51100000000E-03 0. -1.
         11   -1    0    0    0    0 -0.00000000000E+00 -0.00000000000E+00 -0.45593999997E+02  0.45594000000E+02  0.51100000000E-03 0.  1.
    9900012    2    1    2    0    0 -0.30556369749E+02 -0.73841309503E+01  0.53389256834E+01  0.59301933300E+02  0.49999980436E+02 0.  0.
        -12    1    1    2    0    0  0.30556369749E+02  0.73841309503E+01 -0.53389256834E+01  0.31886066700E+02  0.00000000000E+00 0.  1.
         11    1    3    3    0    0 -0.15837531166E+02 -0.19317047368E+01  0.23599598442E+02  0.28486837724E+02  0.51100000000E-03 0. -1.
        -11    1    3    3    0    0 -0.13004200843E+02  0.48988965651E+01 -0.13198873874E+02  0.19165560230E+02  0.51100000000E-03 0.  1.
         12    1    3    3    0    0 -0.17146377398E+01 -0.10351322779E+02 -0.50617988844E+01  0.11649535347E+02  0.00000000000E+00 0. -1.
</event>
<event>
 7    1  0.5987893E-013  0.5930194E+02  0.7816164E-02  0.1266605E+00
        -11   -1    0    0    0    0  0.00000000000E+00  0.00000000000E+00  0.45593999997E+02  0.45594000000E+02  0.51100000000E-03 0. -1.
         11   -1    0    0    0    0 -0.00000000000E+00 -0.00000000000E+00 -0.45593999997E+02  0.45594000000E+02  0.51100000000E-03 0.  1.
    9900012    2    1    2    0    0  0.17418684464E+02  0.26620836441E+02  0.21543471875E+01  0.59301941713E+02  0.49999995779E+02 0.  0.
        -12    1    1    2    0    0 -0.17418684464E+02 -0.26620836441E+02 -0.21543471875E+01  0.31886058287E+02  0.00000000000E+00 0.  1.
         11    1    3    3    0    0  0.62954578137E+01  0.70147924218E+01  0.23570711652E+02  0.25385400329E+02  0.51100000000E-03 0. -1.
        -11    1    3    3    0    0  0.23025534091E+01  0.14260162309E+02 -0.66436317700E+01  0.15899428438E+02  0.51100000000E-03 0.  1.
         12    1    3    3    0    0  0.88206732409E+01  0.53458817100E+01 -0.14772732694E+02  0.18017112947E+02  0.00000000000E+00 0. -1.
</event>
<event>
 7    1  0.5987893E-013  0.5930218E+02  0.7816164E-02  0.1266604E+00
        -11   -1    0    0    0    0  0.00000000000E+00  0.00000000000E+00  0.45593999997E+02  0.45594000000E+02  0.51100000000E-03 0.  1.
         11   -1    0    0    0    0 -0.00000000000E+00 -0.00000000000E+00 -0.45593999997E+02  0.45594000000E+02  0.51100000000E-03 0. -1.
    9900012    2    1    2    0    0  0.17462724775E+02  0.24083425817E+02  0.11478128415E+02  0.59302178894E+02  0.50000428338E+02 0.  0.
        -12    1    1    2    0    0 -0.17462724775E+02 -0.24083425817E+02 -0.11478128415E+02  0.31885821106E+02  0.00000000000E+00 0.  1.
         11    1    3    3    0    0  0.49114134227E+00  0.91533106834E+01  0.10573040519E+02  0.13993337785E+02  0.51100000000E-03 0.  1.
        -11    1    3    3    0    0  0.47487418683E+01  0.19828380554E+02 -0.14517626882E+02  0.25029516880E+02  0.51100000000E-03 0. -1.
        -12    1    3    3    0    0  0.12222841565E+02 -0.48982654199E+01  0.15422714779E+02  0.20279324229E+02  0.00000000000E+00 0.  1.
</event>
<event>
 7    1  0.5987893E-013  0.5930195E+02  0.7816164E-02  0.1266605E+00
        -11   -1    0    0    0    0  0.00000000000E+00  0.00000000000E+00  0.45593999997E+02  0.45594000000E+02  0.51100000000E-03 0.  1.
         11   -1    0    0    0    0 -0.00000000000E+00 -0.00000000000E+00 -0.45593999997E+02  0.45594000000E+02  0.51100000000E-03 0. -1.
    9900012    2    1    2    0    0 -0.14945412086E+02  0.27972589140E+02  0.32998652151E+01  0.59301949820E+02  0.50000010564E+02 0.  0.
        -12    1    1    2    0    0  0.14945412086E+02 -0.27972589140E+02 -0.32998652151E+01  0.31886050180E+02  0.00000000000E+00 0.  1.
         11    1    3    3    0    0  0.14819970315E+02  0.16681764847E+02  0.38617031139E+01  0.22645651895E+02  0.51100000000E-03 0. -1.
        -11    1    3    3    0    0 -0.12018539263E+02 -0.24960388928E+01  0.53936663168E+01  0.13407726607E+02  0.51100000000E-03 0.  1.
         12    1    3    3    0    0 -0.17746843138E+02  0.13786863186E+02 -0.59555042156E+01  0.23248571319E+02  0.00000000000E+00 0. -1.
</event>
<event>
 7    1  0.5987893E-013  0.5930187E+02  0.7816164E-02  0.1266605E+00
        -11   -1    0    0    0    0  0.00000000000E+00  0.00000000000E+00  0.45593999997E+02  0.45594000000E+02  0.51100000000E-03 0.  1.
         11   -1    0    0    0    0 -0.00000000000E+00 -0.00000000000E+00 -0.45593999997E+02  0.45594000000E+02  0.51100000000E-03 0. -1.
    9900012    2    1    2    0    0  0.28157153985E+02 -0.29641365360E+01 -0.14666765872E+02  0.59301867480E+02  0.49999860395E+02 0.  0.
        -12    1    1    2    0    0 -0.28157153985E+02  0.29641365360E+01  0.14666765872E+02  0.31886132520E+02  0.00000000000E+00 0.  1.
         11    1    3    3    0    0 -0.10187107842E+02  0.11821256959E+02 -0.12648391922E+01  0.15656279913E+02  0.51100000000E-03 0. -1.
        -11    1    3    3    0    0  0.32535201892E+02 -0.10804502789E+02 -0.12737416280E+02  0.36572098879E+02  0.51100000000E-03 0.  1.
        -12    1    3    3    0    0  0.58090599349E+01 -0.39808907058E+01 -0.66451040072E+00  0.70734886874E+01  0.00000000000E+00 0.  1.
</event>
<event>
 7    1  0.5987893E-013  0.5930190E+02  0.7816164E-02  0.1266605E+00
        -11   -1    0    0    0    0  0.00000000000E+00  0.00000000000E+00  0.45593999997E+02  0.45594000000E+02  0.51100000000E-03 0.  1.
         11   -1    0    0    0    0 -0.00000000000E+00 -0.00000000000E+00 -0.45593999997E+02  0.45594000000E+02  0.51100000000E-03 0. -1.
    9900012    2    1    2    0    0  0.11192254519E+02  0.27388172458E+02 -0.11888845813E+02  0.59301902613E+02  0.49999924470E+02 0.  0.
        -12    1    1    2    0    0 -0.11192254519E+02 -0.27388172458E+02  0.11888845813E+02  0.31886097387E+02  0.00000000000E+00 0.  1.
         11    1    3    3    0    0  0.21801811861E+02  0.15435118092E+01 -0.25592795110E+01  0.22005711554E+02  0.51100000000E-03 0. -1.
        -11    1    3    3    0    0 -0.16744074313E+02  0.19870185014E+02 -0.20642428960E+01  0.26066249751E+02  0.51100000000E-03 0.  1.
        -12    1    3    3    0    0  0.61345169715E+01  0.59744756348E+01 -0.72653234057E+01  0.11229941308E+02  0.00000000000E+00 0.  1.
</event>
<event>
 7    1  0.5987893E-013  0.5930195E+02  0.7816164E-02  0.1266605E+00
        -11   -1    0    0    0    0  0.00000000000E+00  0.00000000000E+00  0.45593999997E+02  0.45594000000E+02  0.51100000000E-03 0.  1.
         11   -1    0    0    0    0 -0.00000000000E+00 -0.00000000000E+00 -0.45593999997E+02  0.45594000000E+02  0.51100000000E-03 0. -1.
    9900012    2    1    2    0    0 -0.49745631983E+01 -0.33000568055E+01 -0.31322257651E+02  0.59301945395E+02  0.50000002494E+02 0.  0.
        -12    1    1    2    0    0  0.49745631983E+01  0.33000568055E+01  0.31322257651E+02  0.31886054605E+02  0.00000000000E+00 0.  1.
         11    1    3    3    0    0 -0.98869975539E+01 -0.13091551393E+02 -0.37121727687E+02  0.40585269560E+02  0.51100000000E-03 0. -1.
        -11    1    3    3    0    0  0.40144092321E+01  0.22564019461E+01  0.92863549368E+01  0.10365482116E+02  0.51100000000E-03 0.  1.
         12    1    3    3    0    0  0.89802512349E+00  0.75350926409E+01 -0.34868849002E+01  0.83511937192E+01  0.00000000000E+00 0. -1.
</event>
<event>
 7    1  0.5987893E-013  0.5930186E+02  0.7816164E-02  0.1266605E+00
        -11   -1    0    0    0    0  0.00000000000E+00  0.00000000000E+00  0.45593999997E+02  0.45594000000E+02  0.51100000000E-03 0. -1.
         11   -1    0    0    0    0 -0.00000000000E+00 -0.00000000000E+00 -0.45593999997E+02  0.45594000000E+02  0.51100000000E-03 0.  1.
    9900012    2    1    2    0    0  0.29720596811E+02 -0.11513798859E+02  0.91911918635E+00  0.59301855375E+02  0.49999838318E+02 0.  0.
        -12    1    1    2    0    0 -0.29720596811E+02  0.11513798859E+02 -0.91911918635E+00  0.31886144625E+02  0.00000000000E+00 0.  1.
         11    1    3    3    0    0  0.37259234832E+02 -0.47681329738E+01  0.41462034066E+01  0.37791224845E+02  0.51100000000E-03 0. -1.
        -11    1    3    3    0    0  0.87983954650E+00 -0.84743861015E+01 -0.79939501125E+01  0.11683003727E+02  0.51100000000E-03 0.  1.
         12    1    3    3    0    0 -0.84184775673E+01  0.17287202158E+01  0.47668658922E+01  0.98276268026E+01  0.00000000000E+00 0. -1.
</event>
<event>
 7    1  0.5987893E-013  0.5930194E+02  0.7816164E-02  0.1266605E+00
        -11   -1    0    0    0    0  0.00000000000E+00  0.00000000000E+00  0.45593999997E+02  0.45594000000E+02  0.51100000000E-03 0. -1.
         11   -1    0    0    0    0 -0.00000000000E+00 -0.00000000000E+00 -0.45593999997E+02  0.45594000000E+02  0.51100000000E-03 0.  1.
    9900012    2    1    2    0    0  0.21583181782E+02  0.21448246351E+02  0.95320419398E+01  0.59301939866E+02  0.49999992409E+02 0.  0.
        -12    1    1    2    0    0 -0.21583181782E+02 -0.21448246351E+02 -0.95320419398E+01  0.31886060134E+02  0.00000000000E+00 0.  1.
         11    1    3    3    0    0 -0.95288756814E+01  0.16308275495E+02  0.48966348039E+01  0.19512466631E+02  0.51100000000E-03 0. -1.
        -11    1    3    3    0    0  0.95831423824E+01 -0.92607763512E+01 -0.69767372406E+00  0.13344862136E+02  0.51100000000E-03 0.  1.
         12    1    3    3    0    0  0.21528915081E+02  0.14400747207E+02  0.53330808599E+01  0.26444611098E+02  0.00000000000E+00 0. -1.
</event>
<event>
 7    1  0.5987893E-013  0.5930195E+02  0.7816164E-02  0.1266605E+00
        -11   -1    0    0    0    0  0.00000000000E+00  0.00000000000E+00  0.45593999997E+02  0.45594000000E+02  0.51100000000E-03 0. -1.
         11   -1    0    0    0    0 -0.00000000000E+00 -0.00000000000E+00 -0.45593999997E+02  0.45594000000E+02  0.51100000000E-03 0.  1.
    9900012    2    1    2    0    0 -0.23699763480E+02  0.12681513087E+02  0.17152856998E+02  0.59301951854E+02  0.50000014273E+02 0.  0.
        -12    1    1    2    0    0  0.23699763480E+02 -0.12681513087E+02 -0.17152856998E+02  0.31886048146E+02  0.00000000000E+00 0.  1.
         11    1    3    3    0    0 -0.11358144262E+02 -0.23854957374E+00 -0.13729162412E+02  0.17820051845E+02  0.51100000000E-03 0. -1.
        -11    1    3    3    0    0  0.51953461516E-01  0.15109170718E+02  0.17020579657E+02  0.22759390832E+02  0.51100000000E-03 0.  1.
         12    1    3    3    0    0 -0.12393572679E+02 -0.21891080570E+01  0.13861439753E+02  0.18722509177E+02  0.00000000000E+00 0. -1.
</event>
<event>
 7    1  0.5987893E-013  0.5930195E+02  0.7816164E-02  0.1266605E+00
        -11   -1    0    0    0    0  0.00000000000E+00  0.00000000000E+00  0.45593999997E+02  0.45594000000E+02  0.51100000000E-03 0.  1.
         11   -1    0    0    0    0 -0.00000000000E+00 -0.00000000000E+00 -0.45593999997E+02  0.45594000000E+02  0.51100000000E-03 0. -1.
    9900012    2    1    2    0    0  0.18717531393E+02 -0.23950531811E+02  0.96304706430E+01  0.59301954144E+02  0.50000018450E+02 0.  0.
        -12    1    1    2    0    0 -0.18717531393E+02  0.23950531811E+02 -0.96304706430E+01  0.31886045856E+02  0.00000000000E+00 0.  1.
         11    1    3    3    0    0  0.42701321797E+01 -0.15103848764E+02 -0.64765311328E+00  0.15709224397E+02  0.51100000000E-03 0. -1.
        -11    1    3    3    0    0 -0.50295657952E+01  0.22500475507E+01  0.18815542114E+02  0.19605710172E+02  0.51100000000E-03 0.  1.
        -12    1    3    3    0    0  0.19476965009E+02 -0.11096730598E+02 -0.85374183574E+01  0.23987019576E+02  0.00000000000E+00 0.  1.
</event>
<event>
 7    1  0.5987893E-013  0.5930195E+02  0.7816164E-02  0.1266605E+00
        -11   -1    0    0    0    0  0.00000000000E+00  0.00000000000E+00  0.45593999997E+02  0.45594000000E+02  0.51100000000E-03 0. -1.
         11   -1    0    0    0    0 -0.00000000000E+00 -0.00000000000E+00 -0.45593999997E+02  0.45594000000E+02  0.51100000000E-03 0.  1.
    9900012    2    1    2    0    0  0.51356637554E+01 -0.14436607726E+02  0.27962997710E+02  0.59301954058E+02  0.50000018294E+02 0.  0.
        -12    1    1    2    0    0 -0.51356637554E+01  0.14436607726E+02 -0.27962997710E+02  0.31886045942E+02  0.00000000000E+00 0.  1.
         11    1    3    3    0    0  0.22931979630E+02 -0.28106405387E+01  0.67195322301E+01  0.24060912361E+02  0.51100000000E-03 0. -1.
        -11    1    3    3    0    0 -0.87935842199E+01  0.18907322965E+01  0.65518197211E+00  0.90183843191E+01  0.51100000000E-03 0.  1.
         12    1    3    3    0    0 -0.90027316546E+01 -0.13516699484E+02  0.20588283508E+02  0.26222657379E+02  0.00000000000E+00 0. -1.
</event>
<event>
 7    1  0.5987893E-013  0.5930193E+02  0.7816164E-02  0.1266605E+00
        -11   -1    0    0    0    0  0.00000000000E+00  0.00000000000E+00  0.45593999997E+02  0.45594000000E+02  0.51100000000E-03 0.  1.
         11   -1    0    0    0    0 -0.00000000000E+00 -0.00000000000E+00 -0.45593999997E+02  0.45594000000E+02  0.51100000000E-03 0. -1.
    9900012    2    1    2    0    0  0.25504971304E+02 -0.40505132559E+00 -0.19132525139E+02  0.59301934924E+02  0.49999983398E+02 0.  0.
        -12    1    1    2    0    0 -0.25504971304E+02  0.40505132559E+00  0.19132525139E+02  0.31886065076E+02  0.00000000000E+00 0.  1.
         11    1    3    3    0    0  0.60553378273E+01  0.87637010842E+01 -0.26435249739E+02  0.28500736867E+02  0.51100000000E-03 0. -1.
        -11    1    3    3    0    0  0.22726686676E+02 -0.10830500277E+02  0.33381057054E+01  0.25395766842E+02  0.51100000000E-03 0.  1.
        -12    1    3    3    0    0 -0.32770531994E+01  0.16617478668E+01  0.39646188953E+01  0.54054312158E+01  0.00000000000E+00 0.  1.
</event>
<event>
 7    1  0.5987893E-013  0.5930193E+02  0.7816164E-02  0.1266605E+00
        -11   -1    0    0    0    0  0.00000000000E+00  0.00000000000E+00  0.45593999997E+02  0.45594000000E+02  0.51100000000E-03 0.  1.
         11   -1    0    0    0    0 -0.00000000000E+00 -0.00000000000E+00 -0.45593999997E+02  0.45594000000E+02  0.51100000000E-03 0. -1.
    9900012    2    1    2    0    0  0.50248393051E+01  0.48286700366E-02 -0.31487650567E+02  0.59301934523E+02  0.49999982666E+02 0.  0.
        -12    1    1    2    0    0 -0.50248393051E+01 -0.48286700366E-02  0.31487650567E+02  0.31886065477E+02  0.00000000000E+00 0.  1.
         11    1    3    3    0    0  0.64886439181E+01 -0.77099213698E-01 -0.10066159313E+02  0.11976477268E+02  0.51100000000E-03 0. -1.
        -11    1    3    3    0    0 -0.18477994640E+02  0.10504041958E+02 -0.16132410280E+02  0.26683812417E+02  0.51100000000E-03 0.  1.
        -12    1    3    3    0    0  0.17014190027E+02 -0.10422114074E+02 -0.52890809737E+01  0.20641644838E+02  0.00000000000E+00 0.  1.
</event>
<event>
 7    1  0.5987893E-013  0.5930195E+02  0.7816164E-02  0.1266605E+00
        -11   -1    0    0    0    0  0.00000000000E+00  0.00000000000E+00  0.45593999997E+02  0.45594000000E+02  0.51100000000E-03 0.  1.
         11   -1    0    0    0    0 -0.00000000000E+00 -0.00000000000E+00 -0.45593999997E+02  0.45594000000E+02  0.51100000000E-03 0. -1.
    9900012    2    1    2    0    0  0.10846398442E+02 -0.14820514875E+02 -0.26065845188E+02  0.59301948101E+02  0.50000007429E+02 0.  0.
        -12    1    1    2    0    0 -0.10846398442E+02  0.14820514875E+02  0.26065845188E+02  0.31886051899E+02  0.00000000000E+00 0.  1.
         11    1    3    3    0    0  0.28513510904E+01 -0.14912108359E+02 -0.32716708847E+02  0.36067772551E+02  0.51100000000E-03 0. -1.
        -11    1    3    3    0    0  0.13785443851E+02 -0.11921124242E+01  0.93685825977E+01  0.16710174576E+02  0.51100000000E-03 0.  1.
         12    1    3    3    0    0 -0.57903964997E+01  0.12837059080E+01 -0.27177189383E+01  0.65240009740E+01  0.00000000000E+00 0. -1.
</event>
<event>
 7    1  0.5987893E-013  0.5930181E+02  0.7816164E-02  0.1266605E+00
        -11   -1    0    0    0    0  0.00000000000E+00  0.00000000000E+00  0.45593999997E+02  0.45594000000E+02  0.51100000000E-03 0.  1.
         11   -1    0    0    0    0 -0.00000000000E+00 -0.00000000000E+00 -0.45593999997E+02  0.45594000000E+02  0.51100000000E-03 0. -1.
    9900012    2    1    2    0    0  0.13144028645E+02 -0.12495244737E+02 -0.26226563787E+02  0.59301807407E+02  0.49999750835E+02 0.  0.
        -12    1    1    2    0    0 -0.13144028645E+02  0.12495244737E+02  0.26226563787E+02  0.31886192593E+02  0.00000000000E+00 0.  1.
         11    1    3    3    0    0  0.24107011666E+02 -0.54221988152E+01 -0.70885439496E+01  0.25705946920E+02  0.51100000000E-03 0. -1.
        -11    1    3    3    0    0 -0.15395309990E+02  0.18171450439E-01 -0.33883481121E+01  0.15763781370E+02  0.51100000000E-03 0.  1.
        -12    1    3    3    0    0  0.44323269690E+01 -0.70912173718E+01 -0.15749671725E+02  0.17832079117E+02  0.00000000000E+00 0.  1.
</event>
<event>
 7    1  0.5987893E-013  0.5930186E+02  0.7816164E-02  0.1266605E+00
        -11   -1    0    0    0    0  0.00000000000E+00  0.00000000000E+00  0.45593999997E+02  0.45594000000E+02  0.51100000000E-03 0.  1.
         11   -1    0    0    0    0 -0.00000000000E+00 -0.00000000000E+00 -0.45593999997E+02  0.45594000000E+02  0.51100000000E-03 0. -1.
    9900012    2    1    2    0    0  0.14461820153E+02  0.26473762205E+02 -0.10330627947E+02  0.59301855655E+02  0.49999838829E+02 0.  0.
        -12    1    1    2    0    0 -0.14461820153E+02 -0.26473762205E+02  0.10330627947E+02  0.31886144345E+02  0.00000000000E+00 0.  1.
         11    1    3    3    0    0 -0.55169814011E+01 -0.29959466552E+01 -0.25862355086E+00  0.62832846938E+01  0.51100000000E-03 0. -1.
        -11    1    3    3    0    0  0.14690071445E+02  0.38458436791E+02 -0.51604360616E+01  0.41490717758E+02  0.51100000000E-03 0.  1.
        -12    1    3    3    0    0  0.52887301092E+01 -0.89887279305E+01 -0.49115683346E+01  0.11527853204E+02  0.00000000000E+00 0.  1.
</event>
<event>
 7    1  0.5987893E-013  0.5930190E+02  0.7816164E-02  0.1266605E+00
        -11   -1    0    0    0    0  0.00000000000E+00  0.00000000000E+00  0.45593999997E+02  0.45594000000E+02  0.51100000000E-03 0.  1.
         11   -1    0    0    0    0 -0.00000000000E+00 -0.00000000000E+00 -0.45593999997E+02  0.45594000000E+02  0.51100000000E-03 0. -1.
    9900012    2    1    2    0    0 -0.25303379020E+02 -0.18704515765E+02 -0.51578765232E+01  0.59301896599E+02  0.49999913502E+02 0.  0.
        -12    1    1    2    0    0  0.25303379020E+02  0.18704515765E+02  0.51578765232E+01  0.31886103401E+02  0.00000000000E+00 0.  1.
         11    1    3    3    0    0 -0.96754547457E+01 -0.26221491608E+02 -0.19476418052E+02  0.34066286958E+02  0.51100000000E-03 0. -1.
        -11    1    3    3    0    0 -0.84523516876E+01  0.87133644602E+01  0.13099582319E+02  0.17859564005E+02  0.51100000000E-03 0.  1.
        -12    1    3    3    0    0 -0.71755725868E+01 -0.11963886176E+01  0.12189592101E+01  0.73760456363E+01  0.00000000000E+00 0.  1.
</event>
<event>
 7    1  0.5987893E-013  0.5930195E+02  0.7816164E-02  0.1266605E+00
        -11   -1    0    0    0    0  0.00000000000E+00  0.00000000000E+00  0.45593999997E+02  0.45594000000E+02  0.51100000000E-03 0.  1.
         11   -1    0    0    0    0 -0.00000000000E+00 -0.00000000000E+00 -0.45593999997E+02  0.45594000000E+02  0.51100000000E-03 0. -1.
    9900012    2    1    2    0    0 -0.16524056697E+02 -0.25440636738E+02  0.98208872454E+01  0.59301948604E+02  0.50000008346E+02 0.  0.
        -12    1    1    2    0    0  0.16524056697E+02  0.25440636738E+02 -0.98208872454E+01  0.31886051396E+02  0.00000000000E+00 0.  1.
         11    1    3    3    0    0  0.13267415289E+02 -0.27866585280E+01  0.78626066201E+01  0.15671960864E+02  0.51100000000E-03 0. -1.
        -11    1    3    3    0    0 -0.24254774093E+02 -0.14752337331E+02  0.10963299388E+02  0.30432210843E+02  0.51100000000E-03 0.  1.
         12    1    3    3    0    0 -0.55366978920E+01 -0.79016408784E+01 -0.90050187627E+01  0.13197776897E+02  0.00000000000E+00 0. -1.
</event>
<event>
 7    1  0.5987893E-013  0.5930194E+02  0.7816164E-02  0.1266605E+00
        -11   -1    0    0    0    0  0.00000000000E+00  0.00000000000E+00  0.45593999997E+02  0.45594000000E+02  0.51100000000E-03 0. -1.
         11   -1    0    0    0    0 -0.00000000000E+00 -0.00000000000E+00 -0.45593999997E+02  0.45594000000E+02  0.51100000000E-03 0.  1.
    9900012    2    1    2    0    0  0.31358789323E+02  0.50729831132E+01 -0.27589661373E+01  0.59301941611E+02  0.49999995592E+02 0.  0.
        -12    1    1    2    0    0 -0.31358789323E+02 -0.50729831132E+01  0.27589661373E+01  0.31886058389E+02  0.00000000000E+00 0.  1.
         11    1    3    3    0    0  0.26001362866E+02 -0.11926434042E+02 -0.53003825026E+01  0.29093036190E+02  0.51100000000E-03 0. -1.
        -11    1    3    3    0    0 -0.82837791585E+01  0.10192625910E+02 -0.38368160756E+01  0.13683266348E+02  0.51100000000E-03 0.  1.
         12    1    3    3    0    0  0.13641205616E+02  0.68067912451E+01  0.63782324408E+01  0.16525639073E+02  0.00000000000E+00 0. -1.
</event>
<event>
 7    1  0.5987893E-013  0.5930194E+02  0.7816164E-02  0.1266605E+00
        -11   -1    0    0    0    0  0.00000000000E+00  0.00000000000E+00  0.45593999997E+02  0.45594000000E+02  0.51100000000E-03 0. -1.
         11   -1    0    0    0    0 -0.00000000000E+00 -0.00000000000E+00 -0.45593999997E+02  0.45594000000E+02  0.51100000000E-03 0.  1.
    9900012    2    1    2    0    0 -0.94025068722E+00  0.12447924881E+02  0.29340858438E+02  0.59301939110E+02  0.49999991032E+02 0.  0.
        -12    1    1    2    0    0  0.94025068722E+00 -0.12447924881E+02 -0.29340858438E+02  0.31886060890E+02  0.00000000000E+00 0.  1.
         11    1    3    3    0    0  0.10847910523E+02  0.10830921719E+02  0.17244230223E+01  0.15425941235E+02  0.51100000000E-03 0. -1.
        -11    1    3    3    0    0 -0.11064230975E+02  0.11627587939E+02  0.29575293594E+02  0.33649903414E+02  0.51100000000E-03 0.  1.
        -12    1    3    3    0    0 -0.72393023491E+00 -0.10010584777E+02 -0.19588581786E+01  0.10226094461E+02  0.00000000000E+00 0.  1.
</event>
<event>
 7    1  0.5987893E-013  0.5930198E+02  0.7816164E-02  0.1266605E+00
        -11   -1    0    0    0    0  0.00000000000E+00  0.00000000000E+00  0.45593999997E+02  0.45594000000E+02  0.51100000000E-03 0. -1.
         11   -1    0    0    0    0 -0.00000000000E+00 -0.00000000000E+00 -0.45593999997E+02  0.45594000000E+02  0.51100000000E-03 0.  1.
    9900012    2    1    2    0    0 -0.95414982851E+01  0.50008005104E+01  0.30011162431E+02  0.59301983225E+02  0.50000071487E+02 0.  0.
        -12    1    1    2    0    0  0.95414982851E+01 -0.50008005104E+01 -0.30011162431E+02  0.31886016775E+02  0.00000000000E+00 0.  1.
         11    1    3    3    0    0 -0.17274011748E+02  0.21093105941E+02  0.11993483740E+02  0.29785134759E+02  0.51100000000E-03 0.  1.
        -11    1    3    3    0    0  0.27278297653E+01 -0.93024595440E+01  0.79534070040E-01  0.96944899157E+01  0.51100000000E-03 0. -1.
         12    1    3    3    0    0  0.50046836978E+01 -0.67898458865E+01  0.17938144621E+02  0.19822358551E+02  0.00000000000E+00 0. -1.
</event>
<event>
 7    1  0.5987893E-013  0.5930192E+02  0.7816164E-02  0.1266605E+00
        -11   -1    0    0    0    0  0.00000000000E+00  0.00000000000E+00  0.45593999997E+02  0.45594000000E+02  0.51100000000E-03 0.  1.
         11   -1    0    0    0    0 -0.00000000000E+00 -0.00000000000E+00 -0.45593999997E+02  0.45594000000E+02  0.51100000000E-03 0. -1.
    9900012    2    1    2    0    0 -0.23640735822E+02 -0.20230383959E+02 -0.69691726543E+01  0.59301918510E+02  0.49999953461E+02 0.  0.
        -12    1    1    2    0    0  0.23640735822E+02  0.20230383959E+02  0.69691726543E+01  0.31886081490E+02  0.00000000000E+00 0.  1.
         11    1    3    3    0    0 -0.16046620591E+01 -0.32272455193E+01 -0.12190435146E+02  0.12712071557E+02  0.51100000000E-03 0. -1.
        -11    1    3    3    0    0  0.24411958502E+01 -0.14254920294E+02  0.14300424876E+02  0.20338739923E+02  0.51100000000E-03 0.  1.
        -12    1    3    3    0    0 -0.24477269613E+02 -0.27482181457E+01 -0.90791623845E+01  0.26251107030E+02  0.00000000000E+00 0.  1.
</event>
<event>
 7    1  0.5987893E-013  0.5930194E+02  0.7816164E-02  0.1266605E+00
        -11   -1    0    0    0    0  0.00000000000E+00  0.00000000000E+00  0.45593999997E+02  0.45594000000E+02  0.51100000000E-03 0.  1.
         11   -1    0    0    0    0 -0.00000000000E+00 -0.00000000000E+00 -0.45593999997E+02  0.45594000000E+02  0.51100000000E-03 0. -1.
    9900012    2    1    2    0    0 -0.27144694357E+02  0.15752627314E+02 -0.56339020694E+01  0.59301944246E+02  0.50000000398E+02 0.  0.
        -12    1    1    2    0    0  0.27144694357E+02 -0.15752627314E+02  0.56339020694E+01  0.31886055754E+02  0.00000000000E+00 0.  1.
         11    1    3    3    0    0 -0.62516524170E+01  0.17936216919E+02  0.62391960593E+01  0.19992963839E+02  0.51100000000E-03 0. -1.
        -11    1    3    3    0    0 -0.12832071416E+02  0.44554812775E+01 -0.21285314123E+02  0.25250306292E+02  0.51100000000E-03 0.  1.
        -12    1    3    3    0    0 -0.80609705235E+01 -0.66390708827E+01  0.94122159946E+01  0.14058674116E+02  0.00000000000E+00 0.  1.
</event>
<event>
 7    1  0.5987893E-013  0.5930171E+02  0.7816164E-02  0.1266606E+00
        -11   -1    0    0    0    0  0.00000000000E+00  0.00000000000E+00  0.45593999997E+02  0.45594000000E+02  0.51100000000E-03 0. -1.
         11   -1    0    0    0    0 -0.00000000000E+00 -0.00000000000E+00 -0.45593999997E+02  0.45594000000E+02  0.51100000000E-03 0.  1.
    9900012    2    1    2    0    0  0.34993161462E+01  0.20952019405E+02  0.23780303801E+02  0.59301714868E+02  0.49999582066E+02 0.  0.
        -12    1    1    2    0    0 -0.34993161462E+01 -0.20952019405E+02 -0.23780303801E+02  0.31886285132E+02  0.00000000000E+00 0.  1.
         11    1    3    3    0    0 -0.17832204571E+02  0.10701917565E+02  0.22502632209E+01  0.20918466585E+02  0.51100000000E-03 0. -1.
        -11    1    3    3    0    0  0.18857087540E+02  0.84667623206E+01  0.25847950384E+02  0.33096712133E+02  0.51100000000E-03 0.  1.
         12    1    3    3    0    0  0.24744331773E+01  0.17833395196E+01 -0.43179098042E+01  0.52865361503E+01  0.00000000000E+00 0. -1.
</event>
<event>
 7    1  0.5987893E-013  0.5930195E+02  0.7816164E-02  0.1266605E+00
        -11   -1    0    0    0    0  0.00000000000E+00  0.00000000000E+00  0.45593999997E+02  0.45594000000E+02  0.51100000000E-03 0. -1.
         11   -1    0    0    0    0 -0.00000000000E+00 -0.00000000000E+00 -0.45593999997E+02  0.45594000000E+02  0.51100000000E-03 0.  1.
    9900012    2    1    2    0    0  0.88125953156E+00 -0.38761389485E+01  0.31637307553E+02  0.59301948179E+02  0.50000007571E+02 0.  0.
        -12    1    1    2    0    0 -0.88125953156E+00  0.38761389485E+01 -0.31637307553E+02  0.31886051821E+02  0.00000000000E+00 0.  1.
         11    1    3    3    0    0  0.12137321014E+02  0.92987147574E+01  0.65635111533E+01  0.16639120664E+02  0.51100000000E-03 0. -1.
        -11    1    3    3    0    0 -0.14029195833E+02 -0.19820594312E+02  0.10598647562E+02  0.26495388750E+02  0.51100000000E-03 0.  1.
        -12    1    3    3    0    0  0.27731343507E+01  0.66457406063E+01  0.14475148838E+02  0.16167438765E+02  0.00000000000E+00 0.  1.
</event>
<event>
 7    1  0.5987893E-013  0.5930160E+02  0.7816164E-02  0.1266606E+00
        -11   -1    0    0    0    0  0.00000000000E+00  0.00000000000E+00  0.45593999997E+02  0.45594000000E+02  0.51100000000E-03 0.  1.
         11   -1    0    0    0    0 -0.00000000000E+00 -0.00000000000E+00 -0.45593999997E+02  0.45594000000E+02  0.51100000000E-03 0. -1.
    9900012    2    1    2    0    0 -0.23758345009E+01 -0.32395761558E+01 -0.31632312269E+02  0.59301598153E+02  0.49999369203E+02 0.  0.
        -12    1    1    2    0    0  0.23758345009E+01  0.32395761558E+01  0.31632312269E+02  0.31886401847E+02  0.00000000000E+00 0.  1.
         11    1    3    3    0    0 -0.76569154772E+01  0.38968738447E+01 -0.36628081590E+02  0.37622205432E+02  0.51100000000E-03 0. -1.
        -11    1    3    3    0    0 -0.71788449851E+01 -0.13440125262E+01  0.24607565129E+01  0.77069778686E+01  0.51100000000E-03 0.  1.
         12    1    3    3    0    0  0.12459925961E+02 -0.57924374743E+01  0.25350128076E+01  0.13972414852E+02  0.00000000000E+00 0. -1.
</event>
<event>
 7    1  0.5987893E-013  0.5930227E+02  0.7816164E-02  0.1266604E+00
        -11   -1    0    0    0    0  0.00000000000E+00  0.00000000000E+00  0.45593999997E+02  0.45594000000E+02  0.51100000000E-03 0.  1.
         11   -1    0    0    0    0 -0.00000000000E+00 -0.00000000000E+00 -0.45593999997E+02  0.45594000000E+02  0.51100000000E-03 0. -1.
    9900012    2    1    2    0    0 -0.20957732889E+02 -0.23535079831E+02  0.48552392074E+01  0.59302268109E+02  0.50000591042E+02 0.  0.
        -12    1    1    2    0    0  0.20957732889E+02  0.23535079831E+02 -0.48552392074E+01  0.31885731891E+02  0.00000000000E+00 0.  1.
         11    1    3    3    0    0  0.36815296596E+00 -0.12066802984E+02 -0.94957555913E+01  0.15359448081E+02  0.51100000000E-03 0. -1.
        -11    1    3    3    0    0 -0.14859496060E+02 -0.21523989559E+02  0.17634631268E+02  0.31544682118E+02  0.51100000000E-03 0.  1.
        -12    1    3    3    0    0 -0.64663897955E+01  0.10055712713E+02 -0.32836364697E+01  0.12398137909E+02  0.00000000000E+00 0.  1.
</event>
<event>
 7    1  0.5987893E-013  0.5930196E+02  0.7816164E-02  0.1266605E+00
        -11   -1    0    0    0    0  0.00000000000E+00  0.00000000000E+00  0.45593999997E+02  0.45594000000E+02  0.51100000000E-03 0.  1.
         11   -1    0    0    0    0 -0.00000000000E+00 -0.00000000000E+00 -0.45593999997E+02  0.45594000000E+02  0.51100000000E-03 0. -1.
    9900012    2    1    2    0    0 -0.29293460411E+02  0.11404707276E+02 -0.53428047377E+01  0.59301957076E+02  0.50000023796E+02 0.  0.
        -12    1    1    2    0    0  0.29293460411E+02 -0.11404707276E+02  0.53428047377E+01  0.31886042924E+02  0.00000000000E+00 0.  1.
         11    1    3    3    0    0  0.19712803141E+01  0.80726775410E+01 -0.18716188163E+02  0.20478031360E+02  0.51100000000E-03 0. -1.
        -11    1    3    3    0    0 -0.29809563824E+02  0.47645718419E+01  0.54934294828E+01  0.30683692867E+02  0.51100000000E-03 0.  1.
        -12    1    3    3    0    0 -0.14551769012E+01 -0.14325421071E+01  0.78799539423E+01  0.81402328489E+01  0.00000000000E+00 0.  1.
</event>
<event>
 7    1  0.5987893E-013  0.5930196E+02  0.7816164E-02  0.1266605E+00
        -11   -1    0    0    0    0  0.00000000000E+00  0.00000000000E+00  0.45593999997E+02  0.45594000000E+02  0.51100000000E-03 0. -1.
         11   -1    0    0    0    0 -0.00000000000E+00 -0.00000000000E+00 -0.45593999997E+02  0.45594000000E+02  0.51100000000E-03 0.  1.
    9900012    2    1    2    0    0  0.28220389743E+01  0.27982815951E+02  0.15023898358E+02  0.59301962078E+02  0.50000032919E+02 0.  0.
        -12    1    1    2    0    0 -0.28220389743E+01 -0.27982815951E+02 -0.15023898358E+02  0.31886037922E+02  0.00000000000E+00 0.  1.
         11    1    3    3    0    0  0.23223021353E+01 -0.11993259843E+02  0.11181456242E+02  0.16560686363E+02  0.51100000000E-03 0. -1.
        -11    1    3    3    0    0 -0.21602427954E+01  0.48033167011E+01 -0.39917975492E+01  0.66085511424E+01  0.51100000000E-03 0.  1.
         12    1    3    3    0    0  0.26599796344E+01  0.35172759093E+02  0.78342396650E+01  0.36132724572E+02  0.00000000000E+00 0. -1.
</event>
<event>
 7    1  0.5987893E-013  0.5930199E+02  0.7816164E-02  0.1266605E+00
        -11   -1    0    0    0    0  0.00000000000E+00  0.00000000000E+00  0.45593999997E+02  0.45594000000E+02  0.51100000000E-03 0. -1.
         11   -1    0    0    0    0 -0.00000000000E+00 -0.00000000000E+00 -0.45593999997E+02  0.45594000000E+02  0.51100000000E-03 0.  1.
    9900012    2    1    2    0    0  0.16396779530E+02 -0.21412420056E+02  0.17010918662E+02  0.59301992640E+02  0.50000088657E+02 0.  0.
        -12    1    1    2    0    0 -0.16396779530E+02  0.21412420056E+02 -0.17010918662E+02  0.31886007360E+02  0.00000000000E+00 0.  1.
         11    1    3    3    0    0  0.38117180782E+01 -0.66369721089E+01  0.25456033994E+02  0.26581727943E+02  0.51100000000E-03 0. -1.
        -11    1    3    3    0    0  0.15628407980E+02  0.73389286446E+00 -0.25528504211E+01  0.15852532298E+02  0.51100000000E-03 0.  1.
         12    1    3    3    0    0 -0.30433465286E+01 -0.15509340812E+02 -0.58922649103E+01  0.16867732399E+02  0.00000000000E+00 0. -1.
</event>
<event>
 7    1  0.5987893E-013  0.5930194E+02  0.7816164E-02  0.1266605E+00
        -11   -1    0    0    0    0  0.00000000000E+00  0.00000000000E+00  0.45593999997E+02  0.45594000000E+02  0.51100000000E-03 0.  1.
         11   -1    0    0    0    0 -0.00000000000E+00 -0.00000000000E+00 -0.45593999997E+02  0.45594000000E+02  0.51100000000E-03 0. -1.
    9900012    2    1    2    0    0 -0.22071451405E+02  0.51333865098E+01 -0.22432568619E+02  0.59301940993E+02  0.49999994465E+02 0.  0.
        -12    1    1    2    0    0  0.22071451405E+02 -0.51333865098E+01  0.22432568619E+02  0.31886059007E+02  0.00000000000E+00 0.  1.
         11    1    3    3    0    0 -0.19559265959E+02 -0.11665774571E+02 -0.22500793329E+02  0.32014697904E+02  0.51100000000E-03 0. -1.
        -11    1    3    3    0    0 -0.63506789830E+01  0.19380768498E+02  0.44953212980E+01  0.20884281768E+02  0.51100000000E-03 0.  1.
        -12    1    3    3    0    0  0.38384935364E+01 -0.25816074171E+01 -0.44270965879E+01  0.64029613214E+01  0.00000000000E+00 0.  1.
</event>
<event>
 7    1  0.5987893E-013  0.5930191E+02  0.7816164E-02  0.1266605E+00
        -11   -1    0    0    0    0  0.00000000000E+00  0.00000000000E+00  0.45593999997E+02  0.45594000000E+02  0.51100000000E-03 0.  1.
         11   -1    0    0    0    0 -0.00000000000E+00 -0.00000000000E+00 -0.45593999997E+02  0.45594000000E+02  0.51100000000E-03 0. -1.
    9900012    2    1    2    0    0 -0.11996668679E+02 -0.27060332269E+02 -0.11855007842E+02  0.59301908160E+02  0.49999934585E+02 0.  0.
        -12    1    1    2    0    0  0.11996668679E+02  0.27060332269E+02  0.11855007842E+02  0.31886091840E+02  0.00000000000E+00 0.  1.
         11    1    3    3    0    0 -0.16064765305E+02 -0.28341888323E+02 -0.23173290839E+01  0.32660516414E+02  0.51100000000E-03 0. -1.
        -11    1    3    3    0    0  0.12290009774E+02 -0.61943591780E+01 -0.52163297643E+01  0.14718169803E+02  0.51100000000E-03 0.  1.
         12    1    3    3    0    0 -0.82219131480E+01  0.74759152323E+01 -0.43213489940E+01  0.11923221943E+02  0.00000000000E+00 0. -1.
</event>
<event>
 7    1  0.5987893E-013  0.5930195E+02  0.7816164E-02  0.1266605E+00
        -11   -1    0    0    0    0  0.00000000000E+00  0.00000000000E+00  0.45593999997E+02  0.45594000000E+02  0.51100000000E-03 0.  1.
         11   -1    0    0    0    0 -0.00000000000E+00 -0.00000000000E+00 -0.45593999997E+02  0.45594000000E+02  0.51100000000E-03 0. -1.
    9900012    2    1    2    0    0 -0.28895896438E+02 -0.27244670293E+01 -0.13203209555E+02  0.59301948284E+02  0.50000007762E+02 0.  0.
        -12    1    1    2    0    0  0.28895896438E+02  0.27244670293E+01  0.13203209555E+02  0.31886051716E+02  0.00000000000E+00 0.  1.
         11    1    3    3    0    0 -0.24919775587E+02 -0.12715669408E+02  0.27288236774E+01  0.28109250127E+02  0.51100000000E-03 0. -1.
        -11    1    3    3    0    0  0.94596992891E+01  0.29299952992E+01 -0.11912333061E+02  0.15491109137E+02  0.51100000000E-03 0.  1.
         12    1    3    3    0    0 -0.13435820140E+02  0.70612070797E+01 -0.40197001711E+01  0.15701589019E+02  0.00000000000E+00 0. -1.
</event>
<event>
 7    1  0.5987893E-013  0.5930195E+02  0.7816164E-02  0.1266605E+00
        -11   -1    0    0    0    0  0.00000000000E+00  0.00000000000E+00  0.45593999997E+02  0.45594000000E+02  0.51100000000E-03 0.  1.
         11   -1    0    0    0    0 -0.00000000000E+00 -0.00000000000E+00 -0.45593999997E+02  0.45594000000E+02  0.51100000000E-03 0. -1.
    9900012    2    1    2    0    0 -0.18336003720E+02 -0.46880699962E+01 -0.25661901603E+02  0.59301949342E+02  0.50000009692E+02 0.  0.
        -12    1    1    2    0    0  0.18336003720E+02  0.46880699962E+01  0.25661901603E+02  0.31886050658E+02  0.00000000000E+00 0.  1.
         11    1    3    3    0    0 -0.22212078576E+02  0.30202803721E+01 -0.16324545967E+02  0.27730656853E+02  0.51100000000E-03 0. -1.
        -11    1    3    3    0    0  0.69137673580E+01 -0.11976546899E+02  0.62142823897E+01  0.15160974922E+02  0.51100000000E-03 0.  1.
        -12    1    3    3    0    0 -0.30376925012E+01  0.42681965311E+01 -0.15551638026E+02  0.16410317567E+02  0.00000000000E+00 0.  1.
</event>
<event>
 7    1  0.5987893E-013  0.5930192E+02  0.7816164E-02  0.1266605E+00
        -11   -1    0    0    0    0  0.00000000000E+00  0.00000000000E+00  0.45593999997E+02  0.45594000000E+02  0.51100000000E-03 0. -1.
         11   -1    0    0    0    0 -0.00000000000E+00 -0.00000000000E+00 -0.45593999997E+02  0.45594000000E+02  0.51100000000E-03 0.  1.
    9900012    2    1    2    0    0 -0.20415110272E+02  0.34406600880E+01  0.24250917841E+02  0.59301923331E+02  0.49999962254E+02 0.  0.
        -12    1    1    2    0    0  0.20415110272E+02 -0.34406600880E+01 -0.24250917841E+02  0.31886076669E+02  0.00000000000E+00 0.  1.
         11    1    3    3    0    0 -0.19352478146E+02  0.20086214220E+02  0.97542591226E+01  0.29548603747E+02  0.51100000000E-03 0. -1.
        -11    1    3    3    0    0 -0.99253189031E+01 -0.77952599726E+01  0.11020317874E+02  0.16754863165E+02  0.51100000000E-03 0.  1.
         12    1    3    3    0    0  0.88626867777E+01 -0.88502941590E+01  0.34763408442E+01  0.12998456419E+02  0.00000000000E+00 0. -1.
</event>
<event>
 7    1  0.5987893E-013  0.5930193E+02  0.7816164E-02  0.1266605E+00
        -11   -1    0    0    0    0  0.00000000000E+00  0.00000000000E+00  0.45593999997E+02  0.45594000000E+02  0.51100000000E-03 0.  1.
         11   -1    0    0    0    0 -0.00000000000E+00 -0.00000000000E+00 -0.45593999997E+02  0.45594000000E+02  0.51100000000E-03 0. -1.
    9900012    2    1    2    0    0  0.77304432633E+01 -0.73404044724E+01 -0.30051290193E+02  0.59301931991E+02  0.49999978047E+02 0.  0.
        -12    1    1    2    0    0 -0.77304432633E+01  0.73404044724E+01  0.30051290193E+02  0.31886068009E+02  0.00000000000E+00 0.  1.
         11    1    3    3    0    0 -0.11179044612E-01 -0.89832339318E+01 -0.77633281431E+01  0.11872989555E+02  0.51100000000E-03 0. -1.
        -11    1    3    3    0    0 -0.31671324021E+01  0.19567912641E+02 -0.16142680525E+02  0.25564038562E+02  0.51100000000E-03 0.  1.
        -12    1    3    3    0    0  0.10908754710E+02 -0.17925083182E+02 -0.61452815242E+01  0.21864903874E+02  0.00000000000E+00 0.  1.
</event>
<event>
 7    1  0.5987893E-013  0.5930195E+02  0.7816164E-02  0.1266605E+00
        -11   -1    0    0    0    0  0.00000000000E+00  0.00000000000E+00  0.45593999997E+02  0.45594000000E+02  0.51100000000E-03 0.  1.
         11   -1    0    0    0    0 -0.00000000000E+00 -0.00000000000E+00 -0.45593999997E+02  0.45594000000E+02  0.51100000000E-03 0. -1.
    9900012    2    1    2    0    0  0.30411969180E+02  0.56048081551E+01 -0.77729295516E+01  0.59301950108E+02  0.50000011090E+02 0.  0.
        -12    1    1    2    0    0 -0.30411969180E+02 -0.56048081551E+01  0.77729295516E+01  0.31886049892E+02  0.00000000000E+00 0.  1.
         11    1    3    3    0    0  0.26289523004E+02  0.19410350697E+02 -0.16508173151E+02  0.36611753782E+02  0.51100000000E-03 0. -1.
        -11    1    3    3    0    0  0.75415344475E+01 -0.14115215021E+02  0.10178393003E+02  0.18966120354E+02  0.51100000000E-03 0.  1.
         12    1    3    3    0    0 -0.34190882710E+01  0.30967247838E+00 -0.14431494031E+01  0.37240759725E+01  0.00000000000E+00 0. -1.
</event>
<event>
 7    1  0.5987893E-013  0.5930196E+02  0.7816164E-02  0.1266605E+00
        -11   -1    0    0    0    0  0.00000000000E+00  0.00000000000E+00  0.45593999997E+02  0.45594000000E+02  0.51100000000E-03 0. -1.
         11   -1    0    0    0    0 -0.00000000000E+00 -0.00000000000E+00 -0.45593999997E+02  0.45594000000E+02  0.51100000000E-03 0.  1.
    9900012    2    1    2    0    0 -0.89990936201E+01  0.26256686546E+02  0.15694664244E+02  0.59301956657E+02  0.50000023032E+02 0.  0.
        -12    1    1    2    0    0  0.89990936201E+01 -0.26256686546E+02 -0.15694664244E+02  0.31886043343E+02  0.00000000000E+00 0.  1.
         11    1    3    3    0    0 -0.10039303636E+02  0.28125529662E+02 -0.15869056609E-01  0.29863577956E+02  0.51100000000E-03 0. -1.
        -11    1    3    3    0    0  0.65590890963E+01  0.40804139060E+01 -0.35774037739E+01  0.85128870214E+01  0.51100000000E-03 0.  1.
         12    1    3    3    0    0 -0.55188790805E+01 -0.59492570218E+01  0.19287937075E+02  0.20925491679E+02  0.00000000000E+00 0. -1.
</event>
<event>
 7    1  0.5987893E-013  0.5930197E+02  0.7816164E-02  0.1266605E+00
        -11   -1    0    0    0    0  0.00000000000E+00  0.00000000000E+00  0.45593999997E+02  0.45594000000E+02  0.51100000000E-03 0.  1.
         11   -1    0    0    0    0 -0.00000000000E+00 -0.00000000000E+00 -0.45593999997E+02  0.45594000000E+02  0.51100000000E-03 0. -1.
    9900012    2    1    2    0    0  0.19006389477E+02 -0.12193830177E+02  0.22511927759E+02  0.59301965020E+02  0.50000038285E+02 0.  0.
        -12    1    1    2    0    0 -0.19006389477E+02  0.12193830177E+02 -0.22511927759E+02  0.31886034980E+02  0.00000000000E+00 0.  1.
         11    1    3    3    0    0  0.24985131201E+02 -0.31858729737E+01  0.27795081000E+02  0.37509640038E+02  0.51100000000E-03 0. -1.
        -11    1    3    3    0    0 -0.38691296015E+01 -0.12800080300E+02  0.17928222786E+01  0.13491717146E+02  0.51100000000E-03 0.  1.
         12    1    3    3    0    0 -0.21096121226E+01  0.37921230960E+01 -0.70759755204E+01  0.83006078361E+01  0.00000000000E+00 0. -1.
</event>
<event>
 7    1  0.5987893E-013  0.5930196E+02  0.7816164E-02  0.1266605E+00
        -11   -1    0    0    0    0  0.00000000000E+00  0.00000000000E+00  0.45593999997E+02  0.45594000000E+02  0.51100000000E-03 0.  1.
         11   -1    0    0    0    0 -0.00000000000E+00 -0.00000000000E+00 -0.45593999997E+02  0.45594000000E+02  0.51100000000E-03 0. -1.
    9900012    2    1    2    0    0  0.20598110405E+02  0.23407511837E+02 -0.66727759586E+01  0.59301957573E+02  0.50000024703E+02 0.  0.
        -12    1    1    2    0    0 -0.20598110405E+02 -0.23407511837E+02  0.66727759586E+01  0.31886042427E+02  0.00000000000E+00 0.  1.
         11    1    3    3    0    0  0.20253824064E+01  0.12012530385E+02  0.33346452910E+01  0.12630238304E+02  0.51100000000E-03 0. -1.
        -11    1    3    3    0    0 -0.61051860779E+01 -0.48539644624E+01 -0.14808684921E+02  0.16737126916E+02  0.51100000000E-03 0.  1.
        -12    1    3    3    0    0  0.24677914077E+02  0.16248945914E+02  0.48012636713E+01  0.29934592353E+02  0.00000000000E+00 0.  1.
</event>
<event>
 7    1  0.5987893E-013  0.5930193E+02  0.7816164E-02  0.1266605E+00
        -11   -1    0    0    0    0  0.00000000000E+00  0.00000000000E+00  0.45593999997E+02  0.45594000000E+02  0.51100000000E-03 0. -1.
         11   -1    0    0    0    0 -0.00000000000E+00 -0.00000000000E+00 -0.45593999997E+02  0.45594000000E+02  0.51100000000E-03 0.  1.
    9900012    2    1    2    0    0 -0.42398893359E+01 -0.29794725807E+02 -0.10536553564E+02  0.59301932376E+02  0.49999978750E+02 0.  0.
        -12    1    1    2    0    0  0.42398893359E+01  0.29794725807E+02  0.10536553564E+02  0.31886067624E+02  0.00000000000E+00 0.  1.
         11    1    3    3    0    0 -0.20613861084E+01 -0.46095506702E+01  0.79758483732E+01  0.94398849358E+01  0.51100000000E-03 0. -1.
        -11    1    3    3    0    0  0.11746441679E+02  0.32848571163E+01 -0.12758908858E+02  0.17651032091E+02  0.51100000000E-03 0.  1.
        -12    1    3    3    0    0 -0.13924944907E+02 -0.28470032254E+02 -0.57534930797E+01  0.32211015349E+02  0.00000000000E+00 0.  1.
</event>
<event>
 7    1  0.5987893E-013  0.5930196E+02  0.7816164E-02  0.1266605E+00
        -11   -1    0    0    0    0  0.00000000000E+00  0.00000000000E+00  0.45593999997E+02  0.45594000000E+02  0.51100000000E-03 0.  1.
         11   -1    0    0    0    0 -0.00000000000E+00 -0.00000000000E+00 -0.45593999997E+02  0.45594000000E+02  0.51100000000E-03 0. -1.
    9900012    2    1    2    0    0  0.24010644473E+02 -0.12144428688E+02 -0.17109097617E+02  0.59301962030E+02  0.50000032832E+02 0.  0.
        -12    1    1    2    0    0 -0.24010644473E+02  0.12144428688E+02  0.17109097617E+02  0.31886037970E+02  0.00000000000E+00 0.  1.
         11    1    3    3    0    0  0.21849955904E+02 -0.34187697976E+01 -0.28198310146E+02  0.35836479392E+02  0.51100000000E-03 0. -1.
        -11    1    3    3    0    0 -0.48121438069E+01 -0.11962509878E+02  0.58282436100E+01  0.14150151746E+02  0.51100000000E-03 0.  1.
         12    1    3    3    0    0  0.69728323759E+01  0.32368509874E+01  0.52609689182E+01  0.93153308914E+01  0.00000000000E+00 0. -1.
</event>
<event>
 7    1  0.5987893E-013  0.5930198E+02  0.7816164E-02  0.1266605E+00
        -11   -1    0    0    0    0  0.00000000000E+00  0.00000000000E+00  0.45593999997E+02  0.45594000000E+02  0.51100000000E-03 0.  1.
         11   -1    0    0    0    0 -0.00000000000E+00 -0.00000000000E+00 -0.45593999997E+02  0.45594000000E+02  0.51100000000E-03 0. -1.
    9900012    2    1    2    0    0  0.15023771226E+01  0.12904360341E+02 -0.29119380996E+02  0.59301984218E+02  0.50000073298E+02 0.  0.
        -12    1    1    2    0    0 -0.15023771226E+01 -0.12904360341E+02  0.29119380996E+02  0.31886015782E+02  0.00000000000E+00 0.  1.
         11    1    3    3    0    0 -0.16236956910E+01  0.60168313610E+01 -0.39332432263E+02  0.39823094748E+02  0.51100000000E-03 0. -1.
        -11    1    3    3    0    0 -0.33979595398E+01  0.93673497509E+00  0.10046619064E+02  0.10646978742E+02  0.51100000000E-03 0.  1.
        -12    1    3    3    0    0  0.65240323534E+01  0.59507940046E+01  0.16643220219E+00  0.88319107283E+01  0.00000000000E+00 0.  1.
</event>
<event>
 7    1  0.5987893E-013  0.5930193E+02  0.7816164E-02  0.1266605E+00
        -11   -1    0    0    0    0  0.00000000000E+00  0.00000000000E+00  0.45593999997E+02  0.45594000000E+02  0.51100000000E-03 0. -1.
         11   -1    0    0    0    0 -0.00000000000E+00 -0.00000000000E+00 -0.45593999997E+02  0.45594000000E+02  0.51100000000E-03 0.  1.
    9900012    2    1    2    0    0 -0.95296227594E+01  0.27737965667E+02 -0.12510508557E+02  0.59301932923E+02  0.49999979747E+02 0.  0.
        -12    1    1    2    0    0  0.95296227594E+01 -0.27737965667E+02  0.12510508557E+02  0.31886067077E+02  0.00000000000E+00 0.  1.
         11    1    3    3    0    0 -0.11127657030E+01 -0.14038802447E+02 -0.35096368461E+01  0.14513572018E+02  0.51100000000E-03 0. -1.
        -11    1    3    3    0    0 -0.91372163389E+01  0.27102784437E+02 -0.24622101061E+01  0.28707353162E+02  0.51100000000E-03 0.  1.
         12    1    3    3    0    0  0.72035928253E+00  0.14673983677E+02 -0.65386616051E+01  0.16081007743E+02  0.00000000000E+00 0. -1.
</event>
<event>
 7    1  0.5987893E-013  0.5930195E+02  0.7816164E-02  0.1266605E+00
        -11   -1    0    0    0    0  0.00000000000E+00  0.00000000000E+00  0.45593999997E+02  0.45594000000E+02  0.51100000000E-03 0.  1.
         11   -1    0    0    0    0 -0.00000000000E+00 -0.00000000000E+00 -0.45593999997E+02  0.45594000000E+02  0.51100000000E-03 0. -1.
    9900012    2    1    2    0    0  0.24740483639E+02  0.60494189117E+01 -0.19184194556E+02  0.59301947867E+02  0.50000007002E+02 0.  0.
        -12    1    1    2    0    0 -0.24740483639E+02 -0.60494189117E+01  0.19184194556E+02  0.31886052133E+02  0.00000000000E+00 0.  1.
         11    1    3    3    0    0  0.50364599651E+01  0.21669404224E+02  0.15077277354E+01  0.22298032460E+02  0.51100000000E-03 0. -1.
        -11    1    3    3    0    0 -0.14184658774E+01 -0.45650440018E+01  0.87030122885E+00  0.48589192907E+01  0.51100000000E-03 0.  1.
         12    1    3    3    0    0  0.21122489551E+02 -0.11054941310E+02 -0.21562223520E+02  0.32144996117E+02  0.00000000000E+00 0. -1.
</event>
<event>
 7    1  0.5987893E-013  0.5930196E+02  0.7816164E-02  0.1266605E+00
        -11   -1    0    0    0    0  0.00000000000E+00  0.00000000000E+00  0.45593999997E+02  0.45594000000E+02  0.51100000000E-03 0. -1.
         11   -1    0    0    0    0 -0.00000000000E+00 -0.00000000000E+00 -0.45593999997E+02  0.45594000000E+02  0.51100000000E-03 0.  1.
    9900012    2    1    2    0    0 -0.97779574166E+00  0.50707560820E+01  0.31465070064E+02  0.59301964093E+02  0.50000036594E+02 0.  0.
        -12    1    1    2    0    0  0.97779574166E+00 -0.50707560820E+01 -0.31465070064E+02  0.31886035907E+02  0.00000000000E+00 0.  1.
         11    1    3    3    0    0 -0.36668383352E+01 -0.24640283884E+01  0.13433954698E+02  0.14141721196E+02  0.51100000000E-03 0. -1.
        -11    1    3    3    0    0 -0.66345573022E+01  0.10972335951E+02 -0.94560918051E+01  0.15931954661E+02  0.51100000000E-03 0.  1.
        -12    1    3    3    0    0  0.93235998958E+01 -0.34375514808E+01  0.27487207171E+02  0.29228288236E+02  0.00000000000E+00 0.  1.
</event>
<event>
 7    1  0.5987893E-013  0.5930191E+02  0.7816164E-02  0.1266605E+00
        -11   -1    0    0    0    0  0.00000000000E+00  0.00000000000E+00  0.45593999997E+02  0.45594000000E+02  0.51100000000E-03 0.  1.
         11   -1    0    0    0    0 -0.00000000000E+00 -0.00000000000E+00 -0.45593999997E+02  0.45594000000E+02  0.51100000000E-03 0. -1.
    9900012    2    1    2    0    0 -0.42239758801E+01  0.27267361713E+02 -0.15980351602E+02  0.59301911743E+02  0.49999941121E+02 0.  0.
        -12    1    1    2    0    0  0.42239758801E+01 -0.27267361713E+02  0.15980351602E+02  0.31886088257E+02  0.00000000000E+00 0.  1.
         11    1    3    3    0    0 -0.85369976449E+01  0.38432185665E+02 -0.14116958082E+02  0.41823459081E+02  0.51100000000E-03 0. -1.
        -11    1    3    3    0    0  0.61855359999E+01 -0.10177443503E+02  0.29070885445E+01  0.12259379101E+02  0.51100000000E-03 0.  1.
         12    1    3    3    0    0 -0.18725142351E+01 -0.98738044865E+00 -0.47704820645E+01  0.52190735613E+01  0.00000000000E+00 0. -1.
</event>
<event>
 7    1  0.5987893E-013  0.5930194E+02  0.7816164E-02  0.1266605E+00
        -11   -1    0    0    0    0  0.00000000000E+00  0.00000000000E+00  0.45593999997E+02  0.45594000000E+02  0.51100000000E-03 0.  1.
         11   -1    0    0    0    0 -0.00000000000E+00 -0.00000000000E+00 -0.45593999997E+02  0.45594000000E+02  0.51100000000E-03 0. -1.
    9900012    2    1    2    0    0  0.19710368245E+02 -0.89938222888E+01 -0.23395154858E+02  0.59301941502E+02  0.49999995394E+02 0.  0.
        -12    1    1    2    0    0 -0.19710368245E+02  0.89938222888E+01  0.23395154858E+02  0.31886058498E+02  0.00000000000E+00 0.  1.
         11    1    3    3    0    0  0.22443107913E+02  0.91699668705E-01 -0.17743512336E+02  0.28610028520E+02  0.51100000000E-03 0. -1.
        -11    1    3    3    0    0 -0.12416414927E+02 -0.84320540612E+01  0.54299379218E+01  0.15960924830E+02  0.51100000000E-03 0.  1.
        -12    1    3    3    0    0  0.96836752594E+01 -0.65346789627E+00 -0.11081580444E+02  0.14730988152E+02  0.00000000000E+00 0.  1.
</event>
<event>
 7    1  0.5987893E-013  0.5930195E+02  0.7816164E-02  0.1266605E+00
        -11   -1    0    0    0    0  0.00000000000E+00  0.00000000000E+00  0.45593999997E+02  0.45594000000E+02  0.51100000000E-03 0.  1.
         11   -1    0    0    0    0 -0.00000000000E+00 -0.00000000000E+00 -0.45593999997E+02  0.45594000000E+02  0.51100000000E-03 0. -1.
    9900012    2    1    2    0    0 -0.99244593232E+01  0.24088603424E+02 -0.18383810990E+02  0.59301949534E+02  0.50000010043E+02 0.  0.
        -12    1    1    2    0    0  0.99244593232E+01 -0.24088603424E+02  0.18383810990E+02  0.31886050466E+02  0.00000000000E+00 0.  1.
         11    1    3    3    0    0  0.39926803325E+01  0.16020877311E+02 -0.13189642312E+02  0.21132360745E+02  0.51100000000E-03 0. -1.
        -11    1    3    3    0    0 -0.16868087185E+02  0.27278635787E+01  0.11365428380E+02  0.20521855849E+02  0.51100000000E-03 0.  1.
        -12    1    3    3    0    0  0.29509475290E+01  0.53398625343E+01 -0.16559597058E+02  0.17647732940E+02  0.00000000000E+00 0.  1.
</event>
<event>
 7    1  0.5987893E-013  0.5930194E+02  0.7816164E-02  0.1266605E+00
        -11   -1    0    0    0    0  0.00000000000E+00  0.00000000000E+00  0.45593999997E+02  0.45594000000E+02  0.51100000000E-03 0.  1.
         11   -1    0    0    0    0 -0.00000000000E+00 -0.00000000000E+00 -0.45593999997E+02  0.45594000000E+02  0.51100000000E-03 0. -1.
    9900012    2    1    2    0    0  0.24040538803E+02  0.90726286457E+01 -0.18880161995E+02  0.59301943275E+02  0.49999998628E+02 0.  0.
        -12    1    1    2    0    0 -0.24040538803E+02 -0.90726286457E+01  0.18880161995E+02  0.31886056725E+02  0.00000000000E+00 0.  1.
         11    1    3    3    0    0  0.52802844372E+01  0.11154732217E+02 -0.64270224841E+01  0.13914599270E+02  0.51100000000E-03 0. -1.
        -11    1    3    3    0    0  0.27162415222E+02  0.37823249684E+01  0.21939166654E+01  0.27512107398E+02  0.51100000000E-03 0.  1.
        -12    1    3    3    0    0 -0.84021608559E+01 -0.58644285399E+01 -0.14647056176E+02  0.17875236607E+02  0.00000000000E+00 0.  1.
</event>
<event>
 7    1  0.5987893E-013  0.5930194E+02  0.7816164E-02  0.1266605E+00
        -11   -1    0    0    0    0  0.00000000000E+00  0.00000000000E+00  0.45593999997E+02  0.45594000000E+02  0.51100000000E-03 0.  1.
         11   -1    0    0    0    0 -0.00000000000E+00 -0.00000000000E+00 -0.45593999997E+02  0.45594000000E+02  0.51100000000E-03 0. -1.
    9900012    2    1    2    0    0  0.11371952395E+02  0.20980011065E+02 -0.21148017873E+02  0.59301939950E+02  0.49999992563E+02 0.  0.
        -12    1    1    2    0    0 -0.11371952395E+02 -0.20980011065E+02  0.21148017873E+02  0.31886060050E+02  0.00000000000E+00 0.  1.
         11    1    3    3    0    0 -0.34794707922E+01 -0.13109038348E+01 -0.85652404707E+01  0.93374798763E+01  0.51100000000E-03 0. -1.
        -11    1    3    3    0    0  0.14751725161E+02 -0.44966374904E+01  0.68456816173E+01  0.16872951758E+02  0.51100000000E-03 0.  1.
        -12    1    3    3    0    0  0.99698025406E-01  0.26787552390E+02 -0.19428459020E+02  0.33091508316E+02  0.00000000000E+00 0.  1.
</event>
<event>
 7    1  0.5987893E-013  0.5930196E+02  0.7816164E-02  0.1266605E+00
        -11   -1    0    0    0    0  0.00000000000E+00  0.00000000000E+00  0.45593999997E+02  0.45594000000E+02  0.51100000000E-03 0. -1.
         11   -1    0    0    0    0 -0.00000000000E+00 -0.00000000000E+00 -0.45593999997E+02  0.45594000000E+02  0.51100000000E-03 0.  1.
    9900012    2    1    2    0    0  0.12331451552E+02  0.18686361008E+02  0.22704073907E+02  0.59301956704E+02  0.50000023118E+02 0.  0.
        -12    1    1    2    0    0 -0.12331451552E+02 -0.18686361008E+02 -0.22704073907E+02  0.31886043296E+02  0.00000000000E+00 0.  1.
         11    1    3    3    0    0  0.18958590585E+01 -0.34639692870E+01  0.31292402132E+02  0.31540573810E+02  0.51100000000E-03 0. -1.
        -11    1    3    3    0    0 -0.10993269172E+01  0.81854341449E+01 -0.21019442039E+01  0.85222075491E+01  0.51100000000E-03 0.  1.
         12    1    3    3    0    0  0.11534919411E+02  0.13964896150E+02 -0.64863840208E+01  0.19239175345E+02  0.00000000000E+00 0. -1.
</event>
<event>
 7    1  0.5987893E-013  0.5930196E+02  0.7816164E-02  0.1266605E+00
        -11   -1    0    0    0    0  0.00000000000E+00  0.00000000000E+00  0.45593999997E+02  0.45594000000E+02  0.51100000000E-03 0. -1.
         11   -1    0    0    0    0 -0.00000000000E+00 -0.00000000000E+00 -0.45593999997E+02  0.45594000000E+02  0.51100000000E-03 0.  1.
    9900012    2    1    2    0    0  0.99142289704E+01  0.27510583446E+02 -0.12712026051E+02  0.59301956910E+02  0.50000023495E+02 0.  0.
        -12    1    1    2    0    0 -0.99142289704E+01 -0.27510583446E+02  0.12712026051E+02  0.31886043090E+02  0.00000000000E+00 0.  1.
         11    1    3    3    0    0 -0.70211519252E+01  0.20488433285E+02  0.64647203541E+01  0.22602324711E+02  0.51100000000E-03 0. -1.
        -11    1    3    3    0    0  0.19225167670E+02 -0.22466980780E+01 -0.19040241922E+02  0.27151160876E+02  0.51100000000E-03 0.  1.
        -12    1    3    3    0    0 -0.22897867745E+01  0.92688482387E+01 -0.13650448348E+00  0.95484713237E+01  0.00000000000E+00 0.  1.
</event>
<event>
 7    1  0.5987893E-013  0.5930190E+02  0.7816164E-02  0.1266605E+00
        -11   -1    0    0    0    0  0.00000000000E+00  0.00000000000E+00  0.45593999997E+02  0.45594000000E+02  0.51100000000E-03 0.  1.
         11   -1    0    0    0    0 -0.00000000000E+00 -0.00000000000E+00 -0.45593999997E+02  0.45594000000E+02  0.51100000000E-03 0. -1.
    9900012    2    1    2    0    0  0.13655852186E+02  0.23961978073E+02 -0.16002015596E+02  0.59301902791E+02  0.49999924794E+02 0.  0.
        -12    1    1    2    0    0 -0.13655852186E+02 -0.23961978073E+02  0.16002015596E+02  0.31886097209E+02  0.00000000000E+00 0.  1.
         11    1    3    3    0    0  0.11233668505E+02  0.15488037269E+02 -0.32129792253E+02  0.37395162214E+02  0.51100000000E-03 0. -1.
        -11    1    3    3    0    0  0.64713225521E+01  0.15716691244E+01  0.57239760446E+01  0.87813473585E+01  0.51100000000E-03 0.  1.
         12    1    3    3    0    0 -0.40491388714E+01  0.69022716800E+01  0.10403800613E+02  0.13125393218E+02  0.00000000000E+00 0. -1.
</event>
<event>
 7    1  0.5987893E-013  0.5930193E+02  0.7816164E-02  0.1266605E+00
        -11   -1    0    0    0    0  0.00000000000E+00  0.00000000000E+00  0.45593999997E+02  0.45594000000E+02  0.51100000000E-03 0. -1.
         11   -1    0    0    0    0 -0.00000000000E+00 -0.00000000000E+00 -0.45593999997E+02  0.45594000000E+02  0.51100000000E-03 0.  1.
    9900012    2    1    2    0    0  0.24784051721E+02  0.20058862546E+02  0.33787590977E+00  0.59301931781E+02  0.49999977664E+02 0.  0.
        -12    1    1    2    0    0 -0.24784051721E+02 -0.20058862546E+02 -0.33787590977E+00  0.31886068219E+02  0.00000000000E+00 0.  1.
         11    1    3    3    0    0 -0.51817460846E+00  0.22440613577E+01  0.28426944029E+01  0.36585827900E+01  0.51100000000E-03 0. -1.
        -11    1    3    3    0    0  0.35379028194E+02  0.21411784321E+02 -0.10041951948E+02  0.42555621755E+02  0.51100000000E-03 0.  1.
        -12    1    3    3    0    0 -0.10076801864E+02 -0.35969831329E+01  0.75371334549E+01  0.13087727235E+02  0.00000000000E+00 0.  1.
</event>
<event>
 7    1  0.5987893E-013  0.5930194E+02  0.7816164E-02  0.1266605E+00
        -11   -1    0    0    0    0  0.00000000000E+00  0.00000000000E+00  0.45593999997E+02  0.45594000000E+02  0.51100000000E-03 0. -1.
         11   -1    0    0    0    0 -0.00000000000E+00 -0.00000000000E+00 -0.45593999997E+02  0.45594000000E+02  0.51100000000E-03 0.  1.
    9900012    2    1    2    0    0  0.23533326409E+02 -0.10181958739E+02  0.18953396114E+02  0.59301937843E+02  0.49999988720E+02 0.  0.
        -12    1    1    2    0    0 -0.23533326409E+02  0.10181958739E+02 -0.18953396114E+02  0.31886062157E+02  0.00000000000E+00 0.  1.
         11    1    3    3    0    0  0.19701603358E+01 -0.17254160180E+02  0.22917874699E+02  0.28754418031E+02  0.51100000000E-03 0. -1.
        -11    1    3    3    0    0  0.16297050613E+02 -0.22834893868E+01 -0.89253055519E+01  0.18720824285E+02  0.51100000000E-03 0.  1.
         12    1    3    3    0    0  0.52661154603E+01  0.93556908277E+01  0.49608269663E+01  0.11826695527E+02  0.00000000000E+00 0. -1.
</event>
<event>
 7    1  0.5987893E-013  0.5930198E+02  0.7816164E-02  0.1266605E+00
        -11   -1    0    0    0    0  0.00000000000E+00  0.00000000000E+00  0.45593999997E+02  0.45594000000E+02  0.51100000000E-03 0. -1.
         11   -1    0    0    0    0 -0.00000000000E+00 -0.00000000000E+00 -0.45593999997E+02  0.45594000000E+02  0.51100000000E-03 0.  1.
    9900012    2    1    2    0    0 -0.85632312914E+01 -0.19157102935E+02  0.24008227034E+02  0.59301976599E+02  0.50000059402E+02 0.  0.
        -12    1    1    2    0    0  0.85632312914E+01  0.19157102935E+02 -0.24008227034E+02  0.31886023401E+02  0.00000000000E+00 0.  1.
         11    1    3    3    0    0 -0.48745184215E+01 -0.20543924958E+02  0.16938588204E+02  0.27068977689E+02  0.51100000000E-03 0. -1.
        -11    1    3    3    0    0 -0.52239965213E+01  0.99415124868E+01 -0.87139278721E+01  0.14214652630E+02  0.51100000000E-03 0.  1.
         12    1    3    3    0    0  0.15352836514E+01 -0.85546904643E+01  0.15783566702E+02  0.18018346280E+02  0.00000000000E+00 0. -1.
</event>
<event>
 7    1  0.5987893E-013  0.5930195E+02  0.7816164E-02  0.1266605E+00
        -11   -1    0    0    0    0  0.00000000000E+00  0.00000000000E+00  0.45593999997E+02  0.45594000000E+02  0.51100000000E-03 0. -1.
         11   -1    0    0    0    0 -0.00000000000E+00 -0.00000000000E+00 -0.45593999997E+02  0.45594000000E+02  0.51100000000E-03 0.  1.
    9900012    2    1    2    0    0 -0.64132541397E+01  0.16700591645E+02  0.26394711202E+02  0.59301947103E+02  0.50000005608E+02 0.  0.
        -12    1    1    2    0    0  0.64132541397E+01 -0.16700591645E+02 -0.26394711202E+02  0.31886052897E+02  0.00000000000E+00 0.  1.
         11    1    3    3    0    0 -0.17172494943E+02  0.16063566660E+01  0.18442094766E+02  0.25250461855E+02  0.51100000000E-03 0. -1.
        -11    1    3    3    0    0  0.12628622332E+02 -0.38562196897E+01  0.70950769963E+01  0.14989751503E+02  0.51100000000E-03 0.  1.
         12    1    3    3    0    0 -0.18693815288E+01  0.18950454668E+02  0.85753943930E+00  0.19061733744E+02  0.00000000000E+00 0. -1.
</event>
<event>
 7    1  0.5987893E-013  0.5930194E+02  0.7816164E-02  0.1266605E+00
        -11   -1    0    0    0    0  0.00000000000E+00  0.00000000000E+00  0.45593999997E+02  0.45594000000E+02  0.51100000000E-03 0.  1.
         11   -1    0    0    0    0 -0.00000000000E+00 -0.00000000000E+00 -0.45593999997E+02  0.45594000000E+02  0.51100000000E-03 0. -1.
    9900012    2    1    2    0    0 -0.61719662219E+01 -0.30516698548E+02 -0.68817588126E+01  0.59301942519E+02  0.49999997249E+02 0.  0.
        -12    1    1    2    0    0  0.61719662219E+01  0.30516698548E+02  0.68817588126E+01  0.31886057481E+02  0.00000000000E+00 0.  1.
         11    1    3    3    0    0  0.21589886381E+02 -0.16939680072E+02 -0.19273371935E+01  0.27509827041E+02  0.51100000000E-03 0. -1.
        -11    1    3    3    0    0 -0.19380108183E+02 -0.67333594340E+01 -0.42232448377E+01  0.20946658914E+02  0.51100000000E-03 0.  1.
         12    1    3    3    0    0 -0.83817444199E+01 -0.68436590418E+01 -0.73117678138E+00  0.10845456564E+02  0.00000000000E+00 0. -1.
</event>
<event>
 7    1  0.5987893E-013  0.5930194E+02  0.7816164E-02  0.1266605E+00
        -11   -1    0    0    0    0  0.00000000000E+00  0.00000000000E+00  0.45593999997E+02  0.45594000000E+02  0.51100000000E-03 0.  1.
         11   -1    0    0    0    0 -0.00000000000E+00 -0.00000000000E+00 -0.45593999997E+02  0.45594000000E+02  0.51100000000E-03 0. -1.
    9900012    2    1    2    0    0  0.10545328181E+01 -0.13188333510E+02 -0.29011661271E+02  0.59301942390E+02  0.49999997012E+02 0.  0.
        -12    1    1    2    0    0 -0.10545328181E+01  0.13188333510E+02  0.29011661271E+02  0.31886057610E+02  0.00000000000E+00 0.  1.
         11    1    3    3    0    0  0.14892215945E+02  0.10285289306E+02 -0.15374892129E+02  0.23747685784E+02  0.51100000000E-03 0. -1.
        -11    1    3    3    0    0 -0.59006936824E+01 -0.20978185431E+02 -0.29201188215E+01  0.21987031270E+02  0.51100000000E-03 0.  1.
         12    1    3    3    0    0 -0.79369894450E+01 -0.24954373848E+01 -0.10716650321E+02  0.13567225335E+02  0.00000000000E+00 0. -1.
</event>
<event>
 7    1  0.6288700E-013  0.5930195E+02  0.7816164E-02  0.1266605E+00
        -11   -1    0    0    0    0  0.00000000000E+00  0.00000000000E+00  0.45593999997E+02  0.45594000000E+02  0.51100000000E-03 0. -1.
         11   -1    0    0    0    0 -0.00000000000E+00 -0.00000000000E+00 -0.45593999997E+02  0.45594000000E+02  0.51100000000E-03 0.  1.
    9900012    2    1    2    0    0  0.67389667462E+01  0.19651368513E+02  0.24189464854E+02  0.59301950273E+02  0.50000011390E+02 0.  0.
        -12    1    1    2    0    0 -0.67389667462E+01 -0.19651368513E+02 -0.24189464854E+02  0.31886049727E+02  0.00000000000E+00 0.  1.
         11    1    3    3    0    0  0.19799392583E+01  0.23317829365E+01  0.20359147177E+02  0.20587672165E+02  0.51100000000E-03 0. -1.
        -11    1    3    3    0    0  0.10902055509E+02  0.21813015282E+02 -0.70971451962E+01  0.25397478619E+02  0.51100000000E-03 0.  1.
        -12    1    3    3    0    0 -0.61430280214E+01 -0.44934297053E+01  0.10927462873E+02  0.13316799489E+02  0.00000000000E+00 0.  1.
</event>
<event>
 7    1  0.5987893E-013  0.5930198E+02  0.7816164E-02  0.1266605E+00
        -11   -1    0    0    0    0  0.00000000000E+00  0.00000000000E+00  0.45593999997E+02  0.45594000000E+02  0.51100000000E-03 0. -1.
         11   -1    0    0    0    0 -0.00000000000E+00 -0.00000000000E+00 -0.45593999997E+02  0.45594000000E+02  0.51100000000E-03 0.  1.
    9900012    2    1    2    0    0  0.19205720621E+02 -0.24683478795E+02  0.62116437354E+01  0.59301978801E+02  0.50000063418E+02 0.  0.
        -12    1    1    2    0    0 -0.19205720621E+02  0.24683478795E+02 -0.62116437354E+01  0.31886021199E+02  0.00000000000E+00 0.  1.
         11    1    3    3    0    0  0.17109163726E+02 -0.23308243035E+02  0.22873782561E+02  0.36867432860E+02  0.51100000000E-03 0. -1.
        -11    1    3    3    0    0 -0.13063169033E+01 -0.71660432294E+01 -0.12688067625E+02  0.14630300739E+02  0.51100000000E-03 0.  1.
         12    1    3    3    0    0  0.34028737989E+01  0.57908074697E+01 -0.39740712013E+01  0.78042452009E+01  0.00000000000E+00 0. -1.
</event>
<event>
 7    1  0.5987893E-013  0.5930196E+02  0.7816164E-02  0.1266605E+00
        -11   -1    0    0    0    0  0.00000000000E+00  0.00000000000E+00  0.45593999997E+02  0.45594000000E+02  0.51100000000E-03 0.  1.
         11   -1    0    0    0    0 -0.00000000000E+00 -0.00000000000E+00 -0.45593999997E+02  0.45594000000E+02  0.51100000000E-03 0. -1.
    9900012    2    1    2    0    0  0.30341183941E+02  0.96465075852E+01 -0.17541656520E+01  0.59301958404E+02  0.50000026218E+02 0.  0.
        -12    1    1    2    0    0 -0.30341183941E+02 -0.96465075852E+01  0.17541656520E+01  0.31886041596E+02  0.00000000000E+00 0.  1.
         11    1    3    3    0    0  0.73857588830E+01  0.12156687904E+02 -0.54320583444E+01  0.15226350619E+02  0.51100000000E-03 0. -1.
        -11    1    3    3    0    0 -0.33232408811E+01 -0.66050997665E+01  0.13769836233E+02  0.15629448584E+02  0.51100000000E-03 0.  1.
        -12    1    3    3    0    0  0.26278665939E+02  0.40949194479E+01 -0.10091943541E+02  0.28446159201E+02  0.00000000000E+00 0.  1.
</event>
<event>
 7    1  0.6016916E-013  0.5930197E+02  0.7816164E-02  0.1266605E+00
        -11   -1    0    0    0    0  0.00000000000E+00  0.00000000000E+00  0.45593999997E+02  0.45594000000E+02  0.51100000000E-03 0. -1.
         11   -1    0    0    0    0 -0.00000000000E+00 -0.00000000000E+00 -0.45593999997E+02  0.45594000000E+02  0.51100000000E-03 0.  1.
    9900012    2    1    2    0    0  0.17234172446E+01  0.60007917888E+01  0.31268818179E+02  0.59301973917E+02  0.50000054511E+02 0.  0.
        -12    1    1    2    0    0 -0.17234172446E+01 -0.60007917888E+01 -0.31268818179E+02  0.31886026083E+02  0.00000000000E+00 0.  1.
         11    1    3    3    0    0 -0.11927782167E+01 -0.59592964302E+01  0.27438072577E+02  0.28103091659E+02  0.51100000000E-03 0. -1.
        -11    1    3    3    0    0  0.20117465087E+01 -0.13627418594E+01 -0.10986671309E+02  0.11252161397E+02  0.51100000000E-03 0.  1.
        -12    1    3    3    0    0  0.90444895262E+00  0.13322830078E+02  0.14817416910E+02  0.19946720861E+02  0.00000000000E+00 0.  1.
</event>
<event>
 7    1  0.5987893E-013  0.5930190E+02  0.7816164E-02  0.1266605E+00
        -11   -1    0    0    0    0  0.00000000000E+00  0.00000000000E+00  0.45593999997E+02  0.45594000000E+02  0.51100000000E-03 0.  1.
         11   -1    0    0    0    0 -0.00000000000E+00 -0.00000000000E+00 -0.45593999997E+02  0.45594000000E+02  0.51100000000E-03 0. -1.
    9900012    2    1    2    0    0 -0.12004244903E+02 -0.12371377775E+02 -0.26824808950E+02  0.59301901792E+02  0.49999922971E+02 0.  0.
        -12    1    1    2    0    0  0.12004244903E+02  0.12371377775E+02  0.26824808950E+02  0.31886098208E+02  0.00000000000E+00 0.  1.
         11    1    3    3    0    0  0.25346415529E+01  0.19284340589E+01 -0.49779855807E+01  0.59096198206E+01  0.51100000000E-03 0. -1.
        -11    1    3    3    0    0 -0.16844568643E+02  0.52270163951E+01  0.65829841515E+01  0.18825431569E+02  0.51100000000E-03 0.  1.
        -12    1    3    3    0    0  0.23056821873E+01 -0.19526828229E+02 -0.28429807521E+02  0.34566850402E+02  0.00000000000E+00 0.  1.
</event>
<event>
 7    1  0.5987893E-013  0.5930197E+02  0.7816164E-02  0.1266605E+00
        -11   -1    0    0    0    0  0.00000000000E+00  0.00000000000E+00  0.45593999997E+02  0.45594000000E+02  0.51100000000E-03 0.  1.
         11   -1    0    0    0    0 -0.00000000000E+00 -0.00000000000E+00 -0.45593999997E+02  0.45594000000E+02  0.51100000000E-03 0. -1.
    9900012    2    1    2    0    0  0.63924982587E+01 -0.50125236302E+01 -0.30833903488E+02  0.59301968083E+02  0.50000043871E+02 0.  0.
        -12    1    1    2    0    0 -0.63924982587E+01  0.50125236302E+01  0.30833903488E+02  0.31886031917E+02  0.00000000000E+00 0.  1.
         11    1    3    3    0    0  0.75479675851E+01  0.11493618774E+02 -0.19691278349E+02  0.24017109120E+02  0.51100000000E-03 0. -1.
        -11    1    3    3    0    0 -0.13077272005E+02 -0.44458949308E+01  0.18310054720E+01  0.13933183632E+02  0.51100000000E-03 0.  1.
         12    1    3    3    0    0  0.11921802679E+02 -0.12060247473E+02 -0.12973630610E+02  0.21351675331E+02  0.00000000000E+00 0. -1.
</event>
<event>
 7    1  0.5987893E-013  0.5930193E+02  0.7816164E-02  0.1266605E+00
        -11   -1    0    0    0    0  0.00000000000E+00  0.00000000000E+00  0.45593999997E+02  0.45594000000E+02  0.51100000000E-03 0.  1.
         11   -1    0    0    0    0 -0.00000000000E+00 -0.00000000000E+00 -0.45593999997E+02  0.45594000000E+02  0.51100000000E-03 0. -1.
    9900012    2    1    2    0    0 -0.13409173533E+02 -0.24166481356E+02 -0.15902729537E+02  0.59301928391E+02  0.49999971482E+02 0.  0.
        -12    1    1    2    0    0  0.13409173533E+02  0.24166481356E+02  0.15902729537E+02  0.31886071609E+02  0.00000000000E+00 0.  1.
         11    1    3    3    0    0  0.16763674561E+02 -0.11651659737E+02  0.93621063750E+00  0.20436693716E+02  0.51100000000E-03 0. -1.
        -11    1    3    3    0    0 -0.17570607491E+02 -0.10420910712E+02 -0.41230049214E+01  0.20840364620E+02  0.51100000000E-03 0.  1.
         12    1    3    3    0    0 -0.12602240604E+02 -0.20939109066E+01 -0.12715935253E+02  0.18024870055E+02  0.00000000000E+00 0. -1.
</event>
<event>
 7    1  0.5987893E-013  0.5930203E+02  0.7816164E-02  0.1266604E+00
        -11   -1    0    0    0    0  0.00000000000E+00  0.00000000000E+00  0.45593999997E+02  0.45594000000E+02  0.51100000000E-03 0.  1.
         11   -1    0    0    0    0 -0.00000000000E+00 -0.00000000000E+00 -0.45593999997E+02  0.45594000000E+02  0.51100000000E-03 0. -1.
    9900012    2    1    2    0    0 -0.50093617962E+01  0.36073555433E+01 -0.31282721531E+02  0.59302025246E+02  0.50000148123E+02 0.  0.
        -12    1    1    2    0    0  0.50093617962E+01 -0.36073555433E+01  0.31282721531E+02  0.31885974754E+02  0.00000000000E+00 0.  1.
         11    1    3    3    0    0 -0.11873283673E+01  0.60505795451E+01  0.85863649606E+01  0.10570947213E+02  0.51100000000E-03 0.  1.
        -11    1    3    3    0    0 -0.15380713416E+02  0.21346546446E+01 -0.23724016454E+02  0.28354048258E+02  0.51100000000E-03 0. -1.
         12    1    3    3    0    0  0.11558679987E+02 -0.45778786464E+01 -0.16145070037E+02  0.20377029775E+02  0.00000000000E+00 0. -1.
</event>
<event>
 7    1  0.5987893E-013  0.5930195E+02  0.7816164E-02  0.1266605E+00
        -11   -1    0    0    0    0  0.00000000000E+00  0.00000000000E+00  0.45593999997E+02  0.45594000000E+02  0.51100000000E-03 0.  1.
         11   -1    0    0    0    0 -0.00000000000E+00 -0.00000000000E+00 -0.45593999997E+02  0.45594000000E+02  0.51100000000E-03 0. -1.
    9900012    2    1    2    0    0  0.10851947870E+02 -0.29787437106E+01 -0.29834248256E+02  0.59301952021E+02  0.50000014579E+02 0.  0.
        -12    1    1    2    0    0 -0.10851947870E+02  0.29787437106E+01  0.29834248256E+02  0.31886047979E+02  0.00000000000E+00 0.  1.
         11    1    3    3    0    0 -0.93824311131E+00 -0.14260754174E+02 -0.33342645918E+02  0.36276458576E+02  0.51100000000E-03 0. -1.
        -11    1    3    3    0    0  0.11117830552E+02 -0.33238178489E+00  0.17178347063E+01  0.11254669705E+02  0.51100000000E-03 0.  1.
         12    1    3    3    0    0  0.67236042947E+00  0.11614392248E+02  0.17905629548E+01  0.11770823741E+02  0.00000000000E+00 0. -1.
</event>
<event>
 7    1  0.5987893E-013  0.5930195E+02  0.7816164E-02  0.1266605E+00
        -11   -1    0    0    0    0  0.00000000000E+00  0.00000000000E+00  0.45593999997E+02  0.45594000000E+02  0.51100000000E-03 0.  1.
         11   -1    0    0    0    0 -0.00000000000E+00 -0.00000000000E+00 -0.45593999997E+02  0.45594000000E+02  0.51100000000E-03 0. -1.
    9900012    2    1    2    0    0  0.28673883017E+02 -0.83174438351E+01 -0.11195938365E+02  0.59301945445E+02  0.50000002584E+02 0.  0.
        -12    1    1    2    0    0 -0.28673883017E+02  0.83174438351E+01  0.11195938365E+02  0.31886054555E+02  0.00000000000E+00 0.  1.
         11    1    3    3    0    0  0.60967872113E+01  0.42994152565E+01 -0.25498227116E+01  0.78839953050E+01  0.51100000000E-03 0. -1.
        -11    1    3    3    0    0  0.33765159510E+02 -0.16083095029E+02 -0.11924851203E+02  0.39254987185E+02  0.51100000000E-03 0.  1.
        -12    1    3    3    0    0 -0.11188063704E+02  0.34662359378E+01  0.32787355494E+01  0.12162962954E+02  0.00000000000E+00 0.  1.
</event>
<event>
 7    1  0.5987893E-013  0.5930194E+02  0.7816164E-02  0.1266605E+00
        -11   -1    0    0    0    0  0.00000000000E+00  0.00000000000E+00  0.45593999997E+02  0.45594000000E+02  0.51100000000E-03 0.  1.
         11   -1    0    0    0    0 -0.00000000000E+00 -0.00000000000E+00 -0.45593999997E+02  0.45594000000E+02  0.51100000000E-03 0. -1.
    9900012    2    1    2    0    0  0.28608514830E+02 -0.70977931373E+01 -0.12161197573E+02  0.59301944825E+02  0.50000001454E+02 0.  0.
        -12    1    1    2    0    0 -0.28608514830E+02  0.70977931373E+01  0.12161197573E+02  0.31886055175E+02  0.00000000000E+00 0.  1.
         11    1    3    3    0    0  0.89686492189E+01 -0.18063580912E+01  0.90859954449E+00  0.91937561290E+01  0.51100000000E-03 0. -1.
        -11    1    3    3    0    0 -0.13717654392E+02  0.75614621798E+00 -0.78043413430E+01  0.15800428576E+02  0.51100000000E-03 0.  1.
        -12    1    3    3    0    0  0.33357520004E+02 -0.60475812640E+01 -0.52654557745E+01  0.34307760120E+02  0.00000000000E+00 0.  1.
</event>
<event>
 7    1  0.5987893E-013  0.5930194E+02  0.7816164E-02  0.1266605E+00
        -11   -1    0    0    0    0  0.00000000000E+00  0.00000000000E+00  0.45593999997E+02  0.45594000000E+02  0.51100000000E-03 0.  1.
         11   -1    0    0    0    0 -0.00000000000E+00 -0.00000000000E+00 -0.45593999997E+02  0.45594000000E+02  0.51100000000E-03 0. -1.
    9900012    2    1    2    0    0 -0.28463746084E+02  0.91815648963E+00 -0.14342005093E+02  0.59301937801E+02  0.49999988643E+02 0.  0.
        -12    1    1    2    0    0  0.28463746084E+02 -0.91815648963E+00  0.14342005093E+02  0.31886062199E+02  0.00000000000E+00 0.  1.
         11    1    3    3    0    0  0.20961943854E+01 -0.15100255891E+01 -0.12377828594E+02  0.12644558084E+02  0.51100000000E-03 0. -1.
        -11    1    3    3    0    0 -0.18885988636E+00  0.30692796416E+01  0.12599187177E+02  0.12969027079E+02  0.51100000000E-03 0.  1.
        -12    1    3    3    0    0 -0.30371080584E+02 -0.64109756293E+00 -0.14563363676E+02  0.33688352638E+02  0.00000000000E+00 0.  1.
</event>
<event>
 7    1  0.5987893E-013  0.5930195E+02  0.7816164E-02  0.1266605E+00
        -11   -1    0    0    0    0  0.00000000000E+00  0.00000000000E+00  0.45593999997E+02  0.45594000000E+02  0.51100000000E-03 0.  1.
         11   -1    0    0    0    0 -0.00000000000E+00 -0.00000000000E+00 -0.45593999997E+02  0.45594000000E+02  0.51100000000E-03 0. -1.
    9900012    2    1    2    0    0 -0.20844755395E+02 -0.12720509471E+02 -0.20503785828E+02  0.59301946278E+02  0.50000004104E+02 0.  0.
        -12    1    1    2    0    0  0.20844755395E+02  0.12720509471E+02  0.20503785828E+02  0.31886053722E+02  0.00000000000E+00 0.  1.
         11    1    3    3    0    0 -0.46656824436E+01  0.91231968825E+01  0.79021615945E+01  0.12940072339E+02  0.51100000000E-03 0.  1.
        -11    1    3    3    0    0 -0.45846729384E+01 -0.28512534143E+01 -0.22778373198E+02  0.23409467269E+02  0.51100000000E-03 0. -1.
         12    1    3    3    0    0 -0.11594400013E+02 -0.18992452939E+02 -0.56275742244E+01  0.22952406670E+02  0.00000000000E+00 0. -1.
</event>
<event>
 7    1  0.5987893E-013  0.5930200E+02  0.7816164E-02  0.1266605E+00
        -11   -1    0    0    0    0  0.00000000000E+00  0.00000000000E+00  0.45593999997E+02  0.45594000000E+02  0.51100000000E-03 0.  1.
         11   -1    0    0    0    0 -0.00000000000E+00 -0.00000000000E+00 -0.45593999997E+02  0.45594000000E+02  0.51100000000E-03 0. -1.
    9900012    2    1    2    0    0 -0.23142950799E+02  0.16475224250E+02 -0.14480596186E+02  0.59302002263E+02  0.50000106207E+02 0.  0.
        -12    1    1    2    0    0  0.23142950799E+02 -0.16475224250E+02  0.14480596186E+02  0.31885997737E+02  0.00000000000E+00 0.  1.
         11    1    3    3    0    0  0.59395072316E+01 -0.23999819033E+01  0.84227440479E+01  0.10582073372E+02  0.51100000000E-03 0. -1.
        -11    1    3    3    0    0 -0.95537062199E+01  0.20987126756E+02 -0.15213166741E+02  0.27625590212E+02  0.51100000000E-03 0.  1.
        -12    1    3    3    0    0 -0.19528751811E+02 -0.21119206029E+01 -0.76901734929E+01  0.21094338678E+02  0.00000000000E+00 0.  1.
</event>
<event>
 7    1  0.5987893E-013  0.5930194E+02  0.7816164E-02  0.1266605E+00
        -11   -1    0    0    0    0  0.00000000000E+00  0.00000000000E+00  0.45593999997E+02  0.45594000000E+02  0.51100000000E-03 0. -1.
         11   -1    0    0    0    0 -0.00000000000E+00 -0.00000000000E+00 -0.45593999997E+02  0.45594000000E+02  0.51100000000E-03 0.  1.
    9900012    2    1    2    0    0 -0.12306910054E+02 -0.28030851051E+02  0.89180722853E+01  0.59301942561E+02  0.49999997326E+02 0.  0.
        -12    1    1    2    0    0  0.12306910054E+02  0.28030851051E+02 -0.89180722853E+01  0.31886057439E+02  0.00000000000E+00 0.  1.
         11    1    3    3    0    0 -0.92597366486E+01 -0.73259986237E+00  0.80573388632E+01  0.12296346416E+02  0.51100000000E-03 0. -1.
        -11    1    3    3    0    0  0.96115388013E+00 -0.19918046775E+02 -0.17680748878E+02  0.26650727668E+02  0.51100000000E-03 0.  1.
        -12    1    3    3    0    0 -0.40083272856E+01 -0.73802044136E+01  0.18541482301E+02  0.20354868477E+02  0.00000000000E+00 0.  1.
</event>
<event>
 7    1  0.5987893E-013  0.5930196E+02  0.7816164E-02  0.1266605E+00
        -11   -1    0    0    0    0  0.00000000000E+00  0.00000000000E+00  0.45593999997E+02  0.45594000000E+02  0.51100000000E-03 0.  1.
         11   -1    0    0    0    0 -0.00000000000E+00 -0.00000000000E+00 -0.45593999997E+02  0.45594000000E+02  0.51100000000E-03 0. -1.
    9900012    2    1    2    0    0 -0.45728225044E+00 -0.74325808163E+01 -0.31004313386E+02  0.59301955824E+02  0.50000021514E+02 0.  0.
        -12    1    1    2    0    0  0.45728225044E+00  0.74325808163E+01  0.31004313386E+02  0.31886044176E+02  0.00000000000E+00 0.  1.
         11    1    3    3    0    0  0.21066788092E+02  0.50525141707E+01 -0.71528211169E+01  0.22814475890E+02  0.51100000000E-03 0. -1.
        -11    1    3    3    0    0 -0.40794303437E+01  0.15581132305E+01 -0.97571138910E+00  0.44745370424E+01  0.51100000000E-03 0.  1.
         12    1    3    3    0    0 -0.17444639999E+02 -0.14043208217E+02 -0.22875780880E+02  0.32012942892E+02  0.00000000000E+00 0. -1.
</event>
<event>
 7    1  0.5987893E-013  0.5930196E+02  0.7816164E-02  0.1266605E+00
        -11   -1    0    0    0    0  0.00000000000E+00  0.00000000000E+00  0.45593999997E+02  0.45594000000E+02  0.51100000000E-03 0. -1.
         11   -1    0    0    0    0 -0.00000000000E+00 -0.00000000000E+00 -0.45593999997E+02  0.45594000000E+02  0.51100000000E-03 0.  1.
    9900012    2    1    2    0    0  0.24847335202E+02 -0.17736827729E+02 -0.92051171820E+01  0.59301963763E+02  0.50000035993E+02 0.  0.
        -12    1    1    2    0    0 -0.24847335202E+02  0.17736827729E+02  0.92051171820E+01  0.31886036237E+02  0.00000000000E+00 0.  1.
         11    1    3    3    0    0  0.18972245357E+02  0.53356778714E+01  0.34022926545E+01  0.19999778694E+02  0.51100000000E-03 0. -1.
        -11    1    3    3    0    0 -0.90853737105E+01  0.72477939110E+00 -0.32521135094E+01  0.96770637677E+01  0.51100000000E-03 0.  1.
         12    1    3    3    0    0  0.14960463556E+02 -0.23797284992E+02 -0.93552963272E+01  0.29625121302E+02  0.00000000000E+00 0. -1.
</event>
<event>
 7    1  0.5987893E-013  0.5930173E+02  0.7816164E-02  0.1266606E+00
        -11   -1    0    0    0    0  0.00000000000E+00  0.00000000000E+00  0.45593999997E+02  0.45594000000E+02  0.51100000000E-03 0.  1.
         11   -1    0    0    0    0 -0.00000000000E+00 -0.00000000000E+00 -0.45593999997E+02  0.45594000000E+02  0.51100000000E-03 0. -1.
    9900012    2    1    2    0    0  0.24655888254E+02 -0.10087412188E+02  0.17523293313E+02  0.59301725229E+02  0.49999600962E+02 0.  0.
        -12    1    1    2    0    0 -0.24655888254E+02  0.10087412188E+02 -0.17523293313E+02  0.31886274771E+02  0.00000000000E+00 0.  1.
         11    1    3    3    0    0  0.20966822035E+02 -0.58584471456E+01 -0.22506216753E+01  0.21885939034E+02  0.51100000000E-03 0. -1.
        -11    1    3    3    0    0 -0.25893097228E+01 -0.16573724305E+02  0.15709329483E+02  0.22982077696E+02  0.51100000000E-03 0.  1.
        -12    1    3    3    0    0  0.62783759418E+01  0.12344759262E+02  0.40645855059E+01  0.14433708499E+02  0.00000000000E+00 0.  1.
</event>
<event>
 7    1  0.5987893E-013  0.5930196E+02  0.7816164E-02  0.1266605E+00
        -11   -1    0    0    0    0  0.00000000000E+00  0.00000000000E+00  0.45593999997E+02  0.45594000000E+02  0.51100000000E-03 0.  1.
         11   -1    0    0    0    0 -0.00000000000E+00 -0.00000000000E+00 -0.45593999997E+02  0.45594000000E+02  0.51100000000E-03 0. -1.
    9900012    2    1    2    0    0  0.29013519746E+02  0.56832179629E+01  0.11943048057E+02  0.59301957734E+02  0.50000024998E+02 0.  0.
        -12    1    1    2    0    0 -0.29013519746E+02 -0.56832179629E+01 -0.11943048057E+02  0.31886042266E+02  0.00000000000E+00 0.  1.
         11    1    3    3    0    0 -0.13654205015E+01 -0.70290401048E+01 -0.51287670263E+01  0.88077255527E+01  0.51100000000E-03 0. -1.
        -11    1    3    3    0    0  0.30181391705E+02  0.10961426053E+02  0.26047899437E+02  0.41346853952E+02  0.51100000000E-03 0.  1.
        -12    1    3    3    0    0  0.19754854194E+00  0.17508320148E+01 -0.89760843530E+01  0.91473782300E+01  0.00000000000E+00 0.  1.
</event>
<event>
 7    1  0.5987893E-013  0.5930194E+02  0.7816164E-02  0.1266605E+00
        -11   -1    0    0    0    0  0.00000000000E+00  0.00000000000E+00  0.45593999997E+02  0.45594000000E+02  0.51100000000E-03 0.  1.
         11   -1    0    0    0    0 -0.00000000000E+00 -0.00000000000E+00 -0.45593999997E+02  0.45594000000E+02  0.51100000000E-03 0. -1.
    9900012    2    1    2    0    0  0.20999823230E+01 -0.31591879664E+02 -0.37767802732E+01  0.59301939477E+02  0.49999991701E+02 0.  0.
        -12    1    1    2    0    0 -0.20999823230E+01  0.31591879664E+02  0.37767802732E+01  0.31886060523E+02  0.00000000000E+00 0.  1.
         11    1    3    3    0    0  0.10273061700E+02 -0.17310209885E+02 -0.18806226864E+02  0.27547292645E+02  0.51100000000E-03 0. -1.
        -11    1    3    3    0    0 -0.42153885190E+01 -0.20307798664E+02  0.11703992054E+02  0.23815113210E+02  0.51100000000E-03 0.  1.
        -12    1    3    3    0    0 -0.39576908582E+01  0.60261288849E+01  0.33254545366E+01  0.79395336224E+01  0.00000000000E+00 0.  1.
</event>
<event>
 7    1  0.5987893E-013  0.5930195E+02  0.7816164E-02  0.1266605E+00
        -11   -1    0    0    0    0  0.00000000000E+00  0.00000000000E+00  0.45593999997E+02  0.45594000000E+02  0.51100000000E-03 0. -1.
         11   -1    0    0    0    0 -0.00000000000E+00 -0.00000000000E+00 -0.45593999997E+02  0.45594000000E+02  0.51100000000E-03 0.  1.
    9900012    2    1    2    0    0 -0.11706004288E+02  0.65694073914E+01  0.28922867376E+02  0.59301954352E+02  0.50000018828E+02 0.  0.
        -12    1    1    2    0    0  0.11706004288E+02 -0.65694073914E+01 -0.28922867376E+02  0.31886045648E+02  0.00000000000E+00 0.  1.
         11    1    3    3    0    0 -0.16369533613E+02 -0.42742940425E+01 -0.69997197153E+01  0.18309213436E+02  0.51100000000E-03 0. -1.
        -11    1    3    3    0    0  0.82395569944E+01  0.11595733713E+02  0.34016953873E+02  0.36871459028E+02  0.51100000000E-03 0.  1.
         12    1    3    3    0    0 -0.35760276691E+01 -0.75203227938E+00  0.19056332181E+01  0.41212818882E+01  0.00000000000E+00 0. -1.
</event>
<event>
 7    1  0.5987893E-013  0.5930177E+02  0.7816164E-02  0.1266605E+00
        -11   -1    0    0    0    0  0.00000000000E+00  0.00000000000E+00  0.45593999997E+02  0.45594000000E+02  0.51100000000E-03 0. -1.
         11   -1    0    0    0    0 -0.00000000000E+00 -0.00000000000E+00 -0.45593999997E+02  0.45594000000E+02  0.51100000000E-03 0.  1.
    9900012    2    1    2    0    0  0.12865766359E+02 -0.26126823079E+02 -0.12984339018E+02  0.59301766482E+02  0.49999676199E+02 0.  0.
        -12    1    1    2    0    0 -0.12865766359E+02  0.26126823079E+02  0.12984339018E+02  0.31886233518E+02  0.00000000000E+00 0.  1.
         11    1    3    3    0    0 -0.18908579473E+02 -0.10398374788E+02 -0.46634921416E+01  0.22077335327E+02  0.51100000000E-03 0. -1.
        -11    1    3    3    0    0  0.19387103768E+02 -0.89997279338E+01 -0.88112741511E+01  0.23119114339E+02  0.51100000000E-03 0.  1.
         12    1    3    3    0    0  0.12387242063E+02 -0.67287203574E+01  0.49042727490E+00  0.14105316817E+02  0.00000000000E+00 0. -1.
</event>
<event>
 7    1  0.5987893E-013  0.5930192E+02  0.7816164E-02  0.1266605E+00
        -11   -1    0    0    0    0  0.00000000000E+00  0.00000000000E+00  0.45593999997E+02  0.45594000000E+02  0.51100000000E-03 0. -1.
         11   -1    0    0    0    0 -0.00000000000E+00 -0.00000000000E+00 -0.45593999997E+02  0.45594000000E+02  0.51100000000E-03 0.  1.
    9900012    2    1    2    0    0 -0.12031541461E+02  0.29520174021E+02 -0.72346130561E+00  0.59301920586E+02  0.49999957248E+02 0.  0.
        -12    1    1    2    0    0  0.12031541461E+02 -0.29520174021E+02  0.72346130561E+00  0.31886079414E+02  0.00000000000E+00 0.  1.
         11    1    3    3    0    0 -0.13269736487E+02  0.27468187421E+02  0.47840121197E+01  0.30878374291E+02  0.51100000000E-03 0. -1.
        -11    1    3    3    0    0 -0.10502809808E+02 -0.44009139565E+01 -0.90726379347E+01  0.14559870084E+02  0.51100000000E-03 0.  1.
        -12    1    3    3    0    0  0.11741004834E+02  0.64529005560E+01  0.35651645094E+01  0.13863676211E+02  0.00000000000E+00 0.  1.
</event>
<event>
 7    1  0.5987893E-013  0.5930193E+02  0.7816164E-02  0.1266605E+00
        -11   -1    0    0    0    0  0.00000000000E+00  0.00000000000E+00  0.45593999997E+02  0.45594000000E+02  0.51100000000E-03 0.  1.
         11   -1    0    0    0    0 -0.00000000000E+00 -0.00000000000E+00 -0.45593999997E+02  0.45594000000E+02  0.51100000000E-03 0. -1.
    9900012    2    1    2    0    0 -0.24913211516E+02  0.11095838414E+02  0.16520766996E+02  0.59301929683E+02  0.49999973839E+02 0.  0.
        -12    1    1    2    0    0  0.24913211516E+02 -0.11095838414E+02 -0.16520766996E+02  0.31886070317E+02  0.00000000000E+00 0.  1.
         11    1    3    3    0    0  0.43098234076E+01  0.10741963532E+02 -0.11971967802E+02  0.16652098115E+02  0.51100000000E-03 0. -1.
        -11    1    3    3    0    0 -0.68992133243E+01 -0.31892220010E+01  0.20686463123E+01  0.78771555331E+01  0.51100000000E-03 0.  1.
         12    1    3    3    0    0 -0.22323821599E+02  0.35430968829E+01  0.26424088486E+02  0.34772676035E+02  0.00000000000E+00 0. -1.
</event>
<event>
 7    1  0.5987893E-013  0.5930195E+02  0.7816164E-02  0.1266605E+00
        -11   -1    0    0    0    0  0.00000000000E+00  0.00000000000E+00  0.45593999997E+02  0.45594000000E+02  0.51100000000E-03 0.  1.
         11   -1    0    0    0    0 -0.00000000000E+00 -0.00000000000E+00 -0.45593999997E+02  0.45594000000E+02  0.51100000000E-03 0. -1.
    9900012    2    1    2    0    0 -0.48920541432E+00  0.17942418334E+02 -0.26354325616E+02  0.59301950130E+02  0.50000011129E+02 0.  0.
        -12    1    1    2    0    0  0.48920541432E+00 -0.17942418334E+02  0.26354325616E+02  0.31886049870E+02  0.00000000000E+00 0.  1.
         11    1    3    3    0    0  0.25744873122E+01  0.94646514286E+00  0.11881689083E+02  0.12194191934E+02  0.51100000000E-03 0. -1.
        -11    1    3    3    0    0 -0.79801016727E+01  0.23502438715E+01 -0.33760958168E+01  0.89779559025E+01  0.51100000000E-03 0.  1.
         12    1    3    3    0    0  0.49164089462E+01  0.14645709320E+02 -0.34859918883E+02  0.38129802293E+02  0.00000000000E+00 0. -1.
</event>
<event>
 7    1  0.5987893E-013  0.5930195E+02  0.7816164E-02  0.1266605E+00
        -11   -1    0    0    0    0  0.00000000000E+00  0.00000000000E+00  0.45593999997E+02  0.45594000000E+02  0.51100000000E-03 0.  1.
         11   -1    0    0    0    0 -0.00000000000E+00 -0.00000000000E+00 -0.45593999997E+02  0.45594000000E+02  0.51100000000E-03 0. -1.
    9900012    2    1    2    0    0 -0.15963891599E+02 -0.22903313283E+02  0.15404946837E+02  0.59301953187E+02  0.50000016704E+02 0.  0.
        -12    1    1    2    0    0  0.15963891599E+02  0.22903313283E+02 -0.15404946837E+02  0.31886046813E+02  0.00000000000E+00 0.  1.
         11    1    3    3    0    0  0.14088546317E+02 -0.72533937752E+01 -0.14039828326E+01  0.15908174837E+02  0.51100000000E-03 0.  1.
        -11    1    3    3    0    0 -0.29350916542E+02 -0.75213129153E+01  0.17853940024E+02  0.35168304259E+02  0.51100000000E-03 0. -1.
         12    1    3    3    0    0 -0.70152137399E+00 -0.81286065927E+01 -0.10450103546E+01  0.82254740908E+01  0.00000000000E+00 0. -1.
</event>
<event>
 7    1  0.5987893E-013  0.5930203E+02  0.7816164E-02  0.1266604E+00
        -11   -1    0    0    0    0  0.00000000000E+00  0.00000000000E+00  0.45593999997E+02  0.45594000000E+02  0.51100000000E-03 0. -1.
         11   -1    0    0    0    0 -0.00000000000E+00 -0.00000000000E+00 -0.45593999997E+02  0.45594000000E+02  0.51100000000E-03 0.  1.
    9900012    2    1    2    0    0 -0.17897937025E+02  0.22469855918E+02  0.13837792002E+02  0.59302030324E+02  0.50000157383E+02 0.  0.
        -12    1    1    2    0    0  0.17897937025E+02 -0.22469855918E+02 -0.13837792002E+02  0.31885969676E+02  0.00000000000E+00 0.  1.
         11    1    3    3    0    0 -0.22666412733E+00 -0.10090447604E+02 -0.15765253183E+01  0.10215377713E+02  0.51100000000E-03 0.  1.
        -11    1    3    3    0    0 -0.17075766248E+02  0.20374866662E+02  0.22630634826E+02  0.34912213011E+02  0.51100000000E-03 0. -1.
         12    1    3    3    0    0 -0.59550665018E+00  0.12185436859E+02 -0.72163175057E+01  0.14174439600E+02  0.00000000000E+00 0. -1.
</event>
<event>
 7    1  0.5987893E-013  0.5930194E+02  0.7816164E-02  0.1266605E+00
        -11   -1    0    0    0    0  0.00000000000E+00  0.00000000000E+00  0.45593999997E+02  0.45594000000E+02  0.51100000000E-03 0. -1.
         11   -1    0    0    0    0 -0.00000000000E+00 -0.00000000000E+00 -0.45593999997E+02  0.45594000000E+02  0.51100000000E-03 0.  1.
    9900012    2    1    2    0    0  0.34271568512E+01 -0.14736132466E+02  0.28068165477E+02  0.59301938510E+02  0.49999989937E+02 0.  0.
        -12    1    1    2    0    0 -0.34271568512E+01  0.14736132466E+02 -0.28068165477E+02  0.31886061490E+02  0.00000000000E+00 0.  1.
         11    1    3    3    0    0  0.99771829964E+01 -0.41310557988E+01  0.64619752081E+01  0.12584392175E+02  0.51100000000E-03 0. -1.
        -11    1    3    3    0    0 -0.12596605176E+02 -0.17460062850E+02  0.28176542788E+02  0.35460482518E+02  0.51100000000E-03 0.  1.
        -12    1    3    3    0    0  0.60465790310E+01  0.68549861824E+01 -0.65703525197E+01  0.11257063817E+02  0.00000000000E+00 0.  1.
</event>
<event>
 7    1  0.5987893E-013  0.5930197E+02  0.7816164E-02  0.1266605E+00
        -11   -1    0    0    0    0  0.00000000000E+00  0.00000000000E+00  0.45593999997E+02  0.45594000000E+02  0.51100000000E-03 0.  1.
         11   -1    0    0    0    0 -0.00000000000E+00 -0.00000000000E+00 -0.45593999997E+02  0.45594000000E+02  0.51100000000E-03 0. -1.
    9900012    2    1    2    0    0  0.10997655276E+02  0.28855010888E+02 -0.79472718306E+01  0.59301965369E+02  0.50000038922E+02 0.  0.
        -12    1    1    2    0    0 -0.10997655276E+02 -0.28855010888E+02  0.79472718306E+01  0.31886034631E+02  0.00000000000E+00 0.  1.
         11    1    3    3    0    0  0.10524002629E+02  0.14786839384E+02 -0.15326753243E+02  0.23755307103E+02  0.51100000000E-03 0.  1.
        -11    1    3    3    0    0 -0.10754053777E+02 -0.51915925788E+01  0.55790039217E+01  0.13180576283E+02  0.51100000000E-03 0. -1.
        -12    1    3    3    0    0  0.11227706424E+02  0.19259764083E+02  0.18004774908E+01  0.22366081983E+02  0.00000000000E+00 0.  1.
</event>
<event>
 7    1  0.5987893E-013  0.5930196E+02  0.7816164E-02  0.1266605E+00
        -11   -1    0    0    0    0  0.00000000000E+00  0.00000000000E+00  0.45593999997E+02  0.45594000000E+02  0.51100000000E-03 0.  1.
         11   -1    0    0    0    0 -0.00000000000E+00 -0.00000000000E+00 -0.45593999997E+02  0.45594000000E+02  0.51100000000E-03 0. -1.
    9900012    2    1    2    0    0 -0.11441750715E+02 -0.29723358835E+02  0.15256516515E+01  0.59301963356E+02  0.50000035251E+02 0.  0.
        -12    1    1    2    0    0  0.11441750715E+02  0.29723358835E+02 -0.15256516515E+01  0.31886036644E+02  0.00000000000E+00 0.  1.
         11    1    3    3    0    0  0.12755420395E+02 -0.16946891692E+02  0.38436570431E+01  0.21556242418E+02  0.51100000000E-03 0. -1.
        -11    1    3    3    0    0 -0.28822599613E+02 -0.14257378924E+02 -0.44109611697E+01  0.32457228485E+02  0.51100000000E-03 0.  1.
        -12    1    3    3    0    0  0.46254285028E+01  0.14809117803E+01  0.20929557780E+01  0.52884924529E+01  0.00000000000E+00 0.  1.
</event>
<event>
 7    1  0.5987893E-013  0.5930194E+02  0.7816164E-02  0.1266605E+00
        -11   -1    0    0    0    0  0.00000000000E+00  0.00000000000E+00  0.45593999997E+02  0.45594000000E+02  0.51100000000E-03 0.  1.
         11   -1    0    0    0    0 -0.00000000000E+00 -0.00000000000E+00 -0.45593999997E+02  0.45594000000E+02  0.51100000000E-03 0. -1.
    9900012    2    1    2    0    0  0.29350218432E+02 -0.55005567679E+01 -0.11181652451E+02  0.59301940377E+02  0.49999993342E+02 0.  0.
        -12    1    1    2    0    0 -0.29350218432E+02  0.55005567679E+01  0.11181652451E+02  0.31886059623E+02  0.00000000000E+00 0.  1.
         11    1    3    3    0    0  0.18249638506E+02  0.40351628361E+01 -0.10923329306E+02  0.21648347930E+02  0.51100000000E-03 0. -1.
        -11    1    3    3    0    0 -0.10534953084E+02 -0.21961186097E+01  0.79475605555E+01  0.13378037691E+02  0.51100000000E-03 0.  1.
        -12    1    3    3    0    0  0.21635533010E+02 -0.73396009943E+01 -0.82058837005E+01  0.24275554756E+02  0.00000000000E+00 0.  1.
</event>
<event>
 7    1  0.5987893E-013  0.5930194E+02  0.7816164E-02  0.1266605E+00
        -11   -1    0    0    0    0  0.00000000000E+00  0.00000000000E+00  0.45593999997E+02  0.45594000000E+02  0.51100000000E-03 0. -1.
         11   -1    0    0    0    0 -0.00000000000E+00 -0.00000000000E+00 -0.45593999997E+02  0.45594000000E+02  0.51100000000E-03 0.  1.
    9900012    2    1    2    0    0  0.13354567611E+02  0.12382144901E+02  0.26173624896E+02  0.59301943038E+02  0.49999998194E+02 0.  0.
        -12    1    1    2    0    0 -0.13354567611E+02 -0.12382144901E+02 -0.26173624896E+02  0.31886056962E+02  0.00000000000E+00 0.  1.
         11    1    3    3    0    0  0.62333755569E+00 -0.92107553605E+01  0.23110855585E+02  0.24886506588E+02  0.51100000000E-03 0. -1.
        -11    1    3    3    0    0  0.44980894588E+01  0.24612827508E+02 -0.30269749689E+00  0.25022304305E+02  0.51100000000E-03 0.  1.
         12    1    3    3    0    0  0.82331405968E+01 -0.30199272461E+01  0.33654668077E+01  0.93931321450E+01  0.00000000000E+00 0. -1.
</event>
<event>
 7    1  0.5987893E-013  0.5930188E+02  0.7816164E-02  0.1266605E+00
        -11   -1    0    0    0    0  0.00000000000E+00  0.00000000000E+00  0.45593999997E+02  0.45594000000E+02  0.51100000000E-03 0. -1.
         11   -1    0    0    0    0 -0.00000000000E+00 -0.00000000000E+00 -0.45593999997E+02  0.45594000000E+02  0.51100000000E-03 0.  1.
    9900012    2    1    2    0    0 -0.17433097490E+02  0.17231467900E+02  0.20393341019E+02  0.59301878693E+02  0.49999880845E+02 0.  0.
        -12    1    1    2    0    0  0.17433097490E+02 -0.17231467900E+02 -0.20393341019E+02  0.31886121307E+02  0.00000000000E+00 0.  1.
         11    1    3    3    0    0  0.75474348581E+01 -0.95575347413E+01  0.16694458708E+02  0.20664345987E+02  0.51100000000E-03 0. -1.
        -11    1    3    3    0    0 -0.59701020470E+00  0.69254486140E+01 -0.14939354038E+00  0.69527389122E+01  0.51100000000E-03 0.  1.
         12    1    3    3    0    0 -0.24383522143E+02  0.19863554027E+02  0.38482758513E+01  0.31684793793E+02  0.00000000000E+00 0. -1.
</event>
<event>
 7    1  0.5987893E-013  0.5930194E+02  0.7816164E-02  0.1266605E+00
        -11   -1    0    0    0    0  0.00000000000E+00  0.00000000000E+00  0.45593999997E+02  0.45594000000E+02  0.51100000000E-03 0. -1.
         11   -1    0    0    0    0 -0.00000000000E+00 -0.00000000000E+00 -0.45593999997E+02  0.45594000000E+02  0.51100000000E-03 0.  1.
    9900012    2    1    2    0    0 -0.11535058910E+02  0.28522988691E+02  0.83727073154E+01  0.59301941986E+02  0.49999996276E+02 0.  0.
        -12    1    1    2    0    0  0.11535058910E+02 -0.28522988691E+02 -0.83727073154E+01  0.31886058014E+02  0.00000000000E+00 0.  1.
         11    1    3    3    0    0  0.30966165307E+01 -0.15867661867E+00 -0.12202125739E+02  0.12589919977E+02  0.51100000000E-03 0. -1.
        -11    1    3    3    0    0 -0.17920079522E+02  0.11025014557E+02  0.24271394009E+01  0.21179499569E+02  0.51100000000E-03 0.  1.
         12    1    3    3    0    0  0.32884040819E+01  0.17656650753E+02  0.18147693654E+02  0.25532522440E+02  0.00000000000E+00 0. -1.
</event>
<event>
 7    1  0.5987893E-013  0.5930193E+02  0.7816164E-02  0.1266605E+00
        -11   -1    0    0    0    0  0.00000000000E+00  0.00000000000E+00  0.45593999997E+02  0.45594000000E+02  0.51100000000E-03 0. -1.
         11   -1    0    0    0    0 -0.00000000000E+00 -0.00000000000E+00 -0.45593999997E+02  0.45594000000E+02  0.51100000000E-03 0.  1.
    9900012    2    1    2    0    0  0.17283048394E+02  0.26370253131E+02 -0.47568597704E+01  0.59301925816E+02  0.49999966786E+02 0.  0.
        -12    1    1    2    0    0 -0.17283048394E+02 -0.26370253131E+02  0.47568597704E+01  0.31886074184E+02  0.00000000000E+00 0.  1.
         11    1    3    3    0    0  0.16729244609E+02  0.17641879353E+02  0.20259975841E+02  0.31647593173E+02  0.51100000000E-03 0. -1.
        -11    1    3    3    0    0  0.10878985126E+01  0.10132925806E+02 -0.20487756990E+02  0.22882480095E+02  0.51100000000E-03 0.  1.
         12    1    3    3    0    0 -0.53409472729E+00 -0.14045520275E+01 -0.45290786217E+01  0.47718525477E+01  0.00000000000E+00 0. -1.
</event>
<event>
 7    1  0.5987893E-013  0.5930195E+02  0.7816164E-02  0.1266605E+00
        -11   -1    0    0    0    0  0.00000000000E+00  0.00000000000E+00  0.45593999997E+02  0.45594000000E+02  0.51100000000E-03 0.  1.
         11   -1    0    0    0    0 -0.00000000000E+00 -0.00000000000E+00 -0.45593999997E+02  0.45594000000E+02  0.51100000000E-03 0. -1.
    9900012    2    1    2    0    0 -0.28297668399E+02  0.78121900071E+01 -0.12447160309E+02  0.59301950553E+02  0.50000011901E+02 0.  0.
        -12    1    1    2    0    0  0.28297668399E+02 -0.78121900071E+01  0.12447160309E+02  0.31886049447E+02  0.00000000000E+00 0.  1.
         11    1    3    3    0    0 -0.57534097065E+01  0.19625594071E+02 -0.13456901552E+02  0.24481704710E+02  0.51100000000E-03 0. -1.
        -11    1    3    3    0    0 -0.23898550934E+02 -0.10586325980E+01 -0.11575205416E+00  0.23922266584E+02  0.51100000000E-03 0.  1.
        -12    1    3    3    0    0  0.13542922413E+01 -0.10754771466E+02  0.11254932964E+01  0.10897979259E+02  0.00000000000E+00 0.  1.
</event>
<event>
 7    1  0.5987893E-013  0.5930196E+02  0.7816164E-02  0.1266605E+00
        -11   -1    0    0    0    0  0.00000000000E+00  0.00000000000E+00  0.45593999997E+02  0.45594000000E+02  0.51100000000E-03 0. -1.
         11   -1    0    0    0    0 -0.00000000000E+00 -0.00000000000E+00 -0.45593999997E+02  0.45594000000E+02  0.51100000000E-03 0.  1.
    9900012    2    1    2    0    0 -0.18764415776E+02  0.11375129043E+02 -0.23134883274E+02  0.59301957845E+02  0.50000025200E+02 0.  0.
        -12    1    1    2    0    0  0.18764415776E+02 -0.11375129043E+02  0.23134883274E+02  0.31886042155E+02  0.00000000000E+00 0.  1.
         11    1    3    3    0    0 -0.15073146550E+02  0.74436537366E+01  0.10334268068E+02  0.19733342966E+02  0.51100000000E-03 0. -1.
        -11    1    3    3    0    0 -0.11678632913E+02 -0.97401423191E+00 -0.19309675288E+02  0.22587667662E+02  0.51100000000E-03 0.  1.
         12    1    3    3    0    0  0.79873636863E+01  0.49054895387E+01 -0.14159476054E+02  0.16980947217E+02  0.00000000000E+00 0. -1.
</event>
<event>
 7    1  0.5987893E-013  0.5930193E+02  0.7816164E-02  0.1266605E+00
        -11   -1    0    0    0    0  0.00000000000E+00  0.00000000000E+00  0.45593999997E+02  0.45594000000E+02  0.51100000000E-03 0.  1.
         11   -1    0    0    0    0 -0.00000000000E+00 -0.00000000000E+00 -0.45593999997E+02  0.45594000000E+02  0.51100000000E-03 0. -1.
    9900012    2    1    2    0    0  0.31755454459E+02  0.11147684531E+01 -0.26589090240E+01  0.59301931038E+02  0.49999976311E+02 0.  0.
        -12    1    1    2    0    0 -0.31755454459E+02 -0.11147684531E+01  0.26589090240E+01  0.31886068962E+02  0.00000000000E+00 0.  1.
         11    1    3    3    0    0  0.14153784335E+02  0.76811302094E+01  0.52607505425E+01  0.16941218044E+02  0.51100000000E-03 0. -1.
        -11    1    3    3    0    0  0.25215214697E+02 -0.14827639278E+02 -0.12136555268E+01  0.29276934587E+02  0.51100000000E-03 0.  1.
        -12    1    3    3    0    0 -0.76135445727E+01  0.82612775214E+01 -0.67060040397E+01  0.13083778408E+02  0.00000000000E+00 0.  1.
</event>
<event>
 7    1  0.5987893E-013  0.5930199E+02  0.7816164E-02  0.1266605E+00
        -11   -1    0    0    0    0  0.00000000000E+00  0.00000000000E+00  0.45593999997E+02  0.45594000000E+02  0.51100000000E-03 0.  1.
         11   -1    0    0    0    0 -0.00000000000E+00 -0.00000000000E+00 -0.45593999997E+02  0.45594000000E+02  0.51100000000E-03 0. -1.
    9900012    2    1    2    0    0 -0.10090091691E+02 -0.20365487794E+02 -0.22364136891E+02  0.59301989552E+02  0.50000083025E+02 0.  0.
        -12    1    1    2    0    0  0.10090091691E+02  0.20365487794E+02  0.22364136891E+02  0.31886010448E+02  0.00000000000E+00 0.  1.
         11    1    3    3    0    0  0.99739362605E+01  0.13572488344E+01  0.28358791678E+01  0.10457711979E+02  0.51100000000E-03 0. -1.
        -11    1    3    3    0    0 -0.95591507408E+01  0.92986048653E+00 -0.21570494363E+02  0.23612035717E+02  0.51100000000E-03 0.  1.
         12    1    3    3    0    0 -0.10504877211E+02 -0.22652597115E+02 -0.36295216961E+01  0.25232241855E+02  0.00000000000E+00 0. -1.
</event>
<event>
 7    1  0.5987893E-013  0.5930200E+02  0.7816164E-02  0.1266605E+00
        -11   -1    0    0    0    0  0.00000000000E+00  0.00000000000E+00  0.45593999997E+02  0.45594000000E+02  0.51100000000E-03 0. -1.
         11   -1    0    0    0    0 -0.00000000000E+00 -0.00000000000E+00 -0.45593999997E+02  0.45594000000E+02  0.51100000000E-03 0.  1.
    9900012    2    1    2    0    0  0.62266613751E+01  0.14576698090E+02  0.27667050870E+02  0.59301997695E+02  0.50000097877E+02 0.  0.
        -12    1    1    2    0    0 -0.62266613751E+01 -0.14576698090E+02 -0.27667050870E+02  0.31886002305E+02  0.00000000000E+00 0.  1.
         11    1    3    3    0    0 -0.29572757045E+01  0.25089288829E+02  0.25518901093E+02  0.35908664787E+02  0.51100000000E-03 0. -1.
        -11    1    3    3    0    0 -0.35097563358E+01 -0.83760712015E+01 -0.29492303624E+01  0.95485558228E+01  0.51100000000E-03 0.  1.
         12    1    3    3    0    0  0.12693693415E+02 -0.21365195371E+01  0.50973801397E+01  0.13844777085E+02  0.00000000000E+00 0. -1.
</event>
<event>
 7    1  0.5987893E-013  0.5930193E+02  0.7816164E-02  0.1266605E+00
        -11   -1    0    0    0    0  0.00000000000E+00  0.00000000000E+00  0.45593999997E+02  0.45594000000E+02  0.51100000000E-03 0. -1.
         11   -1    0    0    0    0 -0.00000000000E+00 -0.00000000000E+00 -0.45593999997E+02  0.45594000000E+02  0.51100000000E-03 0.  1.
    9900012    2    1    2    0    0 -0.28512448248E+02  0.13927345979E+02 -0.31289851425E+01  0.59301933778E+02  0.49999981306E+02 0.  0.
        -12    1    1    2    0    0  0.28512448248E+02 -0.13927345979E+02  0.31289851425E+01  0.31886066222E+02  0.00000000000E+00 0.  1.
         11    1    3    3    0    0  0.85627721509E+00  0.46445309776E+01 -0.19409959382E+01  0.51061085147E+01  0.51100000000E-03 0. -1.
        -11    1    3    3    0    0 -0.93701495497E+01 -0.14376764267E+02  0.11565270524E+02  0.20694118390E+02  0.51100000000E-03 0.  1.
        -12    1    3    3    0    0 -0.19998575913E+02  0.23659579269E+02 -0.12753259728E+02  0.33501706873E+02  0.00000000000E+00 0.  1.
</event>
<event>
 7    1  0.5987893E-013  0.5930191E+02  0.7816164E-02  0.1266605E+00
        -11   -1    0    0    0    0  0.00000000000E+00  0.00000000000E+00  0.45593999997E+02  0.45594000000E+02  0.51100000000E-03 0. -1.
         11   -1    0    0    0    0 -0.00000000000E+00 -0.00000000000E+00 -0.45593999997E+02  0.45594000000E+02  0.51100000000E-03 0.  1.
    9900012    2    1    2    0    0 -0.12614818292E+02  0.22042372871E+02  0.19280115764E+02  0.59301910459E+02  0.49999938779E+02 0.  0.
        -12    1    1    2    0    0  0.12614818292E+02 -0.22042372871E+02 -0.19280115764E+02  0.31886089541E+02  0.00000000000E+00 0.  1.
         11    1    3    3    0    0  0.48636201725E+01 -0.73767831872E+01  0.19051562224E+01  0.90388800117E+01  0.51100000000E-03 0. -1.
        -11    1    3    3    0    0 -0.26612205377E+02  0.18632525046E+02  0.85243249450E+01  0.33586374926E+02  0.51100000000E-03 0.  1.
         12    1    3    3    0    0  0.91337669131E+01  0.10786631012E+02  0.88506345970E+01  0.16676655522E+02  0.00000000000E+00 0. -1.
</event>
<event>
 7    1  0.5987893E-013  0.5930195E+02  0.7816164E-02  0.1266605E+00
        -11   -1    0    0    0    0  0.00000000000E+00  0.00000000000E+00  0.45593999997E+02  0.45594000000E+02  0.51100000000E-03 0.  1.
         11   -1    0    0    0    0 -0.00000000000E+00 -0.00000000000E+00 -0.45593999997E+02  0.45594000000E+02  0.51100000000E-03 0. -1.
    9900012    2    1    2    0    0  0.18150068992E+02  0.80166383529E+01 -0.24960539836E+02  0.59301952208E+02  0.50000014918E+02 0.  0.
        -12    1    1    2    0    0 -0.18150068992E+02 -0.80166383529E+01  0.24960539836E+02  0.31886047792E+02  0.00000000000E+00 0.  1.
         11    1    3    3    0    0  0.26880433588E+02  0.21705625305E+02 -0.20630699393E+02  0.40240745986E+02  0.51100000000E-03 0. -1.
        -11    1    3    3    0    0 -0.50248385093E+01 -0.36312305185E+01 -0.54886467087E+01  0.82801014533E+01  0.51100000000E-03 0.  1.
         12    1    3    3    0    0 -0.37055260867E+01 -0.10057756434E+02  0.11588062655E+01  0.10781104768E+02  0.00000000000E+00 0. -1.
</event>
<event>
 7    1  0.5987893E-013  0.5930183E+02  0.7816164E-02  0.1266605E+00
        -11   -1    0    0    0    0  0.00000000000E+00  0.00000000000E+00  0.45593999997E+02  0.45594000000E+02  0.51100000000E-03 0. -1.
         11   -1    0    0    0    0 -0.00000000000E+00 -0.00000000000E+00 -0.45593999997E+02  0.45594000000E+02  0.51100000000E-03 0.  1.
    9900012    2    1    2    0    0  0.22509362318E+02 -0.21169496753E+02  0.78682005156E+01  0.59301834284E+02  0.49999799854E+02 0.  0.
        -12    1    1    2    0    0 -0.22509362318E+02  0.21169496753E+02 -0.78682005156E+01  0.31886165716E+02  0.00000000000E+00 0.  1.
         11    1    3    3    0    0  0.26769942963E+02 -0.14741529310E+02  0.16881151653E+02  0.34912974867E+02  0.51100000000E-03 0. -1.
        -11    1    3    3    0    0 -0.38704465001E+01 -0.11466299245E+02 -0.13140372366E+02  0.17864091375E+02  0.51100000000E-03 0.  1.
         12    1    3    3    0    0 -0.39013414555E+00  0.50383318027E+01  0.41274212281E+01  0.65247680418E+01  0.00000000000E+00 0. -1.
</event>
<event>
 7    1  0.5987893E-013  0.5930191E+02  0.7816164E-02  0.1266605E+00
        -11   -1    0    0    0    0  0.00000000000E+00  0.00000000000E+00  0.45593999997E+02  0.45594000000E+02  0.51100000000E-03 0.  1.
         11   -1    0    0    0    0 -0.00000000000E+00 -0.00000000000E+00 -0.45593999997E+02  0.45594000000E+02  0.51100000000E-03 0. -1.
    9900012    2    1    2    0    0 -0.21219156804E+02  0.18091036395E+02  0.15465581973E+02  0.59301914648E+02  0.49999946418E+02 0.  0.
        -12    1    1    2    0    0  0.21219156804E+02 -0.18091036395E+02 -0.15465581973E+02  0.31886085352E+02  0.00000000000E+00 0.  1.
         11    1    3    3    0    0 -0.14876025970E+02  0.21181275897E+01 -0.99986598774E+01  0.18048706678E+02  0.51100000000E-03 0. -1.
        -11    1    3    3    0    0  0.78005984292E+01  0.10336394004E+02  0.22170837259E+02  0.25675599348E+02  0.51100000000E-03 0.  1.
        -12    1    3    3    0    0 -0.14143729263E+02  0.56365148012E+01  0.32934045914E+01  0.15577608622E+02  0.00000000000E+00 0.  1.
</event>
<event>
 7    1  0.5987893E-013  0.5930194E+02  0.7816164E-02  0.1266605E+00
        -11   -1    0    0    0    0  0.00000000000E+00  0.00000000000E+00  0.45593999997E+02  0.45594000000E+02  0.51100000000E-03 0.  1.
         11   -1    0    0    0    0 -0.00000000000E+00 -0.00000000000E+00 -0.45593999997E+02  0.45594000000E+02  0.51100000000E-03 0. -1.
    9900012    2    1    2    0    0  0.61037671300E+01 -0.11944878775E+02 -0.28927231923E+02  0.59301939584E+02  0.49999991896E+02 0.  0.
        -12    1    1    2    0    0 -0.61037671300E+01  0.11944878775E+02  0.28927231923E+02  0.31886060416E+02  0.00000000000E+00 0.  1.
         11    1    3    3    0    0 -0.17797772802E+01 -0.29249909484E+02 -0.10821922948E+02  0.31238419111E+02  0.51100000000E-03 0. -1.
        -11    1    3    3    0    0 -0.35667149341E+00  0.14704206206E+01  0.10795146572E+01  0.18586832737E+01  0.51100000000E-03 0.  1.
         12    1    3    3    0    0  0.82402159037E+01  0.15834610089E+02 -0.19184823633E+02  0.26204837199E+02  0.00000000000E+00 0. -1.
</event>
<event>
 7    1  0.5987893E-013  0.5930193E+02  0.7816164E-02  0.1266605E+00
        -11   -1    0    0    0    0  0.00000000000E+00  0.00000000000E+00  0.45593999997E+02  0.45594000000E+02  0.51100000000E-03 0.  1.
         11   -1    0    0    0    0 -0.00000000000E+00 -0.00000000000E+00 -0.45593999997E+02  0.45594000000E+02  0.51100000000E-03 0. -1.
    9900012    2    1    2    0    0  0.24103292430E+02  0.10540795350E+02 -0.18017899439E+02  0.59301925096E+02  0.49999965474E+02 0.  0.
        -12    1    1    2    0    0 -0.24103292430E+02 -0.10540795350E+02  0.18017899439E+02  0.31886074904E+02  0.00000000000E+00 0.  1.
         11    1    3    3    0    0  0.84378577872E+01  0.66291002954E+01  0.85431957115E+01  0.13715998250E+02  0.51100000000E-03 0. -1.
        -11    1    3    3    0    0  0.23027691763E+02 -0.67896498518E+01 -0.18370020279E+02  0.30229647340E+02  0.51100000000E-03 0.  1.
        -12    1    3    3    0    0 -0.73622571202E+01  0.10701344907E+02 -0.81910748717E+01  0.15356279506E+02  0.00000000000E+00 0.  1.
</event>
<event>
 7    1  0.5987893E-013  0.5930194E+02  0.7816164E-02  0.1266605E+00
        -11   -1    0    0    0    0  0.00000000000E+00  0.00000000000E+00  0.45593999997E+02  0.45594000000E+02  0.51100000000E-03 0.  1.
         11   -1    0    0    0    0 -0.00000000000E+00 -0.00000000000E+00 -0.45593999997E+02  0.45594000000E+02  0.51100000000E-03 0. -1.
    9900012    2    1    2    0    0  0.22953251080E+02  0.21792541148E+02 -0.38670932253E+01  0.59301937295E+02  0.49999987721E+02 0.  0.
        -12    1    1    2    0    0 -0.22953251080E+02 -0.21792541148E+02  0.38670932253E+01  0.31886062705E+02  0.00000000000E+00 0.  1.
         11    1    3    3    0    0  0.44566778904E+01  0.15892315078E+02 -0.61579637885E+01  0.17616701582E+02  0.51100000000E-03 0. -1.
        -11    1    3    3    0    0  0.10342873765E+02  0.12614490754E+02  0.17010450883E+02  0.23568110959E+02  0.51100000000E-03 0.  1.
        -12    1    3    3    0    0  0.81536994252E+01 -0.67142646843E+01 -0.14719580319E+02  0.18117124754E+02  0.00000000000E+00 0.  1.
</event>
<event>
 7    1  0.5987893E-013  0.5930196E+02  0.7816164E-02  0.1266605E+00
        -11   -1    0    0    0    0  0.00000000000E+00  0.00000000000E+00  0.45593999997E+02  0.45594000000E+02  0.51100000000E-03 0.  1.
         11   -1    0    0    0    0 -0.00000000000E+00 -0.00000000000E+00 -0.45593999997E+02  0.45594000000E+02  0.51100000000E-03 0. -1.
    9900012    2    1    2    0    0  0.30819692062E+02 -0.76518518030E+01 -0.28836660975E+01  0.59301956267E+02  0.50000022321E+02 0.  0.
        -12    1    1    2    0    0 -0.30819692062E+02  0.76518518030E+01  0.28836660975E+01  0.31886043733E+02  0.00000000000E+00 0.  1.
         11    1    3    3    0    0  0.22228647886E+01  0.17174250649E+01 -0.40968247084E+01  0.49673584202E+01  0.51100000000E-03 0. -1.
        -11    1    3    3    0    0  0.38663293948E+02 -0.68537342453E+01  0.10242479101E+02  0.40579950104E+02  0.51100000000E-03 0.  1.
        -12    1    3    3    0    0 -0.10066466675E+02 -0.25155426226E+01 -0.90293204903E+01  0.13754647743E+02  0.00000000000E+00 0.  1.
</event>
<event>
 7    1  0.5987893E-013  0.5930197E+02  0.7816164E-02  0.1266605E+00
        -11   -1    0    0    0    0  0.00000000000E+00  0.00000000000E+00  0.45593999997E+02  0.45594000000E+02  0.51100000000E-03 0.  1.
         11   -1    0    0    0    0 -0.00000000000E+00 -0.00000000000E+00 -0.45593999997E+02  0.45594000000E+02  0.51100000000E-03 0. -1.
    9900012    2    1    2    0    0 -0.25165093134E+02 -0.12980262181E+02  0.14661167638E+02  0.59301969277E+02  0.50000046049E+02 0.  0.
        -12    1    1    2    0    0  0.25165093134E+02  0.12980262181E+02 -0.14661167638E+02  0.31886030723E+02  0.00000000000E+00 0.  1.
         11    1    3    3    0    0 -0.35079000046E+00  0.73182013045E+01 -0.81818842779E+01  0.10982820883E+02  0.51100000000E-03 0. -1.
        -11    1    3    3    0    0 -0.28602579176E+02 -0.10727024867E+02  0.10625412480E+02  0.32343098007E+02  0.51100000000E-03 0.  1.
        -12    1    3    3    0    0  0.37882760425E+01 -0.95714386182E+01  0.12217639435E+02  0.15976050387E+02  0.00000000000E+00 0.  1.
</event>
<event>
 7    1  0.5987893E-013  0.5930196E+02  0.7816164E-02  0.1266605E+00
        -11   -1    0    0    0    0  0.00000000000E+00  0.00000000000E+00  0.45593999997E+02  0.45594000000E+02  0.51100000000E-03 0.  1.
         11   -1    0    0    0    0 -0.00000000000E+00 -0.00000000000E+00 -0.45593999997E+02  0.45594000000E+02  0.51100000000E-03 0. -1.
    9900012    2    1    2    0    0  0.29268526443E+02 -0.79340266272E+01  0.98551621761E+01  0.59301958537E+02  0.50000026462E+02 0.  0.
        -12    1    1    2    0    0 -0.29268526443E+02  0.79340266272E+01 -0.98551621761E+01  0.31886041463E+02  0.00000000000E+00 0.  1.
         11    1    3    3    0    0  0.22080807789E+02 -0.39351757969E+01  0.93417672729E+01  0.24296425606E+02  0.51100000000E-03 0. -1.
        -11    1    3    3    0    0 -0.46361590693E+01 -0.14497190883E+01 -0.14750763048E+02  0.15529992502E+02  0.51100000000E-03 0.  1.
        -12    1    3    3    0    0  0.11823877723E+02 -0.25491317420E+01  0.15264157951E+02  0.19475540429E+02  0.00000000000E+00 0.  1.
</event>
<event>
 7    1  0.5987893E-013  0.5930194E+02  0.7816164E-02  0.1266605E+00
        -11   -1    0    0    0    0  0.00000000000E+00  0.00000000000E+00  0.45593999997E+02  0.45594000000E+02  0.51100000000E-03 0.  1.
         11   -1    0    0    0    0 -0.00000000000E+00 -0.00000000000E+00 -0.45593999997E+02  0.45594000000E+02  0.51100000000E-03 0. -1.
    9900012    2    1    2    0    0 -0.21002068791E+02  0.19628554618E+02 -0.13796877953E+02  0.59301938920E+02  0.49999990685E+02 0.  0.
        -12    1    1    2    0    0  0.21002068791E+02 -0.19628554618E+02  0.13796877953E+02  0.31886061080E+02  0.00000000000E+00 0.  1.
         11    1    3    3    0    0 -0.26452099651E+02  0.23192962116E+02 -0.15784000020E+02  0.38558549305E+02  0.51100000000E-03 0. -1.
        -11    1    3    3    0    0  0.83241394338E+01  0.28290690929E+01  0.77104827085E+01  0.11693864763E+02  0.51100000000E-03 0.  1.
         12    1    3    3    0    0 -0.28741085743E+01 -0.63934765903E+01 -0.57233606416E+01  0.90495248517E+01  0.00000000000E+00 0. -1.
</event>
<event>
 7    1  0.5987893E-013  0.5930194E+02  0.7816164E-02  0.1266605E+00
        -11   -1    0    0    0    0  0.00000000000E+00  0.00000000000E+00  0.45593999997E+02  0.45594000000E+02  0.51100000000E-03 0. -1.
         11   -1    0    0    0    0 -0.00000000000E+00 -0.00000000000E+00 -0.45593999997E+02  0.45594000000E+02  0.51100000000E-03 0.  1.
    9900012    2    1    2    0    0 -0.25640315016E+02  0.55629460558E+01  0.18120395723E+02  0.59301939345E+02  0.49999991460E+02 0.  0.
        -12    1    1    2    0    0  0.25640315016E+02 -0.55629460558E+01 -0.18120395723E+02  0.31886060655E+02  0.00000000000E+00 0.  1.
         11    1    3    3    0    0 -0.10395845571E+02 -0.99499335933E+01  0.20570041112E+02  0.25103811966E+02  0.51100000000E-03 0. -1.
        -11    1    3    3    0    0 -0.87664240571E+01  0.16574961258E+02  0.91544968366E+01  0.20865865524E+02  0.51100000000E-03 0.  1.
        -12    1    3    3    0    0 -0.64780453876E+01 -0.10620816094E+01 -0.11604142225E+02  0.13332261855E+02  0.00000000000E+00 0.  1.
</event>
<event>
 7    1  0.5987893E-013  0.5930197E+02  0.7816164E-02  0.1266605E+00
        -11   -1    0    0    0    0  0.00000000000E+00  0.00000000000E+00  0.45593999997E+02  0.45594000000E+02  0.51100000000E-03 0. -1.
         11   -1    0    0    0    0 -0.00000000000E+00 -0.00000000000E+00 -0.45593999997E+02  0.45594000000E+02  0.51100000000E-03 0.  1.
    9900012    2    1    2    0    0  0.22841021934E+02  0.81906236319E+01  0.20686232161E+02  0.59301971720E+02  0.50000050503E+02 0.  0.
        -12    1    1    2    0    0 -0.22841021934E+02 -0.81906236319E+01 -0.20686232161E+02  0.31886028280E+02  0.00000000000E+00 0.  1.
         11    1    3    3    0    0 -0.40207806593E+00  0.19001344972E+02  0.10347866309E+01  0.19033747954E+02  0.51100000000E-03 0. -1.
        -11    1    3    3    0    0 -0.18705108456E+01 -0.94141269023E+01  0.28205488048E+01  0.10004003797E+02  0.51100000000E-03 0.  1.
         12    1    3    3    0    0  0.25113610846E+02 -0.13965944381E+01  0.16830896725E+02  0.30264219969E+02  0.00000000000E+00 0. -1.
</event>
<event>
 7    1  0.5987893E-013  0.5930194E+02  0.7816164E-02  0.1266605E+00
        -11   -1    0    0    0    0  0.00000000000E+00  0.00000000000E+00  0.45593999997E+02  0.45594000000E+02  0.51100000000E-03 0. -1.
         11   -1    0    0    0    0 -0.00000000000E+00 -0.00000000000E+00 -0.45593999997E+02  0.45594000000E+02  0.51100000000E-03 0.  1.
    9900012    2    1    2    0    0 -0.14300156058E+02  0.30321343195E+01  0.28337828844E+02  0.59301939638E+02  0.49999991994E+02 0.  0.
        -12    1    1    2    0    0  0.14300156058E+02 -0.30321343195E+01 -0.28337828844E+02  0.31886060362E+02  0.00000000000E+00 0.  1.
         11    1    3    3    0    0  0.70682066126E+01 -0.13746512489E+02  0.22386848250E+02  0.27204726155E+02  0.51100000000E-03 0. -1.
        -11    1    3    3    0    0 -0.21067036935E+02  0.95075774493E+01  0.81290822222E+01  0.24500939823E+02  0.51100000000E-03 0.  1.
        -12    1    3    3    0    0 -0.30132573613E+00  0.72710693593E+01 -0.21781016282E+01  0.75962736608E+01  0.00000000000E+00 0.  1.
</event>
<event>
 7    1  0.5987893E-013  0.5930194E+02  0.7816164E-02  0.1266605E+00
        -11   -1    0    0    0    0  0.00000000000E+00  0.00000000000E+00  0.45593999997E+02  0.45594000000E+02  0.51100000000E-03 0.  1.
         11   -1    0    0    0    0 -0.00000000000E+00 -0.00000000000E+00 -0.45593999997E+02  0.45594000000E+02  0.51100000000E-03 0. -1.
    9900012    2    1    2    0    0 -0.18474942963E+02 -0.15250807218E+02 -0.21043060920E+02  0.59301936411E+02  0.49999986109E+02 0.  0.
        -12    1    1    2    0    0  0.18474942963E+02  0.15250807218E+02  0.21043060920E+02  0.31886063589E+02  0.00000000000E+00 0.  1.
         11    1    3    3    0    0 -0.19463988091E+02  0.11514346876E+02 -0.22697512346E+02  0.32040662967E+02  0.51100000000E-03 0. -1.
        -11    1    3    3    0    0  0.23898006459E+01 -0.11299804994E+02 -0.62279257375E+00  0.11566529768E+02  0.51100000000E-03 0.  1.
         12    1    3    3    0    0 -0.14007555187E+01 -0.15465349101E+02  0.22772439998E+01  0.15694743676E+02  0.00000000000E+00 0. -1.
</event>
<event>
 7    1  0.5987893E-013  0.5930194E+02  0.7816164E-02  0.1266605E+00
        -11   -1    0    0    0    0  0.00000000000E+00  0.00000000000E+00  0.45593999997E+02  0.45594000000E+02  0.51100000000E-03 0.  1.
         11   -1    0    0    0    0 -0.00000000000E+00 -0.00000000000E+00 -0.45593999997E+02  0.45594000000E+02  0.51100000000E-03 0. -1.
    9900012    2    1    2    0    0 -0.14104598600E+00  0.15872577950E+02 -0.27654333620E+02  0.59301940464E+02  0.49999993500E+02 0.  0.
        -12    1    1    2    0    0  0.14104598600E+00 -0.15872577950E+02  0.27654333620E+02  0.31886059536E+02  0.00000000000E+00 0.  1.
         11    1    3    3    0    0 -0.46227696749E+01  0.73839500874E+01 -0.24272445267E+02  0.25788453189E+02  0.51100000000E-03 0. -1.
        -11    1    3    3    0    0  0.16164353157E+02  0.12863169540E+02 -0.28409535309E+00  0.20659819797E+02  0.51100000000E-03 0.  1.
         12    1    3    3    0    0 -0.11682629468E+02 -0.43745416773E+01 -0.30977930003E+01  0.12853667479E+02  0.00000000000E+00 0. -1.
</event>
<event>
 7    1  0.5987893E-013  0.5930193E+02  0.7816164E-02  0.1266605E+00
        -11   -1    0    0    0    0  0.00000000000E+00  0.00000000000E+00  0.45593999997E+02  0.45594000000E+02  0.51100000000E-03 0. -1.
         11   -1    0    0    0    0 -0.00000000000E+00 -0.00000000000E+00 -0.45593999997E+02  0.45594000000E+02  0.51100000000E-03 0.  1.
    9900012    2    1    2    0    0 -0.11743094724E+02 -0.12543298960E+01  0.29618375283E+02  0.59301925114E+02  0.49999965507E+02 0.  0.
        -12    1    1    2    0    0  0.11743094724E+02  0.12543298960E+01 -0.29618375283E+02  0.31886074886E+02  0.00000000000E+00 0.  1.
         11    1    3    3    0    0  0.68619476405E+01  0.71277344627E+01  0.47083778496E+01  0.10957177840E+02  0.51100000000E-03 0. -1.
        -11    1    3    3    0    0 -0.82181819040E+01 -0.16143339837E+02 -0.22445479182E+01  0.18253326561E+02  0.51100000000E-03 0.  1.
        -12    1    3    3    0    0 -0.10386860461E+02  0.77612754785E+01  0.27154545352E+02  0.30091420713E+02  0.00000000000E+00 0.  1.
</event>
<event>
 7    1  0.5987893E-013  0.5930194E+02  0.7816164E-02  0.1266605E+00
        -11   -1    0    0    0    0  0.00000000000E+00  0.00000000000E+00  0.45593999997E+02  0.45594000000E+02  0.51100000000E-03 0. -1.
         11   -1    0    0    0    0 -0.00000000000E+00 -0.00000000000E+00 -0.45593999997E+02  0.45594000000E+02  0.51100000000E-03 0.  1.
    9900012    2    1    2    0    0  0.26916484358E+02  0.15790546356E+01  0.17021461362E+02  0.59301942065E+02  0.49999996420E+02 0.  0.
        -12    1    1    2    0    0 -0.26916484358E+02 -0.15790546356E+01 -0.17021461362E+02  0.31886057935E+02  0.00000000000E+00 0.  1.
         11    1    3    3    0    0  0.15739664960E+02  0.18567031806E+02  0.62996693132E+01  0.25142743622E+02  0.51100000000E-03 0. -1.
        -11    1    3    3    0    0  0.49443851981E+01 -0.21132975080E+02  0.14168272481E+02  0.25918902872E+02  0.51100000000E-03 0.  1.
        -12    1    3    3    0    0  0.62324341999E+01  0.41449979094E+01 -0.34464804325E+01  0.82402955709E+01  0.00000000000E+00 0.  1.
</event>
<event>
 7    1  0.5987893E-013  0.5930194E+02  0.7816164E-02  0.1266605E+00
        -11   -1    0    0    0    0  0.00000000000E+00  0.00000000000E+00  0.45593999997E+02  0.45594000000E+02  0.51100000000E-03 0. -1.
         11   -1    0    0    0    0 -0.00000000000E+00 -0.00000000000E+00 -0.45593999997E+02  0.45594000000E+02  0.51100000000E-03 0.  1.
    9900012    2    1    2    0    0 -0.13092844189E+02  0.26301025661E+02 -0.12391692012E+02  0.59301944260E+02  0.50000000423E+02 0.  0.
        -12    1    1    2    0    0  0.13092844189E+02 -0.26301025661E+02  0.12391692012E+02  0.31886055740E+02  0.00000000000E+00 0.  1.
         11    1    3    3    0    0  0.13031415166E+02  0.96131246094E+01 -0.16740102263E+01  0.16279811316E+02  0.51100000000E-03 0. -1.
        -11    1    3    3    0    0 -0.24534749743E+02  0.21314513564E+01 -0.13548573650E+02  0.28108021596E+02  0.51100000000E-03 0.  1.
         12    1    3    3    0    0 -0.15895096108E+01  0.14556449695E+02  0.28308918643E+01  0.14914111347E+02  0.00000000000E+00 0. -1.
</event>
<event>
 7    1  0.5987893E-013  0.5930172E+02  0.7816164E-02  0.1266606E+00
        -11   -1    0    0    0    0  0.00000000000E+00  0.00000000000E+00  0.45593999997E+02  0.45594000000E+02  0.51100000000E-03 0.  1.
         11   -1    0    0    0    0 -0.00000000000E+00 -0.00000000000E+00 -0.45593999997E+02  0.45594000000E+02  0.51100000000E-03 0. -1.
    9900012    2    1    2    0    0  0.31239106206E+02 -0.63913266933E+01  0.62710521994E-01  0.59301721665E+02  0.49999594462E+02 0.  0.
        -12    1    1    2    0    0 -0.31239106206E+02  0.63913266933E+01 -0.62710521994E-01  0.31886278335E+02  0.00000000000E+00 0.  1.
         11    1    3    3    0    0  0.26995724661E+02 -0.22243886360E+02  0.11045064766E+02  0.36681781395E+02  0.51100000000E-03 0. -1.
        -11    1    3    3    0    0 -0.20662763961E+01  0.15205882863E+01 -0.54295913366E+01  0.60051768688E+01  0.51100000000E-03 0.  1.
         12    1    3    3    0    0  0.63096579414E+01  0.14331971380E+02 -0.55527629075E+01  0.16614763401E+02  0.00000000000E+00 0. -1.
</event>
<event>
 7    1  0.5987893E-013  0.5930191E+02  0.7816164E-02  0.1266605E+00
        -11   -1    0    0    0    0  0.00000000000E+00  0.00000000000E+00  0.45593999997E+02  0.45594000000E+02  0.51100000000E-03 0.  1.
         11   -1    0    0    0    0 -0.00000000000E+00 -0.00000000000E+00 -0.45593999997E+02  0.45594000000E+02  0.51100000000E-03 0. -1.
    9900012    2    1    2    0    0  0.15109525441E+02 -0.20066951340E+02 -0.19640331547E+02  0.59301907132E+02  0.49999932711E+02 0.  0.
        -12    1    1    2    0    0 -0.15109525441E+02  0.20066951340E+02  0.19640331547E+02  0.31886092868E+02  0.00000000000E+00 0.  1.
         11    1    3    3    0    0 -0.11101128071E+02 -0.14995548217E+02 -0.34806436229E+01  0.18979367510E+02  0.51100000000E-03 0. -1.
        -11    1    3    3    0    0  0.18253858816E+02  0.88340669046E+01 -0.52757008132E+01  0.20954167106E+02  0.51100000000E-03 0.  1.
         12    1    3    3    0    0  0.79567946958E+01 -0.13905470027E+02 -0.10883987111E+02  0.19368372516E+02  0.00000000000E+00 0. -1.
</event>
<event>
 7    1  0.5987893E-013  0.5930194E+02  0.7816164E-02  0.1266605E+00
        -11   -1    0    0    0    0  0.00000000000E+00  0.00000000000E+00  0.45593999997E+02  0.45594000000E+02  0.51100000000E-03 0.  1.
         11   -1    0    0    0    0 -0.00000000000E+00 -0.00000000000E+00 -0.45593999997E+02  0.45594000000E+02  0.51100000000E-03 0. -1.
    9900012    2    1    2    0    0 -0.66358520949E+01 -0.24795304411E+02 -0.18917696723E+02  0.59301938732E+02  0.49999990342E+02 0.  0.
        -12    1    1    2    0    0  0.66358520949E+01  0.24795304411E+02  0.18917696723E+02  0.31886061268E+02  0.00000000000E+00 0.  1.
         11    1    3    3    0    0 -0.17257246505E+02 -0.24352959258E+02  0.74049924462E+01  0.30752448601E+02  0.51100000000E-03 0. -1.
        -11    1    3    3    0    0  0.38708910446E+01  0.32440541435E+00 -0.62556835372E+01  0.73636005548E+01  0.51100000000E-03 0.  1.
         12    1    3    3    0    0  0.67505033653E+01 -0.76675056719E+00 -0.20067005632E+02  0.21185889576E+02  0.00000000000E+00 0. -1.
</event>
<event>
 7    1  0.6249408E-013  0.5930196E+02  0.7816164E-02  0.1266605E+00
        -11   -1    0    0    0    0  0.00000000000E+00  0.00000000000E+00  0.45593999997E+02  0.45594000000E+02  0.51100000000E-03 0. -1.
         11   -1    0    0    0    0 -0.00000000000E+00 -0.00000000000E+00 -0.45593999997E+02  0.45594000000E+02  0.51100000000E-03 0.  1.
    9900012    2    1    2    0    0  0.73568492902E+00  0.31289350683E+02  0.60954875413E+01  0.59301958119E+02  0.50000025699E+02 0.  0.
        -12    1    1    2    0    0 -0.73568492902E+00 -0.31289350683E+02 -0.60954875413E+01  0.31886041881E+02  0.00000000000E+00 0.  1.
         11    1    3    3    0    0  0.48253084030E+01  0.18717504969E+02  0.22895948987E+01  0.19464604761E+02  0.51100000000E-03 0. -1.
        -11    1    3    3    0    0  0.10216547828E+02 -0.68732083502E+01 -0.61020972256E+01  0.13742431857E+02  0.51100000000E-03 0.  1.
        -12    1    3    3    0    0 -0.14306171302E+02  0.19445054064E+02  0.99079898682E+01  0.26094921500E+02  0.00000000000E+00 0.  1.
</event>
<event>
 7    1  0.5987893E-013  0.5930200E+02  0.7816164E-02  0.1266605E+00
        -11   -1    0    0    0    0  0.00000000000E+00  0.00000000000E+00  0.45593999997E+02  0.45594000000E+02  0.51100000000E-03 0.  1.
         11   -1    0    0    0    0 -0.00000000000E+00 -0.00000000000E+00 -0.45593999997E+02  0.45594000000E+02  0.51100000000E-03 0. -1.
    9900012    2    1    2    0    0 -0.69203787531E+01 -0.11897435634E+02 -0.28762408652E+02  0.59302003572E+02  0.50000108595E+02 0.  0.
        -12    1    1    2    0    0  0.69203787531E+01  0.11897435634E+02  0.28762408652E+02  0.31885996428E+02  0.00000000000E+00 0.  1.
         11    1    3    3    0    0  0.19791747477E+02 -0.13441192955E+01 -0.14645819415E+02  0.24658060578E+02  0.51100000000E-03 0. -1.
        -11    1    3    3    0    0 -0.67849043926E+01 -0.68962315090E+01 -0.10107195388E+02  0.13991009095E+02  0.51100000000E-03 0.  1.
         12    1    3    3    0    0 -0.19927221837E+02 -0.36570848295E+01 -0.40093938495E+01  0.20652933899E+02  0.00000000000E+00 0. -1.
</event>
<event>
 7    1  0.5987893E-013  0.5930194E+02  0.7816164E-02  0.1266605E+00
        -11   -1    0    0    0    0  0.00000000000E+00  0.00000000000E+00  0.45593999997E+02  0.45594000000E+02  0.51100000000E-03 0.  1.
         11   -1    0    0    0    0 -0.00000000000E+00 -0.00000000000E+00 -0.45593999997E+02  0.45594000000E+02  0.51100000000E-03 0. -1.
    9900012    2    1    2    0    0 -0.10373632928E+02  0.26401089160E+02 -0.14563349920E+02  0.59301938313E+02  0.49999989578E+02 0.  0.
        -12    1    1    2    0    0  0.10373632928E+02 -0.26401089160E+02  0.14563349920E+02  0.31886061687E+02  0.00000000000E+00 0.  1.
         11    1    3    3    0    0 -0.74478152587E+01  0.30504036098E+02 -0.18454322533E+01  0.31454280962E+02  0.51100000000E-03 0. -1.
        -11    1    3    3    0    0  0.20501525321E+01 -0.40235749098E+01 -0.19172598675E+02  0.19697228756E+02  0.51100000000E-03 0.  1.
        -12    1    3    3    0    0 -0.49759702018E+01 -0.79372027395E-01  0.64546810082E+01  0.81504285952E+01  0.00000000000E+00 0.  1.
</event>
<event>
 7    1  0.5987893E-013  0.5930202E+02  0.7816164E-02  0.1266605E+00
        -11   -1    0    0    0    0  0.00000000000E+00  0.00000000000E+00  0.45593999997E+02  0.45594000000E+02  0.51100000000E-03 0.  1.
         11   -1    0    0    0    0 -0.00000000000E+00 -0.00000000000E+00 -0.45593999997E+02  0.45594000000E+02  0.51100000000E-03 0. -1.
    9900012    2    1    2    0    0  0.31969381638E+01  0.64740843427E+01 -0.31057714852E+02  0.59302018228E+02  0.50000135324E+02 0.  0.
        -12    1    1    2    0    0 -0.31969381638E+01 -0.64740843427E+01  0.31057714852E+02  0.31885981772E+02  0.00000000000E+00 0.  1.
         11    1    3    3    0    0 -0.42661110097E+01 -0.17294057241E+02 -0.23693658346E+02  0.29642428461E+02  0.51100000000E-03 0.  1.
        -11    1    3    3    0    0  0.11234833538E+02  0.21653581334E+02 -0.59449858390E+01  0.25108602631E+02  0.51100000000E-03 0. -1.
         12    1    3    3    0    0 -0.37717843648E+01  0.21145602504E+01 -0.14190706676E+01  0.45509871354E+01  0.00000000000E+00 0. -1.
</event>
<event>
 7    1  0.5987893E-013  0.5930194E+02  0.7816164E-02  0.1266605E+00
        -11   -1    0    0    0    0  0.00000000000E+00  0.00000000000E+00  0.45593999997E+02  0.45594000000E+02  0.51100000000E-03 0.  1.
         11   -1    0    0    0    0 -0.00000000000E+00 -0.00000000000E+00 -0.45593999997E+02  0.45594000000E+02  0.51100000000E-03 0. -1.
    9900012    2    1    2    0    0  0.12952511262E+02 -0.26363182363E+02 -0.12407089321E+02  0.59301940387E+02  0.49999993359E+02 0.  0.
        -12    1    1    2    0    0 -0.12952511262E+02  0.26363182363E+02  0.12407089321E+02  0.31886059613E+02  0.00000000000E+00 0.  1.
         11    1    3    3    0    0 -0.13898919664E+02 -0.20413161106E+02  0.45494103853E+01  0.25111237510E+02  0.51100000000E-03 0. -1.
        -11    1    3    3    0    0  0.18999245404E+02  0.80389285705E+00 -0.85441327072E+01  0.20847536392E+02  0.51100000000E-03 0.  1.
         12    1    3    3    0    0  0.78521855211E+01 -0.67539141134E+01 -0.84123669986E+01  0.13343166484E+02  0.00000000000E+00 0. -1.
</event>
<event>
 7    1  0.5987893E-013  0.5930195E+02  0.7816164E-02  0.1266605E+00
        -11   -1    0    0    0    0  0.00000000000E+00  0.00000000000E+00  0.45593999997E+02  0.45594000000E+02  0.51100000000E-03 0.  1.
         11   -1    0    0    0    0 -0.00000000000E+00 -0.00000000000E+00 -0.45593999997E+02  0.45594000000E+02  0.51100000000E-03 0. -1.
    9900012    2    1    2    0    0 -0.93054082890E+01  0.71631111852E+01 -0.29644888469E+02  0.59301949796E+02  0.50000010520E+02 0.  0.
        -12    1    1    2    0    0  0.93054082890E+01 -0.71631111852E+01  0.29644888469E+02  0.31886050204E+02  0.00000000000E+00 0.  1.
         11    1    3    3    0    0  0.77077930793E+01 -0.13738001210E+01  0.81706627435E+01  0.11316233068E+02  0.51100000000E-03 0.  1.
        -11    1    3    3    0    0  0.25239276013E+01 -0.25923022580E+01 -0.16880287700E+02  0.17263671528E+02  0.51100000000E-03 0. -1.
         12    1    3    3    0    0 -0.19537128970E+02  0.11129213564E+02 -0.20935263512E+02  0.30722045200E+02  0.00000000000E+00 0. -1.
</event>
<event>
 7    1  0.5987893E-013  0.5930194E+02  0.7816164E-02  0.1266605E+00
        -11   -1    0    0    0    0  0.00000000000E+00  0.00000000000E+00  0.45593999997E+02  0.45594000000E+02  0.51100000000E-03 0.  1.
         11   -1    0    0    0    0 -0.00000000000E+00 -0.00000000000E+00 -0.45593999997E+02  0.45594000000E+02  0.51100000000E-03 0. -1.
    9900012    2    1    2    0    0 -0.47607102152E+01 -0.80680697476E+00 -0.31518333151E+02  0.59301943112E+02  0.49999998330E+02 0.  0.
        -12    1    1    2    0    0  0.47607102152E+01  0.80680697476E+00  0.31518333151E+02  0.31886056888E+02  0.00000000000E+00 0.  1.
         11    1    3    3    0    0  0.69394908971E+01 -0.12980887453E+02 -0.25875494989E+02  0.29769131901E+02  0.51100000000E-03 0. -1.
        -11    1    3    3    0    0 -0.49120623422E+01  0.18450195428E+02 -0.83182167191E+00  0.19110991480E+02  0.51100000000E-03 0.  1.
         12    1    3    3    0    0 -0.67881387701E+01 -0.62761149501E+01 -0.48110164904E+01  0.10421819731E+02  0.00000000000E+00 0. -1.
</event>
<event>
 7    1  0.5987893E-013  0.5930200E+02  0.7816164E-02  0.1266605E+00
        -11   -1    0    0    0    0  0.00000000000E+00  0.00000000000E+00  0.45593999997E+02  0.45594000000E+02  0.51100000000E-03 0.  1.
         11   -1    0    0    0    0 -0.00000000000E+00 -0.00000000000E+00 -0.45593999997E+02  0.45594000000E+02  0.51100000000E-03 0. -1.
    9900012    2    1    2    0    0 -0.45146291476E+01  0.31383166231E+02  0.33811017926E+01  0.59302002315E+02  0.50000106301E+02 0.  0.
        -12    1    1    2    0    0  0.45146291476E+01 -0.31383166231E+02 -0.33811017926E+01  0.31885997685E+02  0.00000000000E+00 0.  1.
         11    1    3    3    0    0  0.35485859003E+01  0.13298757506E+02 -0.53248282419E+01  0.14758157377E+02  0.51100000000E-03 0. -1.
        -11    1    3    3    0    0  0.49845903790E+01 -0.90245075233E+01  0.10091303910E+02  0.14426444196E+02  0.51100000000E-03 0.  1.
        -12    1    3    3    0    0 -0.13047805427E+02  0.27108916249E+02 -0.13853738755E+01  0.30117400742E+02  0.00000000000E+00 0.  1.
</event>
<event>
 7    1  0.5987893E-013  0.5930194E+02  0.7816164E-02  0.1266605E+00
        -11   -1    0    0    0    0  0.00000000000E+00  0.00000000000E+00  0.45593999997E+02  0.45594000000E+02  0.51100000000E-03 0.  1.
         11   -1    0    0    0    0 -0.00000000000E+00 -0.00000000000E+00 -0.45593999997E+02  0.45594000000E+02  0.51100000000E-03 0. -1.
    9900012    2    1    2    0    0  0.20860429960E+02  0.71471518258E+01 -0.23032183681E+02  0.59301940311E+02  0.49999993222E+02 0.  0.
        -12    1    1    2    0    0 -0.20860429960E+02 -0.71471518258E+01  0.23032183681E+02  0.31886059689E+02  0.00000000000E+00 0.  1.
         11    1    3    3    0    0  0.64567680599E+01  0.18346994427E+02 -0.10170098411E+02  0.21948415893E+02  0.51100000000E-03 0. -1.
        -11    1    3    3    0    0  0.21535072982E+02 -0.11290779182E+02 -0.20508764607E+01  0.24401785947E+02  0.51100000000E-03 0.  1.
        -12    1    3    3    0    0 -0.71314110818E+01  0.90936580531E-01 -0.10811208810E+02  0.12951738471E+02  0.00000000000E+00 0.  1.
</event>
<event>
 7    1  0.5987893E-013  0.5930194E+02  0.7816164E-02  0.1266605E+00
        -11   -1    0    0    0    0  0.00000000000E+00  0.00000000000E+00  0.45593999997E+02  0.45594000000E+02  0.51100000000E-03 0.  1.
         11   -1    0    0    0    0 -0.00000000000E+00 -0.00000000000E+00 -0.45593999997E+02  0.45594000000E+02  0.51100000000E-03 0. -1.
    9900012    2    1    2    0    0  0.27794867669E+02  0.11893070175E+02 -0.10135136717E+02  0.59301940614E+02  0.49999993774E+02 0.  0.
        -12    1    1    2    0    0 -0.27794867669E+02 -0.11893070175E+02  0.10135136717E+02  0.31886059386E+02  0.00000000000E+00 0.  1.
         11    1    3    3    0    0  0.88573833355E+01  0.22414372714E+02  0.91791419598E+01  0.25789804014E+02  0.51100000000E-03 0. -1.
        -11    1    3    3    0    0  0.19582403931E+02 -0.72748075646E+01 -0.91200967948E+01  0.22794067970E+02  0.51100000000E-03 0.  1.
         12    1    3    3    0    0 -0.64491959774E+00 -0.32464949750E+01 -0.10194181882E+02  0.10718068630E+02  0.00000000000E+00 0. -1.
</event>
<event>
 7    1  0.5987893E-013  0.5930195E+02  0.7816164E-02  0.1266605E+00
        -11   -1    0    0    0    0  0.00000000000E+00  0.00000000000E+00  0.45593999997E+02  0.45594000000E+02  0.51100000000E-03 0. -1.
         11   -1    0    0    0    0 -0.00000000000E+00 -0.00000000000E+00 -0.45593999997E+02  0.45594000000E+02  0.51100000000E-03 0.  1.
    9900012    2    1    2    0    0 -0.56294951760E+01  0.14016003895E+02  0.28081681766E+02  0.59301946122E+02  0.50000003820E+02 0.  0.
        -12    1    1    2    0    0  0.56294951760E+01 -0.14016003895E+02 -0.28081681766E+02  0.31886053878E+02  0.00000000000E+00 0.  1.
         11    1    3    3    0    0  0.20250280760E+01 -0.46848292862E+01  0.30586525255E+02  0.31009416177E+02  0.51100000000E-03 0. -1.
        -11    1    3    3    0    0  0.10413258723E+01  0.42058647160E+00 -0.73846186768E+01  0.74695278175E+01  0.51100000000E-03 0.  1.
         12    1    3    3    0    0 -0.86958491242E+01  0.18280246710E+02  0.48797751869E+01  0.20823002128E+02  0.00000000000E+00 0. -1.
</event>
<event>
 7    1  0.5987893E-013  0.5930195E+02  0.7816164E-02  0.1266605E+00
        -11   -1    0    0    0    0  0.00000000000E+00  0.00000000000E+00  0.45593999997E+02  0.45594000000E+02  0.51100000000E-03 0. -1.
         11   -1    0    0    0    0 -0.00000000000E+00 -0.00000000000E+00 -0.45593999997E+02  0.45594000000E+02  0.51100000000E-03 0.  1.
    9900012    2    1    2    0    0  0.64943488488E+01 -0.30974828320E+01  0.31063629395E+02  0.59301952298E+02  0.50000015082E+02 0.  0.
        -12    1    1    2    0    0 -0.64943488488E+01  0.30974828320E+01 -0.31063629395E+02  0.31886047702E+02  0.00000000000E+00 0.  1.
         11    1    3    3    0    0  0.49382153700E+01 -0.43914524013E+01  0.10877506148E+02  0.12727567148E+02  0.51100000000E-03 0. -1.
        -11    1    3    3    0    0 -0.17768119830E+01  0.12426241885E+02 -0.88104508815E+01  0.15335990128E+02  0.51100000000E-03 0.  1.
        -12    1    3    3    0    0  0.33329454618E+01 -0.11132272316E+02  0.28996574129E+02  0.31238395022E+02  0.00000000000E+00 0.  1.
</event>
<event>
 7    1  0.5987893E-013  0.5930194E+02  0.7816164E-02  0.1266605E+00
        -11   -1    0    0    0    0  0.00000000000E+00  0.00000000000E+00  0.45593999997E+02  0.45594000000E+02  0.51100000000E-03 0. -1.
         11   -1    0    0    0    0 -0.00000000000E+00 -0.00000000000E+00 -0.45593999997E+02  0.45594000000E+02  0.51100000000E-03 0.  1.
    9900012    2    1    2    0    0 -0.25089040203E+02 -0.13486957740E+02  0.14330487964E+02  0.59301939524E+02  0.49999991787E+02 0.  0.
        -12    1    1    2    0    0  0.25089040203E+02  0.13486957740E+02 -0.14330487964E+02  0.31886060476E+02  0.00000000000E+00 0.  1.
         11    1    3    3    0    0 -0.22598248628E+02 -0.26408399846E+02  0.15810626209E+02  0.38184556104E+02  0.51100000000E-03 0. -1.
        -11    1    3    3    0    0  0.25885491198E+01  0.14288603570E+02  0.22149314089E+01  0.14689135439E+02  0.51100000000E-03 0.  1.
        -12    1    3    3    0    0 -0.50793406942E+01 -0.13671614649E+01 -0.36950696541E+01  0.64282479812E+01  0.00000000000E+00 0.  1.
</event>
<event>
 7    1  0.5987893E-013  0.5930195E+02  0.7816164E-02  0.1266605E+00
        -11   -1    0    0    0    0  0.00000000000E+00  0.00000000000E+00  0.45593999997E+02  0.45594000000E+02  0.51100000000E-03 0.  1.
         11   -1    0    0    0    0 -0.00000000000E+00 -0.00000000000E+00 -0.45593999997E+02  0.45594000000E+02  0.51100000000E-03 0. -1.
    9900012    2    1    2    0    0 -0.27782849448E+02 -0.94482166194E+01 -0.12472551893E+02  0.59301951774E+02  0.50000014128E+02 0.  0.
        -12    1    1    2    0    0  0.27782849448E+02  0.94482166194E+01  0.12472551893E+02  0.31886048226E+02  0.00000000000E+00 0.  1.
         11    1    3    3    0    0 -0.27059842041E+02 -0.11196381994E+02 -0.16236076411E+02  0.33484387384E+02  0.51100000000E-03 0. -1.
        -11    1    3    3    0    0 -0.54683310913E+01  0.18572066012E+01  0.13666060000E+02  0.14836207651E+02  0.51100000000E-03 0.  1.
        -12    1    3    3    0    0  0.47453236842E+01 -0.10904122705E+00 -0.99025354821E+01  0.10981356739E+02  0.00000000000E+00 0.  1.
</event>
<event>
 7    1  0.5987893E-013  0.5930198E+02  0.7816164E-02  0.1266605E+00
        -11   -1    0    0    0    0  0.00000000000E+00  0.00000000000E+00  0.45593999997E+02  0.45594000000E+02  0.51100000000E-03 0. -1.
         11   -1    0    0    0    0 -0.00000000000E+00 -0.00000000000E+00 -0.45593999997E+02  0.45594000000E+02  0.51100000000E-03 0.  1.
    9900012    2    1    2    0    0  0.24240647127E+02 -0.65400229853E+00  0.20704623940E+02  0.59301981988E+02  0.50000069231E+02 0.  0.
        -12    1    1    2    0    0 -0.24240647127E+02  0.65400229853E+00 -0.20704623940E+02  0.31886018012E+02  0.00000000000E+00 0.  1.
         11    1    3    3    0    0 -0.10830020744E+02  0.87605430838E+00  0.59612423980E+01  0.12393273645E+02  0.51100000000E-03 0. -1.
        -11    1    3    3    0    0  0.38535340061E+02 -0.49136488423E+01  0.15824399211E+02  0.41946727992E+02  0.51100000000E-03 0.  1.
        -12    1    3    3    0    0 -0.34646721901E+01  0.33835922354E+01 -0.10810176696E+01  0.49619803509E+01  0.00000000000E+00 0.  1.
</event>
<event>
 7    1  0.5987893E-013  0.5930194E+02  0.7816164E-02  0.1266605E+00
        -11   -1    0    0    0    0  0.00000000000E+00  0.00000000000E+00  0.45593999997E+02  0.45594000000E+02  0.51100000000E-03 0.  1.
         11   -1    0    0    0    0 -0.00000000000E+00 -0.00000000000E+00 -0.45593999997E+02  0.45594000000E+02  0.51100000000E-03 0. -1.
    9900012    2    1    2    0    0  0.28554597635E+02 -0.13955536981E+02 -0.25688402203E+01  0.59301937236E+02  0.49999987614E+02 0.  0.
        -12    1    1    2    0    0 -0.28554597635E+02  0.13955536981E+02  0.25688402203E+01  0.31886062764E+02  0.00000000000E+00 0.  1.
         11    1    3    3    0    0  0.29449245467E+02 -0.16239984000E+02 -0.15533435449E+02  0.37044335006E+02  0.51100000000E-03 0. -1.
        -11    1    3    3    0    0  0.70995775262E+01  0.26702243840E+01  0.11999842731E+02  0.14196137684E+02  0.51100000000E-03 0.  1.
         12    1    3    3    0    0 -0.79942253582E+01 -0.38577736458E+00  0.96475249788E+00  0.80614645465E+01  0.00000000000E+00 0. -1.
</event>
<event>
 7    1  0.5987893E-013  0.5930194E+02  0.7816164E-02  0.1266605E+00
        -11   -1    0    0    0    0  0.00000000000E+00  0.00000000000E+00  0.45593999997E+02  0.45594000000E+02  0.51100000000E-03 0.  1.
         11   -1    0    0    0    0 -0.00000000000E+00 -0.00000000000E+00 -0.45593999997E+02  0.45594000000E+02  0.51100000000E-03 0. -1.
    9900012    2    1    2    0    0  0.11566454148E+01 -0.27304100137E+02 -0.16427684399E+02  0.59301944621E+02  0.50000001083E+02 0.  0.
        -12    1    1    2    0    0 -0.11566454148E+01  0.27304100137E+02  0.16427684399E+02  0.31886055379E+02  0.00000000000E+00 0.  1.
         11    1    3    3    0    0 -0.98052648375E+01  0.59649617739E+01  0.37170359085E+01  0.12064010266E+02  0.51100000000E-03 0. -1.
        -11    1    3    3    0    0  0.48352731507E+01 -0.12453827091E+02 -0.21701541721E+02  0.25484006534E+02  0.51100000000E-03 0.  1.
        -12    1    3    3    0    0  0.61266371016E+01 -0.20815234819E+02  0.15568214133E+01  0.21753927822E+02  0.00000000000E+00 0.  1.
</event>
<event>
 7    1  0.5987893E-013  0.5930191E+02  0.7816164E-02  0.1266605E+00
        -11   -1    0    0    0    0  0.00000000000E+00  0.00000000000E+00  0.45593999997E+02  0.45594000000E+02  0.51100000000E-03 0. -1.
         11   -1    0    0    0    0 -0.00000000000E+00 -0.00000000000E+00 -0.45593999997E+02  0.45594000000E+02  0.51100000000E-03 0.  1.
    9900012    2    1    2    0    0 -0.11165581434E+02 -0.10820085510E+02  0.27838429060E+02  0.59301912254E+02  0.49999942053E+02 0.  0.
        -12    1    1    2    0    0  0.11165581434E+02  0.10820085510E+02 -0.27838429060E+02  0.31886087746E+02  0.00000000000E+00 0.  1.
         11    1    3    3    0    0 -0.27172387159E+02 -0.66852982374E+01  0.25797483919E+02  0.38059716410E+02  0.51100000000E-03 0.  1.
        -11    1    3    3    0    0  0.10630725090E+02 -0.76533923738E+01  0.51862991155E+01  0.14088450218E+02  0.51100000000E-03 0. -1.
        -12    1    3    3    0    0  0.53760806350E+01  0.35186051015E+01 -0.31453539740E+01  0.71537456256E+01  0.00000000000E+00 0.  1.
</event>
<event>
 7    1  0.5987893E-013  0.5930195E+02  0.7816164E-02  0.1266605E+00
        -11   -1    0    0    0    0  0.00000000000E+00  0.00000000000E+00  0.45593999997E+02  0.45594000000E+02  0.51100000000E-03 0.  1.
         11   -1    0    0    0    0 -0.00000000000E+00 -0.00000000000E+00 -0.45593999997E+02  0.45594000000E+02  0.51100000000E-03 0. -1.
    9900012    2    1    2    0    0  0.14082643599E+02  0.49198544811E+01 -0.28181448660E+02  0.59301954973E+02  0.50000019962E+02 0.  0.
        -12    1    1    2    0    0 -0.14082643599E+02 -0.49198544811E+01  0.28181448660E+02  0.31886045027E+02  0.00000000000E+00 0.  1.
         11    1    3    3    0    0 -0.60603078599E+01  0.11983387785E+02  0.16460177748E+01  0.13529164385E+02  0.51100000000E-03 0. -1.
        -11    1    3    3    0    0  0.17554683654E+02  0.16419705990E+01 -0.35701510693E+01  0.17989134626E+02  0.51100000000E-03 0.  1.
         12    1    3    3    0    0  0.25882678047E+01 -0.87055039033E+01 -0.26257315366E+02  0.27783655963E+02  0.00000000000E+00 0. -1.
</event>
<event>
 7    1  0.5987893E-013  0.5930194E+02  0.7816164E-02  0.1266605E+00
        -11   -1    0    0    0    0  0.00000000000E+00  0.00000000000E+00  0.45593999997E+02  0.45594000000E+02  0.51100000000E-03 0. -1.
         11   -1    0    0    0    0 -0.00000000000E+00 -0.00000000000E+00 -0.45593999997E+02  0.45594000000E+02  0.51100000000E-03 0.  1.
    9900012    2    1    2    0    0 -0.23222732597E+02  0.15383750613E+02 -0.15516617877E+02  0.59301944701E+02  0.50000001228E+02 0.  0.
        -12    1    1    2    0    0  0.23222732597E+02 -0.15383750613E+02  0.15516617877E+02  0.31886055299E+02  0.00000000000E+00 0.  1.
         11    1    3    3    0    0 -0.46220054069E+01  0.14031278970E+02  0.36448327785E+01  0.15215930131E+02  0.51100000000E-03 0. -1.
        -11    1    3    3    0    0 -0.57351930584E+01 -0.15227761298E+02 -0.16076340456E+02  0.22874131159E+02  0.51100000000E-03 0.  1.
        -12    1    3    3    0    0 -0.12865534132E+02  0.16580232941E+02 -0.30851101991E+01  0.21211883410E+02  0.00000000000E+00 0.  1.
</event>
<event>
 7    1  0.5987893E-013  0.5930194E+02  0.7816164E-02  0.1266605E+00
        -11   -1    0    0    0    0  0.00000000000E+00  0.00000000000E+00  0.45593999997E+02  0.45594000000E+02  0.51100000000E-03 0.  1.
         11   -1    0    0    0    0 -0.00000000000E+00 -0.00000000000E+00 -0.45593999997E+02  0.45594000000E+02  0.51100000000E-03 0. -1.
    9900012    2    1    2    0    0 -0.28517717068E+02 -0.12173558183E+02 -0.74340676704E+01  0.59301936151E+02  0.49999985635E+02 0.  0.
        -12    1    1    2    0    0  0.28517717068E+02  0.12173558183E+02  0.74340676704E+01  0.31886063849E+02  0.00000000000E+00 0.  1.
         11    1    3    3    0    0 -0.30506213675E+02 -0.12420786609E+02 -0.12758222446E+02  0.35322475182E+02  0.51100000000E-03 0. -1.
        -11    1    3    3    0    0  0.12617752916E+02  0.56418789372E+00  0.40797407856E+01  0.13272915346E+02  0.51100000000E-03 0.  1.
         12    1    3    3    0    0 -0.10629256310E+02 -0.31695946783E+00  0.12444139898E+01  0.10706545623E+02  0.00000000000E+00 0. -1.
</event>
<event>
 7    1  0.5987893E-013  0.5930191E+02  0.7816164E-02  0.1266605E+00
        -11   -1    0    0    0    0  0.00000000000E+00  0.00000000000E+00  0.45593999997E+02  0.45594000000E+02  0.51100000000E-03 0. -1.
         11   -1    0    0    0    0 -0.00000000000E+00 -0.00000000000E+00 -0.45593999997E+02  0.45594000000E+02  0.51100000000E-03 0.  1.
    9900012    2    1    2    0    0 -0.31369644313E+02 -0.57129157549E+01  0.17485853515E+00  0.59301912653E+02  0.49999942781E+02 0.  0.
        -12    1    1    2    0    0  0.31369644313E+02  0.57129157549E+01 -0.17485853515E+00  0.31886087347E+02  0.00000000000E+00 0.  1.
         11    1    3    3    0    0  0.59571379034E+01 -0.65117979786E+01  0.15288367041E+02  0.17652908314E+02  0.51100000000E-03 0. -1.
        -11    1    3    3    0    0 -0.51821171059E+01 -0.80000849540E+00 -0.64625875362E+01  0.83222226128E+01  0.51100000000E-03 0.  1.
         12    1    3    3    0    0 -0.32144665111E+02  0.15988907190E+01 -0.86509209696E+01  0.33326781726E+02  0.00000000000E+00 0. -1.
</event>
<event>
 7    1  0.5987893E-013  0.5930193E+02  0.7816164E-02  0.1266605E+00
        -11   -1    0    0    0    0  0.00000000000E+00  0.00000000000E+00  0.45593999997E+02  0.45594000000E+02  0.51100000000E-03 0.  1.
         11   -1    0    0    0    0 -0.00000000000E+00 -0.00000000000E+00 -0.45593999997E+02  0.45594000000E+02  0.51100000000E-03 0. -1.
    9900012    2    1    2    0    0 -0.11934793261E+02  0.28816191079E+02 -0.66263913296E+01  0.59301933756E+02  0.49999981266E+02 0.  0.
        -12    1    1    2    0    0  0.11934793261E+02 -0.28816191079E+02  0.66263913296E+01  0.31886066244E+02  0.00000000000E+00 0.  1.
         11    1    3    3    0    0  0.56961542713E+01 -0.80838312424E+01 -0.11099359034E+02  0.14865741564E+02  0.51100000000E-03 0. -1.
        -11    1    3    3    0    0 -0.24137679737E+01  0.77415117189E+01  0.79579762377E+01  0.11361631291E+02  0.51100000000E-03 0.  1.
         12    1    3    3    0    0 -0.15217179559E+02  0.29158510603E+02 -0.34850085336E+01  0.33074560901E+02  0.00000000000E+00 0. -1.
</event>
<event>
 7    1  0.5987893E-013  0.5930192E+02  0.7816164E-02  0.1266605E+00
        -11   -1    0    0    0    0  0.00000000000E+00  0.00000000000E+00  0.45593999997E+02  0.45594000000E+02  0.51100000000E-03 0. -1.
         11   -1    0    0    0    0 -0.00000000000E+00 -0.00000000000E+00 -0.45593999997E+02  0.45594000000E+02  0.51100000000E-03 0.  1.
    9900012    2    1    2    0    0 -0.73333693121E+01  0.30875183879E+02 -0.31091471794E+01  0.59301920259E+02  0.49999956652E+02 0.  0.
        -12    1    1    2    0    0  0.73333693121E+01 -0.30875183879E+02  0.31091471794E+01  0.31886079741E+02  0.00000000000E+00 0.  1.
         11    1    3    3    0    0 -0.55414865208E+01  0.20773576218E+02  0.44705060413E+01  0.21959848958E+02  0.51100000000E-03 0. -1.
        -11    1    3    3    0    0  0.23654988931E+01  0.68915916993E+01 -0.21373886685E+02  0.22581688454E+02  0.51100000000E-03 0.  1.
        -12    1    3    3    0    0 -0.41573816845E+01  0.32100159623E+01  0.13794233464E+02  0.14760382848E+02  0.00000000000E+00 0.  1.
</event>
<event>
 7    1  0.5987893E-013  0.5930197E+02  0.7816164E-02  0.1266605E+00
        -11   -1    0    0    0    0  0.00000000000E+00  0.00000000000E+00  0.45593999997E+02  0.45594000000E+02  0.51100000000E-03 0. -1.
         11   -1    0    0    0    0 -0.00000000000E+00 -0.00000000000E+00 -0.45593999997E+02  0.45594000000E+02  0.51100000000E-03 0.  1.
    9900012    2    1    2    0    0 -0.64260906479E+01 -0.10789256585E+02  0.29308980115E+02  0.59301968355E+02  0.50000044368E+02 0.  0.
        -12    1    1    2    0    0  0.64260906479E+01  0.10789256585E+02 -0.29308980115E+02  0.31886031645E+02  0.00000000000E+00 0.  1.
         11    1    3    3    0    0  0.11934682283E+02  0.62543545620E+01  0.31958013565E+00  0.13477971803E+02  0.51100000000E-03 0. -1.
        -11    1    3    3    0    0 -0.70260749281E+01 -0.13256748861E+02  0.30290639423E+02  0.33802809885E+02  0.51100000000E-03 0.  1.
        -12    1    3    3    0    0 -0.11334698003E+02 -0.37868622865E+01 -0.13012394437E+01  0.12021186667E+02  0.00000000000E+00 0.  1.
</event>
<event>
 7    1  0.5987893E-013  0.5930195E+02  0.7816164E-02  0.1266605E+00
        -11   -1    0    0    0    0  0.00000000000E+00  0.00000000000E+00  0.45593999997E+02  0.45594000000E+02  0.51100000000E-03 0.  1.
         11   -1    0    0    0    0 -0.00000000000E+00 -0.00000000000E+00 -0.45593999997E+02  0.45594000000E+02  0.51100000000E-03 0. -1.
    9900012    2    1    2    0    0  0.54056948756E+01 -0.28312135843E+02 -0.13635315917E+02  0.59301946415E+02  0.50000004354E+02 0.  0.
        -12    1    1    2    0    0 -0.54056948756E+01  0.28312135843E+02  0.13635315917E+02  0.31886053585E+02  0.00000000000E+00 0.  1.
         11    1    3    3    0    0 -0.21167706248E+01 -0.29447780008E+01 -0.55236946506E+01  0.66078467149E+01  0.51100000000E-03 0. -1.
        -11    1    3    3    0    0  0.92414458740E+01 -0.33492588748E+02  0.70077908697E+01  0.35443856394E+02  0.51100000000E-03 0.  1.
        -12    1    3    3    0    0 -0.17189803735E+01  0.81252309068E+01 -0.15119412136E+02  0.17250243307E+02  0.00000000000E+00 0.  1.
</event>
<event>
 7    1  0.5987893E-013  0.5930197E+02  0.7816164E-02  0.1266605E+00
        -11   -1    0    0    0    0  0.00000000000E+00  0.00000000000E+00  0.45593999997E+02  0.45594000000E+02  0.51100000000E-03 0.  1.
         11   -1    0    0    0    0 -0.00000000000E+00 -0.00000000000E+00 -0.45593999997E+02  0.45594000000E+02  0.51100000000E-03 0. -1.
    9900012    2    1    2    0    0  0.23219405912E+02 -0.92071795805E+01 -0.19819327134E+02  0.59301973362E+02  0.50000053498E+02 0.  0.
        -12    1    1    2    0    0 -0.23219405912E+02  0.92071795805E+01  0.19819327134E+02  0.31886026638E+02  0.00000000000E+00 0.  1.
         11    1    3    3    0    0  0.89961388797E+01 -0.11001036587E+02 -0.19064679938E+02  0.23778463830E+02  0.51100000000E-03 0. -1.
        -11    1    3    3    0    0 -0.37025175287E+01 -0.91952086754E+01  0.80094351053E+01  0.12744079002E+02  0.51100000000E-03 0.  1.
        -12    1    3    3    0    0  0.17925784561E+02  0.10989065682E+02 -0.87640823017E+01  0.22779430530E+02  0.00000000000E+00 0.  1.
</event>
<event>
 7    1  0.5987893E-013  0.5930190E+02  0.7816164E-02  0.1266605E+00
        -11   -1    0    0    0    0  0.00000000000E+00  0.00000000000E+00  0.45593999997E+02  0.45594000000E+02  0.51100000000E-03 0.  1.
         11   -1    0    0    0    0 -0.00000000000E+00 -0.00000000000E+00 -0.45593999997E+02  0.45594000000E+02  0.51100000000E-03 0. -1.
    9900012    2    1    2    0    0 -0.67658893087E+01  0.24930750988E+02 -0.18692351957E+02  0.59301896057E+02  0.49999912513E+02 0.  0.
        -12    1    1    2    0    0  0.67658893087E+01 -0.24930750988E+02  0.18692351957E+02  0.31886103943E+02  0.00000000000E+00 0.  1.
         11    1    3    3    0    0  0.12119857698E+02  0.29527521631E+01 -0.21403658248E+02  0.24773499604E+02  0.51100000000E-03 0. -1.
        -11    1    3    3    0    0 -0.16412034795E+02  0.25355785529E+02  0.18979406251E+01  0.30263392487E+02  0.51100000000E-03 0.  1.
        -12    1    3    3    0    0 -0.24737122120E+01 -0.33777867041E+01  0.81336566655E+00  0.42650039665E+01  0.00000000000E+00 0.  1.
</event>
<event>
 7    1  0.5987893E-013  0.5930190E+02  0.7816164E-02  0.1266605E+00
        -11   -1    0    0    0    0  0.00000000000E+00  0.00000000000E+00  0.45593999997E+02  0.45594000000E+02  0.51100000000E-03 0.  1.
         11   -1    0    0    0    0 -0.00000000000E+00 -0.00000000000E+00 -0.45593999997E+02  0.45594000000E+02  0.51100000000E-03 0. -1.
    9900012    2    1    2    0    0  0.24349323059E+02  0.13703403789E+02 -0.15363937630E+02  0.59301899763E+02  0.49999919272E+02 0.  0.
        -12    1    1    2    0    0 -0.24349323059E+02 -0.13703403789E+02  0.15363937630E+02  0.31886100237E+02  0.00000000000E+00 0.  1.
         11    1    3    3    0    0  0.23753000818E+02  0.21129330345E+02 -0.20256682097E+02  0.37695978810E+02  0.51100000000E-03 0. -1.
        -11    1    3    3    0    0  0.15689093067E+01  0.39542298286E+01  0.86025174350E+01  0.95969118174E+01  0.51100000000E-03 0.  1.
         12    1    3    3    0    0 -0.97258706530E+00 -0.11380156385E+02 -0.37097729681E+01  0.12009009135E+02  0.00000000000E+00 0. -1.
</event>
<event>
 7    1  0.5987893E-013  0.5930194E+02  0.7816164E-02  0.1266605E+00
        -11   -1    0    0    0    0  0.00000000000E+00  0.00000000000E+00  0.45593999997E+02  0.45594000000E+02  0.51100000000E-03 0.  1.
         11   -1    0    0    0    0 -0.00000000000E+00 -0.00000000000E+00 -0.45593999997E+02  0.45594000000E+02  0.51100000000E-03 0. -1.
    9900012    2    1    2    0    0 -0.65946766885E+01 -0.28731356982E+02 -0.12154855210E+02  0.59301935021E+02  0.49999983574E+02 0.  0.
        -12    1    1    2    0    0  0.65946766885E+01  0.28731356982E+02  0.12154855210E+02  0.31886064979E+02  0.00000000000E+00 0.  1.
         11    1    3    3    0    0  0.15140744638E+02 -0.13869229143E+02 -0.25536769183E+01  0.20691035046E+02  0.51100000000E-03 0. -1.
        -11    1    3    3    0    0 -0.20316799028E+02 -0.16143572441E+02  0.27661237183E+01  0.26096718080E+02  0.51100000000E-03 0.  1.
         12    1    3    3    0    0 -0.14186222984E+01  0.12814446015E+01 -0.12367302010E+02  0.12514181895E+02  0.00000000000E+00 0. -1.
</event>
<event>
 7    1  0.5987893E-013  0.5930193E+02  0.7816164E-02  0.1266605E+00
        -11   -1    0    0    0    0  0.00000000000E+00  0.00000000000E+00  0.45593999997E+02  0.45594000000E+02  0.51100000000E-03 0. -1.
         11   -1    0    0    0    0 -0.00000000000E+00 -0.00000000000E+00 -0.45593999997E+02  0.45594000000E+02  0.51100000000E-03 0.  1.
    9900012    2    1    2    0    0  0.15210167414E+02 -0.11311881463E+01  0.28001652794E+02  0.59301931904E+02  0.49999977890E+02 0.  0.
        -12    1    1    2    0    0 -0.15210167414E+02  0.11311881463E+01 -0.28001652794E+02  0.31886068096E+02  0.00000000000E+00 0.  1.
         11    1    3    3    0    0  0.27488473407E+02 -0.11467351496E+01  0.18978620100E+02  0.33423333061E+02  0.51100000000E-03 0. -1.
        -11    1    3    3    0    0 -0.10897364941E+02 -0.85975219923E+01  0.99904918142E+01  0.17102042978E+02  0.51100000000E-03 0.  1.
         12    1    3    3    0    0 -0.13809410511E+01  0.86130689956E+01 -0.96745912054E+00  0.87765558654E+01  0.00000000000E+00 0. -1.
</event>
<event>
 7    1  0.5987893E-013  0.5930195E+02  0.7816164E-02  0.1266605E+00
        -11   -1    0    0    0    0  0.00000000000E+00  0.00000000000E+00  0.45593999997E+02  0.45594000000E+02  0.51100000000E-03 0.  1.
         11   -1    0    0    0    0 -0.00000000000E+00 -0.00000000000E+00 -0.45593999997E+02  0.45594000000E+02  0.51100000000E-03 0. -1.
    9900012    2    1    2    0    0 -0.18039791964E+02  0.12948717097E+02 -0.22882677992E+02  0.59301947867E+02  0.50000007002E+02 0.  0.
        -12    1    1    2    0    0  0.18039791964E+02 -0.12948717097E+02  0.22882677992E+02  0.31886052133E+02  0.00000000000E+00 0.  1.
         11    1    3    3    0    0 -0.19612617042E+02 -0.92183242589E+01 -0.27843393939E+02  0.35282953897E+02  0.51100000000E-03 0. -1.
        -11    1    3    3    0    0  0.27924212089E+01  0.58672093951E+01 -0.10919563719E+01  0.65889400721E+01  0.51100000000E-03 0.  1.
         12    1    3    3    0    0 -0.12195961304E+01  0.16299831961E+02  0.60526723194E+01  0.17430053898E+02  0.00000000000E+00 0. -1.
</event>
<event>
 7    1  0.5987893E-013  0.5930192E+02  0.7816164E-02  0.1266605E+00
        -11   -1    0    0    0    0  0.00000000000E+00  0.00000000000E+00  0.45593999997E+02  0.45594000000E+02  0.51100000000E-03 0. -1.
         11   -1    0    0    0    0 -0.00000000000E+00 -0.00000000000E+00 -0.45593999997E+02  0.45594000000E+02  0.51100000000E-03 0.  1.
    9900012    2    1    2    0    0  0.21449445341E+02  0.21724784361E+02  0.92020266040E+01  0.59301917541E+02  0.49999951694E+02 0.  0.
        -12    1    1    2    0    0 -0.21449445341E+02 -0.21724784361E+02 -0.92020266040E+01  0.31886082459E+02  0.00000000000E+00 0.  1.
         11    1    3    3    0    0 -0.53918524871E+01 -0.45515203819E+01  0.60041511320E+01  0.92648929895E+01  0.51100000000E-03 0. -1.
        -11    1    3    3    0    0  0.13721517091E+02  0.25608037218E+02 -0.10655872945E+02  0.30945100257E+02  0.51100000000E-03 0.  1.
        -12    1    3    3    0    0  0.13119780737E+02  0.66826752529E+00  0.13853748417E+02  0.19091924295E+02  0.00000000000E+00 0.  1.
</event>
<event>
 7    1  0.5987893E-013  0.5930194E+02  0.7816164E-02  0.1266605E+00
        -11   -1    0    0    0    0  0.00000000000E+00  0.00000000000E+00  0.45593999997E+02  0.45594000000E+02  0.51100000000E-03 0. -1.
         11   -1    0    0    0    0 -0.00000000000E+00 -0.00000000000E+00 -0.45593999997E+02  0.45594000000E+02  0.51100000000E-03 0.  1.
    9900012    2    1    2    0    0 -0.17532333714E+01 -0.12583687149E+02  0.29245470476E+02  0.59301944225E+02  0.50000000360E+02 0.  0.
        -12    1    1    2    0    0  0.17532333714E+01  0.12583687149E+02 -0.29245470476E+02  0.31886055775E+02  0.00000000000E+00 0.  1.
         11    1    3    3    0    0  0.83772516802E+01 -0.13426421835E+02  0.22703222566E+02  0.27674599620E+02  0.51100000000E-03 0. -1.
        -11    1    3    3    0    0 -0.14371184855E+02 -0.92944885240E+01 -0.26275597200E+01  0.17315384529E+02  0.51100000000E-03 0.  1.
         12    1    3    3    0    0  0.42406998030E+01  0.10137223210E+02  0.91698076302E+01  0.14311960076E+02  0.00000000000E+00 0. -1.
</event>
<event>
 7    1  0.5987893E-013  0.5930196E+02  0.7816164E-02  0.1266605E+00
        -11   -1    0    0    0    0  0.00000000000E+00  0.00000000000E+00  0.45593999997E+02  0.45594000000E+02  0.51100000000E-03 0.  1.
         11   -1    0    0    0    0 -0.00000000000E+00 -0.00000000000E+00 -0.45593999997E+02  0.45594000000E+02  0.51100000000E-03 0. -1.
    9900012    2    1    2    0    0 -0.29478911221E+01 -0.47417253782E+01 -0.31393396321E+02  0.59301963021E+02  0.50000034640E+02 0.  0.
        -12    1    1    2    0    0  0.29478911221E+01  0.47417253782E+01  0.31393396321E+02  0.31886036979E+02  0.00000000000E+00 0.  1.
         11    1    3    3    0    0 -0.21525612884E+02 -0.52049009036E+01 -0.35348466989E+01  0.22426282458E+02  0.51100000000E-03 0.  1.
        -11    1    3    3    0    0  0.19316839616E+02 -0.29717108279E+01 -0.26869507994E+02  0.33225619905E+02  0.51100000000E-03 0. -1.
         12    1    3    3    0    0 -0.73911785415E+00  0.34348863533E+01 -0.98904162832E+00  0.36500606577E+01  0.00000000000E+00 0. -1.
</event>
<event>
 7    1  0.5987893E-013  0.5930178E+02  0.7816164E-02  0.1266605E+00
        -11   -1    0    0    0    0  0.00000000000E+00  0.00000000000E+00  0.45593999997E+02  0.45594000000E+02  0.51100000000E-03 0.  1.
         11   -1    0    0    0    0 -0.00000000000E+00 -0.00000000000E+00 -0.45593999997E+02  0.45594000000E+02  0.51100000000E-03 0. -1.
    9900012    2    1    2    0    0  0.16255768596E+02 -0.93640423250E+01 -0.25783636837E+02  0.59301776802E+02  0.49999695019E+02 0.  0.
        -12    1    1    2    0    0 -0.16255768596E+02  0.93640423250E+01  0.25783636837E+02  0.31886223198E+02  0.00000000000E+00 0.  1.
         11    1    3    3    0    0 -0.63940839737E+01 -0.73998384337E+01 -0.91119029098E+01  0.13366700925E+02  0.51100000000E-03 0. -1.
        -11    1    3    3    0    0  0.20036323606E+02  0.13035418235E+02 -0.76471408195E+00  0.23915709902E+02  0.51100000000E-03 0.  1.
         12    1    3    3    0    0  0.26135289639E+01 -0.14999622127E+02 -0.15907019845E+02  0.22019365975E+02  0.00000000000E+00 0. -1.
</event>
<event>
 7    1  0.5987893E-013  0.5930200E+02  0.7816164E-02  0.1266605E+00
        -11   -1    0    0    0    0  0.00000000000E+00  0.00000000000E+00  0.45593999997E+02  0.45594000000E+02  0.51100000000E-03 0.  1.
         11   -1    0    0    0    0 -0.00000000000E+00 -0.00000000000E+00 -0.45593999997E+02  0.45594000000E+02  0.51100000000E-03 0. -1.
    9900012    2    1    2    0    0 -0.19633345243E+02 -0.25074401600E+02 -0.15884809808E+01  0.59301997854E+02  0.50000098166E+02 0.  0.
        -12    1    1    2    0    0  0.19633345243E+02  0.25074401600E+02  0.15884809808E+01  0.31886002146E+02  0.00000000000E+00 0.  1.
         11    1    3    3    0    0 -0.12732370446E+02 -0.71941363995E+01 -0.13366010285E+02  0.19812094460E+02  0.51100000000E-03 0. -1.
        -11    1    3    3    0    0  0.12186227910E+01 -0.16338055103E+02  0.21305799894E+02  0.26876647771E+02  0.51100000000E-03 0.  1.
        -12    1    3    3    0    0 -0.81195975878E+01 -0.15422100977E+01 -0.95282705892E+01  0.12613255622E+02  0.00000000000E+00 0.  1.
</event>
<event>
 7    1  0.5987893E-013  0.5930195E+02  0.7816164E-02  0.1266605E+00
        -11   -1    0    0    0    0  0.00000000000E+00  0.00000000000E+00  0.45593999997E+02  0.45594000000E+02  0.51100000000E-03 0.  1.
         11   -1    0    0    0    0 -0.00000000000E+00 -0.00000000000E+00 -0.45593999997E+02  0.45594000000E+02  0.51100000000E-03 0. -1.
    9900012    2    1    2    0    0 -0.20397161655E+02 -0.24182635884E+02 -0.39845211224E+01  0.59301945204E+02  0.50000002145E+02 0.  0.
        -12    1    1    2    0    0  0.20397161655E+02  0.24182635884E+02  0.39845211224E+01  0.31886054796E+02  0.00000000000E+00 0.  1.
         11    1    3    3    0    0 -0.25539907941E+02 -0.12395410018E+02 -0.38532638705E+01  0.28649271018E+02  0.51100000000E-03 0. -1.
        -11    1    3    3    0    0  0.59353614684E+01 -0.14384922166E+02 -0.11253228321E+02  0.19203896724E+02  0.51100000000E-03 0.  1.
        -12    1    3    3    0    0 -0.79261518250E+00  0.25976963010E+01  0.11121971069E+02  0.11448777461E+02  0.00000000000E+00 0.  1.
</event>
<event>
 7    1  0.5987893E-013  0.5930194E+02  0.7816164E-02  0.1266605E+00
        -11   -1    0    0    0    0  0.00000000000E+00  0.00000000000E+00  0.45593999997E+02  0.45594000000E+02  0.51100000000E-03 0. -1.
         11   -1    0    0    0    0 -0.00000000000E+00 -0.00000000000E+00 -0.45593999997E+02  0.45594000000E+02  0.51100000000E-03 0.  1.
    9900012    2    1    2    0    0  0.21534239325E+02 -0.76682444115E+01  0.22230501698E+02  0.59301942837E+02  0.49999997829E+02 0.  0.
        -12    1    1    2    0    0 -0.21534239325E+02  0.76682444115E+01 -0.22230501698E+02  0.31886057163E+02  0.00000000000E+00 0.  1.
         11    1    3    3    0    0  0.55364291131E+01 -0.84973414607E+01  0.46954899950E+01  0.11176067545E+02  0.51100000000E-03 0. -1.
        -11    1    3    3    0    0  0.17529513237E+02  0.18114208895E+02  0.17650702598E+02  0.30772645332E+02  0.51100000000E-03 0.  1.
        -12    1    3    3    0    0 -0.15317030252E+01 -0.17285111846E+02 -0.11569089576E+00  0.17353229960E+02  0.00000000000E+00 0.  1.
</event>
<event>
 7    1  0.5987893E-013  0.5930197E+02  0.7816164E-02  0.1266605E+00
        -11   -1    0    0    0    0  0.00000000000E+00  0.00000000000E+00  0.45593999997E+02  0.45594000000E+02  0.51100000000E-03 0.  1.
         11   -1    0    0    0    0 -0.00000000000E+00 -0.00000000000E+00 -0.45593999997E+02  0.45594000000E+02  0.51100000000E-03 0. -1.
    9900012    2    1    2    0    0 -0.22374241023E+02 -0.22545151004E+01 -0.22605966475E+02  0.59301965127E+02  0.50000038480E+02 0.  0.
        -12    1    1    2    0    0  0.22374241023E+02  0.22545151004E+01  0.22605966475E+02  0.31886034873E+02  0.00000000000E+00 0.  1.
         11    1    3    3    0    0 -0.14755126147E+02 -0.70072685855E+01  0.78109725994E+01  0.18105989447E+02  0.51100000000E-03 0. -1.
        -11    1    3    3    0    0 -0.39166851193E+00 -0.10669253808E+02 -0.13215516481E+02  0.16989298313E+02  0.51100000000E-03 0.  1.
        -12    1    3    3    0    0 -0.72274463633E+01  0.15422007294E+02 -0.17201422593E+02  0.24206677366E+02  0.00000000000E+00 0.  1.
</event>
<event>
 7    1  0.5987893E-013  0.5930198E+02  0.7816164E-02  0.1266605E+00
        -11   -1    0    0    0    0  0.00000000000E+00  0.00000000000E+00  0.45593999997E+02  0.45594000000E+02  0.51100000000E-03 0.  1.
         11   -1    0    0    0    0 -0.00000000000E+00 -0.00000000000E+00 -0.45593999997E+02  0.45594000000E+02  0.51100000000E-03 0. -1.
    9900012    2    1    2    0    0  0.11935848103E+01 -0.23908562585E+02 -0.21063577380E+02  0.59301979527E+02  0.50000064742E+02 0.  0.
        -12    1    1    2    0    0 -0.11935848103E+01  0.23908562585E+02  0.21063577380E+02  0.31886020473E+02  0.00000000000E+00 0.  1.
         11    1    3    3    0    0 -0.23130444641E+01 -0.26065425805E+02 -0.10080546202E+02  0.28042360976E+02  0.51100000000E-03 0. -1.
        -11    1    3    3    0    0 -0.12208210084E+01 -0.14493776250E+01  0.96256121222E+01  0.98103775882E+01  0.51100000000E-03 0.  1.
         12    1    3    3    0    0  0.47274502827E+01  0.36062408452E+01 -0.20608643300E+02  0.21449240963E+02  0.00000000000E+00 0. -1.
</event>
<event>
 7    1  0.5987893E-013  0.5930194E+02  0.7816164E-02  0.1266605E+00
        -11   -1    0    0    0    0  0.00000000000E+00  0.00000000000E+00  0.45593999997E+02  0.45594000000E+02  0.51100000000E-03 0.  1.
         11   -1    0    0    0    0 -0.00000000000E+00 -0.00000000000E+00 -0.45593999997E+02  0.45594000000E+02  0.51100000000E-03 0. -1.
    9900012    2    1    2    0    0 -0.12828976060E+02  0.27132668725E+01 -0.29065033498E+02  0.59301943234E+02  0.49999998552E+02 0.  0.
        -12    1    1    2    0    0  0.12828976060E+02 -0.27132668725E+01  0.29065033498E+02  0.31886056766E+02  0.00000000000E+00 0.  1.
         11    1    3    3    0    0  0.80528672836E+01  0.12497004940E+02 -0.11270328156E+02  0.18655940098E+02  0.51100000000E-03 0. -1.
        -11    1    3    3    0    0 -0.26054568238E+02 -0.66864187172E+00 -0.12660207567E+02  0.28975307831E+02  0.51100000000E-03 0.  1.
        -12    1    3    3    0    0  0.51727248938E+01 -0.91150961954E+01 -0.51344977747E+01  0.11670695304E+02  0.00000000000E+00 0.  1.
</event>
<event>
 7    1  0.5987893E-013  0.5930194E+02  0.7816164E-02  0.1266605E+00
        -11   -1    0    0    0    0  0.00000000000E+00  0.00000000000E+00  0.45593999997E+02  0.45594000000E+02  0.51100000000E-03 0. -1.
         11   -1    0    0    0    0 -0.00000000000E+00 -0.00000000000E+00 -0.45593999997E+02  0.45594000000E+02  0.51100000000E-03 0.  1.
    9900012    2    1    2    0    0 -0.14456180206E+02 -0.11045866937E+02  0.26186420611E+02  0.59301938046E+02  0.49999989090E+02 0.  0.
        -12    1    1    2    0    0  0.14456180206E+02  0.11045866937E+02 -0.26186420611E+02  0.31886061954E+02  0.00000000000E+00 0.  1.
         11    1    3    3    0    0 -0.25860687594E+02 -0.15740982355E+02  0.11211506457E+02  0.32283921162E+02  0.51100000000E-03 0. -1.
        -11    1    3    3    0    0  0.12802743964E+01  0.32949628011E+00 -0.44718991342E+01  0.46632126754E+01  0.51100000000E-03 0.  1.
         12    1    3    3    0    0  0.10124232991E+02  0.43656191378E+01  0.19446813288E+02  0.22354804208E+02  0.00000000000E+00 0. -1.
</event>
<event>
 7    1  0.5987893E-013  0.5930195E+02  0.7816164E-02  0.1266605E+00
        -11   -1    0    0    0    0  0.00000000000E+00  0.00000000000E+00  0.45593999997E+02  0.45594000000E+02  0.51100000000E-03 0.  1.
         11   -1    0    0    0    0 -0.00000000000E+00 -0.00000000000E+00 -0.45593999997E+02  0.45594000000E+02  0.51100000000E-03 0. -1.
    9900012    2    1    2    0    0  0.20525174453E+02  0.10549110974E+02 -0.22003491240E+02  0.59301950457E+02  0.50000011726E+02 0.  0.
        -12    1    1    2    0    0 -0.20525174453E+02 -0.10549110974E+02  0.22003491240E+02  0.31886049543E+02  0.00000000000E+00 0.  1.
         11    1    3    3    0    0  0.99377073273E+01 -0.47634760708E+01 -0.28701228324E+02  0.30744255378E+02  0.51100000000E-03 0. -1.
        -11    1    3    3    0    0  0.30261697101E+01  0.19050798320E+02  0.53313661258E+01  0.20012847992E+02  0.51100000000E-03 0.  1.
        -12    1    3    3    0    0  0.75612974161E+01 -0.37382112749E+01  0.13663709580E+01  0.85448470873E+01  0.00000000000E+00 0.  1.
</event>
<event>
 7    1  0.5987893E-013  0.5930193E+02  0.7816164E-02  0.1266605E+00
        -11   -1    0    0    0    0  0.00000000000E+00  0.00000000000E+00  0.45593999997E+02  0.45594000000E+02  0.51100000000E-03 0.  1.
         11   -1    0    0    0    0 -0.00000000000E+00 -0.00000000000E+00 -0.45593999997E+02  0.45594000000E+02  0.51100000000E-03 0. -1.
    9900012    2    1    2    0    0  0.84551620313E+01  0.20272106806E+02 -0.23114356323E+02  0.59301928628E+02  0.49999971915E+02 0.  0.
        -12    1    1    2    0    0 -0.84551620313E+01 -0.20272106806E+02  0.23114356323E+02  0.31886071372E+02  0.00000000000E+00 0.  1.
         11    1    3    3    0    0  0.85158197996E+01  0.12386039675E+02 -0.35121923502E+02  0.38203176261E+02  0.51100000000E-03 0. -1.
        -11    1    3    3    0    0 -0.59051704750E+00 -0.32388992967E+01 -0.14777866189E+01  0.36087439074E+01  0.51100000000E-03 0.  1.
         12    1    3    3    0    0  0.52985927917E+00  0.11124966427E+02  0.13485353798E+02  0.17490008460E+02  0.00000000000E+00 0. -1.
</event>
<event>
 7    1  0.5987893E-013  0.5930198E+02  0.7816164E-02  0.1266605E+00
        -11   -1    0    0    0    0  0.00000000000E+00  0.00000000000E+00  0.45593999997E+02  0.45594000000E+02  0.51100000000E-03 0.  1.
         11   -1    0    0    0    0 -0.00000000000E+00 -0.00000000000E+00 -0.45593999997E+02  0.45594000000E+02  0.51100000000E-03 0. -1.
    9900012    2    1    2    0    0  0.18560196240E+01 -0.31736029198E+02 -0.24693396512E+01  0.59301984313E+02  0.50000073470E+02 0.  0.
        -12    1    1    2    0    0 -0.18560196240E+01  0.31736029198E+02  0.24693396512E+01  0.31886015687E+02  0.00000000000E+00 0.  1.
         11    1    3    3    0    0  0.24832296986E+02 -0.18977767572E+02  0.19290421472E+01  0.31313253416E+02  0.51100000000E-03 0. -1.
        -11    1    3    3    0    0 -0.12087188087E+02 -0.54642593912E+01  0.19815214417E+01  0.13412109231E+02  0.51100000000E-03 0.  1.
         12    1    3    3    0    0 -0.10889089275E+02 -0.72940022350E+01 -0.63799032401E+01  0.14576621666E+02  0.00000000000E+00 0. -1.
</event>
<event>
 7    1  0.5987893E-013  0.5930195E+02  0.7816164E-02  0.1266605E+00
        -11   -1    0    0    0    0  0.00000000000E+00  0.00000000000E+00  0.45593999997E+02  0.45594000000E+02  0.51100000000E-03 0. -1.
         11   -1    0    0    0    0 -0.00000000000E+00 -0.00000000000E+00 -0.45593999997E+02  0.45594000000E+02  0.51100000000E-03 0.  1.
    9900012    2    1    2    0    0 -0.13098605078E+02  0.23182291793E+02  0.17542185042E+02  0.59301947190E+02  0.50000005767E+02 0.  0.
        -12    1    1    2    0    0  0.13098605078E+02 -0.23182291793E+02 -0.17542185042E+02  0.31886052810E+02  0.00000000000E+00 0.  1.
         11    1    3    3    0    0 -0.12250936568E+02 -0.62893438335E+01  0.92452247375E+01  0.16586605239E+02  0.51100000000E-03 0. -1.
        -11    1    3    3    0    0  0.13780850678E+02  0.16531186268E+02  0.86148169821E+01  0.23182041255E+02  0.51100000000E-03 0.  1.
        -12    1    3    3    0    0 -0.14628519188E+02  0.12940449359E+02 -0.31785667755E+00  0.19533300697E+02  0.00000000000E+00 0.  1.
</event>
<event>
 7    1  0.5987893E-013  0.5930193E+02  0.7816164E-02  0.1266605E+00
        -11   -1    0    0    0    0  0.00000000000E+00  0.00000000000E+00  0.45593999997E+02  0.45594000000E+02  0.51100000000E-03 0. -1.
         11   -1    0    0    0    0 -0.00000000000E+00 -0.00000000000E+00 -0.45593999997E+02  0.45594000000E+02  0.51100000000E-03 0.  1.
    9900012    2    1    2    0    0  0.22315434985E+02  0.18023003918E+02  0.13925298510E+02  0.59301933335E+02  0.49999980498E+02 0.  0.
        -12    1    1    2    0    0 -0.22315434985E+02 -0.18023003918E+02 -0.13925298510E+02  0.31886066665E+02  0.00000000000E+00 0.  1.
         11    1    3    3    0    0  0.22262897088E+02  0.26846806959E+02  0.17108725539E+02  0.38847086383E+02  0.51100000000E-03 0. -1.
        -11    1    3    3    0    0 -0.61031659875E+01 -0.66455825961E+01  0.47362513988E+01  0.10190411213E+02  0.51100000000E-03 0.  1.
         12    1    3    3    0    0  0.61557038852E+01 -0.21782204448E+01 -0.79196784283E+01  0.10264435739E+02  0.00000000000E+00 0. -1.
</event>
<event>
 7    1  0.5987893E-013  0.5930194E+02  0.7816164E-02  0.1266605E+00
        -11   -1    0    0    0    0  0.00000000000E+00  0.00000000000E+00  0.45593999997E+02  0.45594000000E+02  0.51100000000E-03 0. -1.
         11   -1    0    0    0    0 -0.00000000000E+00 -0.00000000000E+00 -0.45593999997E+02  0.45594000000E+02  0.51100000000E-03 0.  1.
    9900012    2    1    2    0    0 -0.16563467275E+02  0.17184479239E+02  0.21143929763E+02  0.59301944416E+02  0.50000000708E+02 0.  0.
        -12    1    1    2    0    0  0.16563467275E+02 -0.17184479239E+02 -0.21143929763E+02  0.31886055584E+02  0.00000000000E+00 0.  1.
         11    1    3    3    0    0  0.48921133096E+00  0.23858011350E+01  0.31937842611E+02  0.32030566115E+02  0.51100000000E-03 0. -1.
        -11    1    3    3    0    0 -0.38177742033E+01 -0.80816965879E+00  0.44064965798E+00  0.39271758870E+01  0.51100000000E-03 0.  1.
         12    1    3    3    0    0 -0.13234904403E+02  0.15606847763E+02 -0.11234562505E+02  0.23344202413E+02  0.00000000000E+00 0. -1.
</event>
<event>
 7    1  0.5987893E-013  0.5930197E+02  0.7816164E-02  0.1266605E+00
        -11   -1    0    0    0    0  0.00000000000E+00  0.00000000000E+00  0.45593999997E+02  0.45594000000E+02  0.51100000000E-03 0.  1.
         11   -1    0    0    0    0 -0.00000000000E+00 -0.00000000000E+00 -0.45593999997E+02  0.45594000000E+02  0.51100000000E-03 0. -1.
    9900012    2    1    2    0    0 -0.15267587852E+02  0.16008918466E+02 -0.22963764544E+02  0.59301965575E+02  0.50000039298E+02 0.  0.
        -12    1    1    2    0    0  0.15267587852E+02 -0.16008918466E+02  0.22963764544E+02  0.31886034425E+02  0.00000000000E+00 0.  1.
         11    1    3    3    0    0 -0.12342618559E+02  0.13275966667E+02 -0.35862327424E+02  0.40183305642E+02  0.51100000000E-03 0. -1.
        -11    1    3    3    0    0  0.28833210457E+01 -0.40920746295E+01  0.59682618949E+01  0.77896575877E+01  0.51100000000E-03 0.  1.
         12    1    3    3    0    0 -0.58082903390E+01  0.68250264289E+01  0.69303009844E+01  0.11329002346E+02  0.00000000000E+00 0. -1.
</event>
<event>
 7    1  0.5987893E-013  0.5930195E+02  0.7816164E-02  0.1266605E+00
        -11   -1    0    0    0    0  0.00000000000E+00  0.00000000000E+00  0.45593999997E+02  0.45594000000E+02  0.51100000000E-03 0.  1.
         11   -1    0    0    0    0 -0.00000000000E+00 -0.00000000000E+00 -0.45593999997E+02  0.45594000000E+02  0.51100000000E-03 0. -1.
    9900012    2    1    2    0    0 -0.23487204483E+01  0.21698156368E+02 -0.23246371884E+02  0.59301948453E+02  0.50000008071E+02 0.  0.
        -12    1    1    2    0    0  0.23487204483E+01 -0.21698156368E+02  0.23246371884E+02  0.31886051547E+02  0.00000000000E+00 0.  1.
         11    1    3    3    0    0 -0.22182616950E+02  0.12262017901E+02 -0.11480723139E+02  0.27825035163E+02  0.51100000000E-03 0. -1.
        -11    1    3    3    0    0  0.80546437687E+01  0.13273893202E+02 -0.19048633615E+01  0.15642954697E+02  0.51100000000E-03 0.  1.
         12    1    3    3    0    0  0.11779252733E+02 -0.38377547347E+01 -0.98607853833E+01  0.15833958593E+02  0.00000000000E+00 0. -1.
</event>
<event>
 7    1  0.5987893E-013  0.5930196E+02  0.7816164E-02  0.1266605E+00
        -11   -1    0    0    0    0  0.00000000000E+00  0.00000000000E+00  0.45593999997E+02  0.45594000000E+02  0.51100000000E-03 0. -1.
         11   -1    0    0    0    0 -0.00000000000E+00 -0.00000000000E+00 -0.45593999997E+02  0.45594000000E+02  0.51100000000E-03 0.  1.
    9900012    2    1    2    0    0 -0.20610179757E+02 -0.20748960936E+02  0.12705139564E+02  0.59301961349E+02  0.50000031590E+02 0.  0.
        -12    1    1    2    0    0  0.20610179757E+02  0.20748960936E+02 -0.12705139564E+02  0.31886038651E+02  0.00000000000E+00 0.  1.
         11    1    3    3    0    0 -0.21336849230E+02 -0.33530799478E+01  0.26916902694E+02  0.34511214570E+02  0.51100000000E-03 0. -1.
        -11    1    3    3    0    0  0.42475176024E+01 -0.37390176557E+01 -0.68386876324E+01  0.88763341311E+01  0.51100000000E-03 0.  1.
         12    1    3    3    0    0 -0.35208481286E+01 -0.13656863332E+02 -0.73730754979E+01  0.15914412648E+02  0.00000000000E+00 0. -1.
</event>
<event>
 7    1  0.5987893E-013  0.5930187E+02  0.7816164E-02  0.1266605E+00
        -11   -1    0    0    0    0  0.00000000000E+00  0.00000000000E+00  0.45593999997E+02  0.45594000000E+02  0.51100000000E-03 0.  1.
         11   -1    0    0    0    0 -0.00000000000E+00 -0.00000000000E+00 -0.45593999997E+02  0.45594000000E+02  0.51100000000E-03 0. -1.
    9900012    2    1    2    0    0  0.93826046926E+01 -0.21496675885E+02 -0.21600577749E+02  0.59301869723E+02  0.49999864486E+02 0.  0.
        -12    1    1    2    0    0 -0.93826046926E+01  0.21496675885E+02  0.21600577749E+02  0.31886130277E+02  0.00000000000E+00 0.  1.
         11    1    3    3    0    0 -0.17269888483E+01 -0.73056272948E+01 -0.89400337111E+01  0.11673854705E+02  0.51100000000E-03 0. -1.
        -11    1    3    3    0    0  0.12716467145E+01  0.14271749264E+02 -0.98387599789E+01  0.17381056085E+02  0.51100000000E-03 0.  1.
        -12    1    3    3    0    0  0.98379468263E+01 -0.28462797855E+02 -0.28217840593E+01  0.30246958934E+02  0.00000000000E+00 0.  1.
</event>
<event>
 7    1  0.5987893E-013  0.5930198E+02  0.7816164E-02  0.1266605E+00
        -11   -1    0    0    0    0  0.00000000000E+00  0.00000000000E+00  0.45593999997E+02  0.45594000000E+02  0.51100000000E-03 0.  1.
         11   -1    0    0    0    0 -0.00000000000E+00 -0.00000000000E+00 -0.45593999997E+02  0.45594000000E+02  0.51100000000E-03 0. -1.
    9900012    2    1    2    0    0  0.11234794882E+02  0.17606588031E+02 -0.24093685574E+02  0.59301980451E+02  0.50000066427E+02 0.  0.
        -12    1    1    2    0    0 -0.11234794882E+02 -0.17606588031E+02  0.24093685574E+02  0.31886019549E+02  0.00000000000E+00 0.  1.
         11    1    3    3    0    0  0.19560404089E+02  0.23109383753E+02 -0.10153005794E+02  0.31933314148E+02  0.51100000000E-03 0. -1.
        -11    1    3    3    0    0 -0.10143130140E+02 -0.11595892552E+02 -0.14273015672E+02  0.21001590172E+02  0.51100000000E-03 0.  1.
         12    1    3    3    0    0  0.18175209334E+01  0.60930968297E+01  0.33233589245E+00  0.63670761316E+01  0.00000000000E+00 0. -1.
</event>
<event>
 7    1  0.5987893E-013  0.5930194E+02  0.7816164E-02  0.1266605E+00
        -11   -1    0    0    0    0  0.00000000000E+00  0.00000000000E+00  0.45593999997E+02  0.45594000000E+02  0.51100000000E-03 0. -1.
         11   -1    0    0    0    0 -0.00000000000E+00 -0.00000000000E+00 -0.45593999997E+02  0.45594000000E+02  0.51100000000E-03 0.  1.
    9900012    2    1    2    0    0  0.63668460863E+01 -0.19281624952E+02  0.24584612120E+02  0.59301938108E+02  0.49999989204E+02 0.  0.
        -12    1    1    2    0    0 -0.63668460863E+01  0.19281624952E+02 -0.24584612120E+02  0.31886061892E+02  0.00000000000E+00 0.  1.
         11    1    3    3    0    0 -0.15285603787E+02  0.13224173135E+01 -0.19036588873E+01  0.15460348899E+02  0.51100000000E-03 0. -1.
        -11    1    3    3    0    0  0.16998349491E+01 -0.74751546364E+01 -0.64543362279E+00  0.76931112376E+01  0.51100000000E-03 0.  1.
         12    1    3    3    0    0  0.19952614924E+02 -0.13128887629E+02  0.27133704630E+02  0.36148477971E+02  0.00000000000E+00 0. -1.
</event>
<event>
 7    1  0.5987893E-013  0.5930192E+02  0.7816164E-02  0.1266605E+00
        -11   -1    0    0    0    0  0.00000000000E+00  0.00000000000E+00  0.45593999997E+02  0.45594000000E+02  0.51100000000E-03 0. -1.
         11   -1    0    0    0    0 -0.00000000000E+00 -0.00000000000E+00 -0.45593999997E+02  0.45594000000E+02  0.51100000000E-03 0.  1.
    9900012    2    1    2    0    0  0.27497824000E+02  0.10514274189E+02 -0.12249150026E+02  0.59301922116E+02  0.49999960039E+02 0.  0.
        -12    1    1    2    0    0 -0.27497824000E+02 -0.10514274189E+02  0.12249150026E+02  0.31886077884E+02  0.00000000000E+00 0.  1.
         11    1    3    3    0    0  0.26145506587E+02  0.18090035497E+02 -0.13844244685E+02  0.34677081915E+02  0.51100000000E-03 0. -1.
        -11    1    3    3    0    0  0.29028010484E+01 -0.15865664984E+02  0.13880510317E+01  0.16188646183E+02  0.51100000000E-03 0.  1.
         12    1    3    3    0    0 -0.15504836355E+01  0.82899036757E+01  0.20704362725E+00  0.84361940186E+01  0.00000000000E+00 0. -1.
</event>
<event>
 7    1  0.5987893E-013  0.5930174E+02  0.7816164E-02  0.1266605E+00
        -11   -1    0    0    0    0  0.00000000000E+00  0.00000000000E+00  0.45593999997E+02  0.45594000000E+02  0.51100000000E-03 0.  1.
         11   -1    0    0    0    0 -0.00000000000E+00 -0.00000000000E+00 -0.45593999997E+02  0.45594000000E+02  0.51100000000E-03 0. -1.
    9900012    2    1    2    0    0  0.11571555583E+02  0.17423613678E+01 -0.29661365681E+02  0.59301743779E+02  0.49999634792E+02 0.  0.
        -12    1    1    2    0    0 -0.11571555583E+02 -0.17423613678E+01  0.29661365681E+02  0.31886256221E+02  0.00000000000E+00 0.  1.
         11    1    3    3    0    0  0.21148323121E+02 -0.14532437048E+02 -0.21823525191E+02  0.33685450114E+02  0.51100000000E-03 0. -1.
        -11    1    3    3    0    0 -0.13400974123E+02  0.15212192901E+02 -0.75625123720E+01  0.21637664244E+02  0.51100000000E-03 0.  1.
        -12    1    3    3    0    0  0.38242065855E+01  0.10626055148E+01 -0.27532811796E+00  0.39786294200E+01  0.00000000000E+00 0.  1.
</event>
<event>
 7    1  0.5987893E-013  0.5930182E+02  0.7816164E-02  0.1266605E+00
        -11   -1    0    0    0    0  0.00000000000E+00  0.00000000000E+00  0.45593999997E+02  0.45594000000E+02  0.51100000000E-03 0.  1.
         11   -1    0    0    0    0 -0.00000000000E+00 -0.00000000000E+00 -0.45593999997E+02  0.45594000000E+02  0.51100000000E-03 0. -1.
    9900012    2    1    2    0    0  0.24217581785E+02 -0.18128668332E+02 -0.10079101097E+02  0.59301824909E+02  0.49999782755E+02 0.  0.
        -12    1    1    2    0    0 -0.24217581785E+02  0.18128668332E+02  0.10079101097E+02  0.31886175091E+02  0.00000000000E+00 0.  1.
         11    1    3    3    0    0  0.78484817122E+01 -0.25439438260E+02 -0.48864303106E+01  0.27067339833E+02  0.51100000000E-03 0. -1.
        -11    1    3    3    0    0  0.13898482737E+02  0.29814148342E+01  0.92476309725E+01  0.16958046340E+02  0.51100000000E-03 0.  1.
         12    1    3    3    0    0  0.24706173359E+01  0.43293550941E+01 -0.14440301759E+02  0.15276438736E+02  0.00000000000E+00 0. -1.
</event>
<event>
 7    1  0.5987893E-013  0.5930202E+02  0.7816164E-02  0.1266604E+00
        -11   -1    0    0    0    0  0.00000000000E+00  0.00000000000E+00  0.45593999997E+02  0.45594000000E+02  0.51100000000E-03 0. -1.
         11   -1    0    0    0    0 -0.00000000000E+00 -0.00000000000E+00 -0.45593999997E+02  0.45594000000E+02  0.51100000000E-03 0.  1.
    9900012    2    1    2    0    0  0.61358459519E+01 -0.29531775362E+02 -0.10341245147E+02  0.59302020122E+02  0.50000138777E+02 0.  0.
        -12    1    1    2    0    0 -0.61358459519E+01  0.29531775362E+02  0.10341245147E+02  0.31885979878E+02  0.00000000000E+00 0.  1.
         11    1    3    3    0    0 -0.10606387803E+02  0.41418986999E+01 -0.13241199682E+02  0.17463681065E+02  0.51100000000E-03 0. -1.
        -11    1    3    3    0    0  0.19576414912E+02 -0.22097542705E+02  0.43192108557E+01  0.29836102244E+02  0.51100000000E-03 0.  1.
         12    1    3    3    0    0 -0.28341811568E+01 -0.11576131357E+02 -0.14192563208E+01  0.12002236813E+02  0.00000000000E+00 0. -1.
</event>
<event>
 7    1  0.5987893E-013  0.5930193E+02  0.7816164E-02  0.1266605E+00
        -11   -1    0    0    0    0  0.00000000000E+00  0.00000000000E+00  0.45593999997E+02  0.45594000000E+02  0.51100000000E-03 0.  1.
         11   -1    0    0    0    0 -0.00000000000E+00 -0.00000000000E+00 -0.45593999997E+02  0.45594000000E+02  0.51100000000E-03 0. -1.
    9900012    2    1    2    0    0 -0.20178905416E+02 -0.20340703037E+02 -0.13992459027E+02  0.59301931985E+02  0.49999978037E+02 0.  0.
        -12    1    1    2    0    0  0.20178905416E+02  0.20340703037E+02  0.13992459027E+02  0.31886068015E+02  0.00000000000E+00 0.  1.
         11    1    3    3    0    0 -0.14588809075E+02  0.15225111125E+02 -0.28964976886E+01  0.21284432294E+02  0.51100000000E-03 0. -1.
        -11    1    3    3    0    0 -0.64352736626E+01 -0.27069400504E+02 -0.84686132781E+01  0.29084060959E+02  0.51100000000E-03 0.  1.
         12    1    3    3    0    0  0.84517732121E+00 -0.84964136574E+01 -0.26273480602E+01  0.89334387316E+01  0.00000000000E+00 0. -1.
</event>
<event>
 7    1  0.5987893E-013  0.5930196E+02  0.7816164E-02  0.1266605E+00
        -11   -1    0    0    0    0  0.00000000000E+00  0.00000000000E+00  0.45593999997E+02  0.45594000000E+02  0.51100000000E-03 0. -1.
         11   -1    0    0    0    0 -0.00000000000E+00 -0.00000000000E+00 -0.45593999997E+02  0.45594000000E+02  0.51100000000E-03 0.  1.
    9900012    2    1    2    0    0 -0.18010891956E+02 -0.90607120709E+01  0.24702851610E+02  0.59301959011E+02  0.50000027325E+02 0.  0.
        -12    1    1    2    0    0  0.18010891956E+02  0.90607120709E+01 -0.24702851610E+02  0.31886040989E+02  0.00000000000E+00 0.  1.
         11    1    3    3    0    0  0.74313521726E+01 -0.14059057833E+02  0.20233024924E+02  0.25734362244E+02  0.51100000000E-03 0. -1.
        -11    1    3    3    0    0 -0.19146777706E+02 -0.61445928993E+01  0.51286070400E+01  0.20752294544E+02  0.51100000000E-03 0.  1.
         12    1    3    3    0    0 -0.62954664230E+01  0.11142938661E+02 -0.65878035402E+00  0.12815302222E+02  0.00000000000E+00 0. -1.
</event>
<event>
 7    1  0.5987893E-013  0.5930185E+02  0.7816164E-02  0.1266605E+00
        -11   -1    0    0    0    0  0.00000000000E+00  0.00000000000E+00  0.45593999997E+02  0.45594000000E+02  0.51100000000E-03 0.  1.
         11   -1    0    0    0    0 -0.00000000000E+00 -0.00000000000E+00 -0.45593999997E+02  0.45594000000E+02  0.51100000000E-03 0. -1.
    9900012    2    1    2    0    0 -0.21674174985E+02  0.90279441914E+01 -0.21574360474E+02  0.59301848343E+02  0.49999825493E+02 0.  0.
        -12    1    1    2    0    0  0.21674174985E+02 -0.90279441914E+01  0.21574360474E+02  0.31886151657E+02  0.00000000000E+00 0.  1.
         11    1    3    3    0    0 -0.20904708634E+02  0.63577146190E+01 -0.13764234081E+02  0.25824049225E+02  0.51100000000E-03 0. -1.
        -11    1    3    3    0    0  0.57002923017E+01  0.58415955955E+01 -0.18709389866E+02  0.20412222830E+02  0.51100000000E-03 0.  1.
        -12    1    3    3    0    0 -0.64697586533E+01 -0.31713660232E+01  0.10899263473E+02  0.13065576288E+02  0.00000000000E+00 0.  1.
</event>
<event>
 7    1  0.5987893E-013  0.5930193E+02  0.7816164E-02  0.1266605E+00
        -11   -1    0    0    0    0  0.00000000000E+00  0.00000000000E+00  0.45593999997E+02  0.45594000000E+02  0.51100000000E-03 0.  1.
         11   -1    0    0    0    0 -0.00000000000E+00 -0.00000000000E+00 -0.45593999997E+02  0.45594000000E+02  0.51100000000E-03 0. -1.
    9900012    2    1    2    0    0  0.24649847492E+02 -0.20203463602E+02 -0.96251749052E+00  0.59301931524E+02  0.49999977197E+02 0.  0.
        -12    1    1    2    0    0 -0.24649847492E+02  0.20203463602E+02  0.96251749052E+00  0.31886068476E+02  0.00000000000E+00 0.  1.
         11    1    3    3    0    0 -0.35125511084E+01 -0.57255691943E+01  0.56154287517E+01  0.87551812211E+01  0.51100000000E-03 0. -1.
        -11    1    3    3    0    0  0.28167695277E+02  0.11615011653E+01 -0.15873596662E+02  0.32353349339E+02  0.51100000000E-03 0.  1.
        -12    1    3    3    0    0 -0.52966762293E-02 -0.15639395573E+02  0.92956504196E+01  0.18193400965E+02  0.00000000000E+00 0.  1.
</event>
<event>
 7    1  0.5987893E-013  0.5930196E+02  0.7816164E-02  0.1266605E+00
        -11   -1    0    0    0    0  0.00000000000E+00  0.00000000000E+00  0.45593999997E+02  0.45594000000E+02  0.51100000000E-03 0.  1.
         11   -1    0    0    0    0 -0.00000000000E+00 -0.00000000000E+00 -0.45593999997E+02  0.45594000000E+02  0.51100000000E-03 0. -1.
    9900012    2    1    2    0    0  0.25362376440E+02 -0.57969113056E+01 -0.18435442131E+02  0.59301955311E+02  0.50000020578E+02 0.  0.
        -12    1    1    2    0    0 -0.25362376440E+02  0.57969113056E+01  0.18435442131E+02  0.31886044689E+02  0.00000000000E+00 0.  1.
         11    1    3    3    0    0  0.25892814784E+00  0.83896095157E+01 -0.13413641021E+02  0.15823348486E+02  0.51100000000E-03 0. -1.
        -11    1    3    3    0    0  0.16496950221E+02 -0.20223125694E+02  0.74754341376E+01  0.27147859865E+02  0.51100000000E-03 0.  1.
        -12    1    3    3    0    0  0.86064980709E+01  0.60366048731E+01 -0.12497235247E+02  0.16330746960E+02  0.00000000000E+00 0.  1.
</event>
<event>
 7    1  0.5987893E-013  0.5930192E+02  0.7816164E-02  0.1266605E+00
        -11   -1    0    0    0    0  0.00000000000E+00  0.00000000000E+00  0.45593999997E+02  0.45594000000E+02  0.51100000000E-03 0.  1.
         11   -1    0    0    0    0 -0.00000000000E+00 -0.00000000000E+00 -0.45593999997E+02  0.45594000000E+02  0.51100000000E-03 0. -1.
    9900012    2    1    2    0    0 -0.13025848497E+02 -0.15288371153E+02 -0.24765201698E+02  0.59301917821E+02  0.49999952205E+02 0.  0.
        -12    1    1    2    0    0  0.13025848497E+02  0.15288371153E+02  0.24765201698E+02  0.31886082179E+02  0.00000000000E+00 0.  1.
         11    1    3    3    0    0 -0.17305723307E+02 -0.12327080960E+02 -0.20281308635E+02  0.29373056776E+02  0.51100000000E-03 0. -1.
        -11    1    3    3    0    0  0.15498692526E+02 -0.77619294691E+01 -0.35247374008E+01  0.17688436706E+02  0.51100000000E-03 0.  1.
        -12    1    3    3    0    0 -0.11218817716E+02  0.48006392758E+01 -0.95915566252E+00  0.12240424339E+02  0.00000000000E+00 0.  1.
</event>
<event>
 7    1  0.5987893E-013  0.5930180E+02  0.7816164E-02  0.1266605E+00
        -11   -1    0    0    0    0  0.00000000000E+00  0.00000000000E+00  0.45593999997E+02  0.45594000000E+02  0.51100000000E-03 0.  1.
         11   -1    0    0    0    0 -0.00000000000E+00 -0.00000000000E+00 -0.45593999997E+02  0.45594000000E+02  0.51100000000E-03 0. -1.
    9900012    2    1    2    0    0 -0.11969359768E+02 -0.23060474815E+02 -0.18484551743E+02  0.59301800398E+02  0.49999738053E+02 0.  0.
        -12    1    1    2    0    0  0.11969359768E+02  0.23060474815E+02  0.18484551743E+02  0.31886199602E+02  0.00000000000E+00 0.  1.
         11    1    3    3    0    0  0.28975870262E+01 -0.59879781469E+00  0.11046291615E+02  0.11435695348E+02  0.51100000000E-03 0. -1.
        -11    1    3    3    0    0 -0.18631809218E+02 -0.43728389892E+01 -0.13716591164E+02  0.23545931899E+02  0.51100000000E-03 0.  1.
         12    1    3    3    0    0  0.37648624239E+01 -0.18088838011E+02 -0.15814252194E+02  0.24320173151E+02  0.00000000000E+00 0. -1.
</event>
<event>
 7    1  0.5987893E-013  0.5930194E+02  0.7816164E-02  0.1266605E+00
        -11   -1    0    0    0    0  0.00000000000E+00  0.00000000000E+00  0.45593999997E+02  0.45594000000E+02  0.51100000000E-03 0. -1.
         11   -1    0    0    0    0 -0.00000000000E+00 -0.00000000000E+00 -0.45593999997E+02  0.45594000000E+02  0.51100000000E-03 0.  1.
    9900012    2    1    2    0    0  0.15538520795E+02  0.27144193279E+02 -0.62022664782E+01  0.59301937736E+02  0.49999988525E+02 0.  0.
        -12    1    1    2    0    0 -0.15538520795E+02 -0.27144193279E+02  0.62022664782E+01  0.31886062264E+02  0.00000000000E+00 0.  1.
         11    1    3    3    0    0  0.76004328205E+01  0.12467374219E+02 -0.16015797343E+02  0.21672742415E+02  0.51100000000E-03 0. -1.
        -11    1    3    3    0    0  0.11944619836E+02  0.11972406283E+02  0.20097176788E+02  0.26266118296E+02  0.51100000000E-03 0.  1.
         12    1    3    3    0    0 -0.40065318614E+01  0.27044127766E+01 -0.10283645922E+02  0.11363077025E+02  0.00000000000E+00 0. -1.
</event>
<event>
 7    1  0.5987893E-013  0.5930183E+02  0.7816164E-02  0.1266605E+00
        -11   -1    0    0    0    0  0.00000000000E+00  0.00000000000E+00  0.45593999997E+02  0.45594000000E+02  0.51100000000E-03 0.  1.
         11   -1    0    0    0    0 -0.00000000000E+00 -0.00000000000E+00 -0.45593999997E+02  0.45594000000E+02  0.51100000000E-03 0. -1.
    9900012    2    1    2    0    0 -0.14659725511E+02 -0.25574871379E+02 -0.12155089858E+02  0.59301830465E+02  0.49999792889E+02 0.  0.
        -12    1    1    2    0    0  0.14659725511E+02  0.25574871379E+02  0.12155089858E+02  0.31886169535E+02  0.00000000000E+00 0.  1.
         11    1    3    3    0    0  0.17211490817E+01 -0.28079275686E+02 -0.22536344880E+02  0.36045733700E+02  0.51100000000E-03 0. -1.
        -11    1    3    3    0    0 -0.43297914674E+01 -0.46820600959E+01  0.54337290122E+01  0.83781974274E+01  0.51100000000E-03 0.  1.
         12    1    3    3    0    0 -0.12051083125E+02  0.71864644022E+01  0.49475260095E+01  0.14877899338E+02  0.00000000000E+00 0. -1.
</event>
<event>
 7    1  0.5987893E-013  0.5930208E+02  0.7816164E-02  0.1266604E+00
        -11   -1    0    0    0    0  0.00000000000E+00  0.00000000000E+00  0.45593999997E+02  0.45594000000E+02  0.51100000000E-03 0.  1.
         11   -1    0    0    0    0 -0.00000000000E+00 -0.00000000000E+00 -0.45593999997E+02  0.45594000000E+02  0.51100000000E-03 0. -1.
    9900012    2    1    2    0    0  0.25782255785E+02  0.10483684805E+02 -0.15558914831E+02  0.59302075344E+02  0.50000239488E+02 0.  0.
        -12    1    1    2    0    0 -0.25782255785E+02 -0.10483684805E+02  0.15558914831E+02  0.31885924656E+02  0.00000000000E+00 0.  1.
         11    1    3    3    0    0  0.16194700967E+02 -0.27570909110E+01 -0.64832590172E+01  0.17660762652E+02  0.51100000000E-03 0. -1.
        -11    1    3    3    0    0  0.11489864417E+02  0.17615751594E+02 -0.20432799616E+02  0.29322874841E+02  0.51100000000E-03 0.  1.
        -12    1    3    3    0    0 -0.19023095979E+01 -0.43749758777E+01  0.11357143803E+02  0.12318437851E+02  0.00000000000E+00 0.  1.
</event>
<event>
 7    1  0.5987893E-013  0.5930195E+02  0.7816164E-02  0.1266605E+00
        -11   -1    0    0    0    0  0.00000000000E+00  0.00000000000E+00  0.45593999997E+02  0.45594000000E+02  0.51100000000E-03 0.  1.
         11   -1    0    0    0    0 -0.00000000000E+00 -0.00000000000E+00 -0.45593999997E+02  0.45594000000E+02  0.51100000000E-03 0. -1.
    9900012    2    1    2    0    0  0.18648778338E+02  0.16937629911E+02 -0.19546358426E+02  0.59301947121E+02  0.50000005642E+02 0.  0.
        -12    1    1    2    0    0 -0.18648778338E+02 -0.16937629911E+02  0.19546358426E+02  0.31886052879E+02  0.00000000000E+00 0.  1.
         11    1    3    3    0    0  0.10858475721E+02  0.19356533931E+02 -0.22625182940E+02  0.31693545149E+02  0.51100000000E-03 0. -1.
        -11    1    3    3    0    0 -0.54331267218E+01 -0.10582565871E+02  0.13363855768E+01  0.11970609553E+02  0.51100000000E-03 0.  1.
        -12    1    3    3    0    0  0.13223429339E+02  0.81636618512E+01  0.17424389380E+01  0.15637792419E+02  0.00000000000E+00 0.  1.
</event>
<event>
 7    1  0.5987893E-013  0.5930194E+02  0.7816164E-02  0.1266605E+00
        -11   -1    0    0    0    0  0.00000000000E+00  0.00000000000E+00  0.45593999997E+02  0.45594000000E+02  0.51100000000E-03 0.  1.
         11   -1    0    0    0    0 -0.00000000000E+00 -0.00000000000E+00 -0.45593999997E+02  0.45594000000E+02  0.51100000000E-03 0. -1.
    9900012    2    1    2    0    0 -0.15004789831E+02  0.27894434639E+02 -0.36711888151E+01  0.59301939895E+02  0.49999992462E+02 0.  0.
        -12    1    1    2    0    0  0.15004789831E+02 -0.27894434639E+02  0.36711888151E+01  0.31886060105E+02  0.00000000000E+00 0.  1.
         11    1    3    3    0    0 -0.15548712636E+02  0.26880979577E+02  0.17307664199E+02  0.35551438338E+02  0.51100000000E-03 0. -1.
        -11    1    3    3    0    0 -0.36778180173E+01 -0.34438219266E+00 -0.18077413715E+02  0.18450957464E+02  0.51100000000E-03 0.  1.
        -12    1    3    3    0    0  0.42217408223E+01  0.13578372550E+01 -0.29014392990E+01  0.52995440924E+01  0.00000000000E+00 0.  1.
</event>
<event>
 7    1  0.5987893E-013  0.5930196E+02  0.7816164E-02  0.1266605E+00
        -11   -1    0    0    0    0  0.00000000000E+00  0.00000000000E+00  0.45593999997E+02  0.45594000000E+02  0.51100000000E-03 0.  1.
         11   -1    0    0    0    0 -0.00000000000E+00 -0.00000000000E+00 -0.45593999997E+02  0.45594000000E+02  0.51100000000E-03 0. -1.
    9900012    2    1    2    0    0 -0.27899702338E+02  0.40147051015E+01 -0.14906649707E+02  0.59301961471E+02  0.50000031813E+02 0.  0.
        -12    1    1    2    0    0  0.27899702338E+02 -0.40147051015E+01  0.14906649707E+02  0.31886038529E+02  0.00000000000E+00 0.  1.
         11    1    3    3    0    0 -0.10032656514E+02 -0.31831918788E+01 -0.78289116390E+01  0.13117879592E+02  0.51100000000E-03 0. -1.
        -11    1    3    3    0    0  0.10939087122E+02 -0.74603697066E+01 -0.32757577891E+01  0.13640063511E+02  0.51100000000E-03 0.  1.
        -12    1    3    3    0    0 -0.28806132946E+02  0.14658266687E+02 -0.38019802787E+01  0.32544018369E+02  0.00000000000E+00 0.  1.
</event>
<event>
 7    1  0.5987893E-013  0.5930193E+02  0.7816164E-02  0.1266605E+00
        -11   -1    0    0    0    0  0.00000000000E+00  0.00000000000E+00  0.45593999997E+02  0.45594000000E+02  0.51100000000E-03 0.  1.
         11   -1    0    0    0    0 -0.00000000000E+00 -0.00000000000E+00 -0.45593999997E+02  0.45594000000E+02  0.51100000000E-03 0. -1.
    9900012    2    1    2    0    0  0.26454427149E+01 -0.18297566538E+02 -0.25979260924E+02  0.59301932407E+02  0.49999978807E+02 0.  0.
        -12    1    1    2    0    0 -0.26454427149E+01  0.18297566538E+02  0.25979260924E+02  0.31886067593E+02  0.00000000000E+00 0.  1.
         11    1    3    3    0    0  0.14673292177E+02 -0.17729446625E+02 -0.85567113359E+01  0.24553127909E+02  0.51100000000E-03 0.  1.
        -11    1    3    3    0    0 -0.21232499379E+01  0.11770925638E+02 -0.10925475606E+01  0.12010684457E+02  0.51100000000E-03 0. -1.
         12    1    3    3    0    0 -0.99045995241E+01 -0.12339045551E+02 -0.16330002027E+02  0.22738120042E+02  0.00000000000E+00 0. -1.
</event>
<event>
 7    1  0.5987893E-013  0.5930194E+02  0.7816164E-02  0.1266605E+00
        -11   -1    0    0    0    0  0.00000000000E+00  0.00000000000E+00  0.45593999997E+02  0.45594000000E+02  0.51100000000E-03 0.  1.
         11   -1    0    0    0    0 -0.00000000000E+00 -0.00000000000E+00 -0.45593999997E+02  0.45594000000E+02  0.51100000000E-03 0. -1.
    9900012    2    1    2    0    0  0.63931093465E+01 -0.31203345061E+02 -0.14833994321E+01  0.59301936210E+02  0.49999985743E+02 0.  0.
        -12    1    1    2    0    0 -0.63931093465E+01  0.31203345061E+02  0.14833994321E+01  0.31886063790E+02  0.00000000000E+00 0.  1.
         11    1    3    3    0    0  0.87422538398E+01 -0.32656929738E+02 -0.16800072317E+01  0.33848552210E+02  0.51100000000E-03 0. -1.
        -11    1    3    3    0    0  0.13530821170E+01  0.75382454260E+01 -0.10258914818E+02  0.12802394652E+02  0.51100000000E-03 0.  1.
        -12    1    3    3    0    0 -0.37022266103E+01 -0.60846607488E+01  0.10455522617E+02  0.12650989349E+02  0.00000000000E+00 0.  1.
</event>
<event>
 7    1  0.5987893E-013  0.5930197E+02  0.7816164E-02  0.1266605E+00
        -11   -1    0    0    0    0  0.00000000000E+00  0.00000000000E+00  0.45593999997E+02  0.45594000000E+02  0.51100000000E-03 0. -1.
         11   -1    0    0    0    0 -0.00000000000E+00 -0.00000000000E+00 -0.45593999997E+02  0.45594000000E+02  0.51100000000E-03 0.  1.
    9900012    2    1    2    0    0 -0.87001419467E+01  0.68526368174E+01  0.29900971050E+02  0.59301965894E+02  0.50000039879E+02 0.  0.
        -12    1    1    2    0    0  0.87001419467E+01 -0.68526368174E+01 -0.29900971050E+02  0.31886034106E+02  0.00000000000E+00 0.  1.
         11    1    3    3    0    0 -0.74946852960E+01 -0.24854245984E+01  0.33492912986E+02  0.34411086349E+02  0.51100000000E-03 0. -1.
        -11    1    3    3    0    0 -0.11136369585E+02  0.42439197196E+01 -0.61928506168E+01  0.13430598689E+02  0.51100000000E-03 0.  1.
        -12    1    3    3    0    0  0.99309129348E+01  0.50941416962E+01  0.26009086807E+01  0.11460280856E+02  0.00000000000E+00 0.  1.
</event>
<event>
 7    1  0.7519673E-013  0.5930195E+02  0.7816164E-02  0.1266605E+00
        -11   -1    0    0    0    0  0.00000000000E+00  0.00000000000E+00  0.45593999997E+02  0.45594000000E+02  0.51100000000E-03 0. -1.
         11   -1    0    0    0    0 -0.00000000000E+00 -0.00000000000E+00 -0.45593999997E+02  0.45594000000E+02  0.51100000000E-03 0.  1.
    9900012    2    1    2    0    0 -0.22817361961E+01  0.18062952730E+02  0.26177163629E+02  0.59301945414E+02  0.50000002528E+02 0.  0.
        -12    1    1    2    0    0  0.22817361961E+01 -0.18062952730E+02 -0.26177163629E+02  0.31886054586E+02  0.00000000000E+00 0.  1.
         11    1    3    3    0    0  0.38285137546E+01 -0.34600160934E+01  0.26868294353E+02  0.27359358009E+02  0.51100000000E-03 0. -1.
        -11    1    3    3    0    0  0.38209514602E+00  0.24624392264E+02  0.58951930849E+00  0.24634411386E+02  0.51100000000E-03 0.  1.
        -12    1    3    3    0    0 -0.64923450967E+01 -0.31014234408E+01 -0.12806500325E+01  0.73081760187E+01  0.00000000000E+00 0.  1.
</event>
<event>
 7    1  0.5987893E-013  0.5930195E+02  0.7816164E-02  0.1266605E+00
        -11   -1    0    0    0    0  0.00000000000E+00  0.00000000000E+00  0.45593999997E+02  0.45594000000E+02  0.51100000000E-03 0.  1.
         11   -1    0    0    0    0 -0.00000000000E+00 -0.00000000000E+00 -0.45593999997E+02  0.45594000000E+02  0.51100000000E-03 0. -1.
    9900012    2    1    2    0    0  0.12660025473E+02  0.16208013543E+02 -0.24366872379E+02  0.59301946348E+02  0.50000004231E+02 0.  0.
        -12    1    1    2    0    0 -0.12660025473E+02 -0.16208013543E+02  0.24366872379E+02  0.31886053652E+02  0.00000000000E+00 0.  1.
         11    1    3    3    0    0  0.96382750609E+01 -0.35044458284E+01 -0.20267060447E+02  0.22714119533E+02  0.51100000000E-03 0. -1.
        -11    1    3    3    0    0  0.32700657222E+01  0.27221472200E+02 -0.73751466546E+01  0.28391806336E+02  0.51100000000E-03 0.  1.
        -12    1    3    3    0    0 -0.24831530971E+00 -0.75090128283E+01  0.32753347231E+01  0.81960204793E+01  0.00000000000E+00 0.  1.
</event>
<event>
 7    1  0.5987893E-013  0.5930194E+02  0.7816164E-02  0.1266605E+00
        -11   -1    0    0    0    0  0.00000000000E+00  0.00000000000E+00  0.45593999997E+02  0.45594000000E+02  0.51100000000E-03 0.  1.
         11   -1    0    0    0    0 -0.00000000000E+00 -0.00000000000E+00 -0.45593999997E+02  0.45594000000E+02  0.51100000000E-03 0. -1.
    9900012    2    1    2    0    0 -0.29710988974E+02  0.88864609662E+01 -0.74167902923E+01  0.59301939839E+02  0.49999992361E+02 0.  0.
        -12    1    1    2    0    0  0.29710988974E+02 -0.88864609662E+01  0.74167902923E+01  0.31886060161E+02  0.00000000000E+00 0.  1.
         11    1    3    3    0    0 -0.34675870736E+02  0.11145768316E+02 -0.12411481514E+02  0.38479722404E+02  0.51100000000E-03 0. -1.
        -11    1    3    3    0    0  0.11263890437E+02  0.33716230491E+01  0.31886428249E+01  0.12182385362E+02  0.51100000000E-03 0.  1.
         12    1    3    3    0    0 -0.62990086757E+01 -0.56309303986E+01  0.18060483965E+01  0.86398320736E+01  0.00000000000E+00 0. -1.
</event>
<event>
 7    1  0.5987893E-013  0.5930195E+02  0.7816164E-02  0.1266605E+00
        -11   -1    0    0    0    0  0.00000000000E+00  0.00000000000E+00  0.45593999997E+02  0.45594000000E+02  0.51100000000E-03 0.  1.
         11   -1    0    0    0    0 -0.00000000000E+00 -0.00000000000E+00 -0.45593999997E+02  0.45594000000E+02  0.51100000000E-03 0. -1.
    9900012    2    1    2    0    0  0.25733493175E+02 -0.14317106747E+02 -0.12228166548E+02  0.59301948603E+02  0.50000008344E+02 0.  0.
        -12    1    1    2    0    0 -0.25733493175E+02  0.14317106747E+02  0.12228166548E+02  0.31886051397E+02  0.00000000000E+00 0.  1.
         11    1    3    3    0    0  0.18148270607E+02 -0.21533074611E+02  0.97070582415E+01  0.29786910014E+02  0.51100000000E-03 0.  1.
        -11    1    3    3    0    0  0.10801320132E+02  0.10175778380E+02 -0.19523293200E+02  0.24522927229E+02  0.51100000000E-03 0. -1.
        -12    1    3    3    0    0 -0.32160975647E+01 -0.29598105166E+01 -0.24119315887E+01  0.49921113598E+01  0.00000000000E+00 0.  1.
</event>
<event>
 7    1  0.5987893E-013  0.5930189E+02  0.7816164E-02  0.1266605E+00
        -11   -1    0    0    0    0  0.00000000000E+00  0.00000000000E+00  0.45593999997E+02  0.45594000000E+02  0.51100000000E-03 0.  1.
         11   -1    0    0    0    0 -0.00000000000E+00 -0.00000000000E+00 -0.45593999997E+02  0.45594000000E+02  0.51100000000E-03 0. -1.
    9900012    2    1    2    0    0 -0.95788034035E+01 -0.20602386226E+02 -0.22372129127E+02  0.59301890884E+02  0.49999903079E+02 0.  0.
        -12    1    1    2    0    0  0.95788034035E+01  0.20602386226E+02  0.22372129127E+02  0.31886109116E+02  0.00000000000E+00 0.  1.
         11    1    3    3    0    0 -0.18122472069E+02 -0.15803154505E+02 -0.30747986139E+02  0.39033349050E+02  0.51100000000E-03 0. -1.
        -11    1    3    3    0    0 -0.16804195175E+01  0.90738061686E+00  0.83438752994E+01  0.85596381122E+01  0.51100000000E-03 0.  1.
         12    1    3    3    0    0  0.10224088183E+02 -0.57066123377E+01  0.31981712117E-01  0.11708903722E+02  0.00000000000E+00 0. -1.
</event>
<event>
 7    1  0.5987893E-013  0.5930188E+02  0.7816164E-02  0.1266605E+00
        -11   -1    0    0    0    0  0.00000000000E+00  0.00000000000E+00  0.45593999997E+02  0.45594000000E+02  0.51100000000E-03 0.  1.
         11   -1    0    0    0    0 -0.00000000000E+00 -0.00000000000E+00 -0.45593999997E+02  0.45594000000E+02  0.51100000000E-03 0. -1.
    9900012    2    1    2    0    0  0.23204715196E+02  0.18094355912E+02  0.12282519799E+02  0.59301877379E+02  0.49999878448E+02 0.  0.
        -12    1    1    2    0    0 -0.23204715196E+02 -0.18094355912E+02 -0.12282519799E+02  0.31886122621E+02  0.00000000000E+00 0.  1.
         11    1    3    3    0    0  0.11898744888E+02  0.31846916385E+01  0.23217779672E+01  0.12534474218E+02  0.51100000000E-03 0. -1.
        -11    1    3    3    0    0 -0.75928270344E+01  0.84624195093E+01 -0.12376526644E+02  0.16806010185E+02  0.51100000000E-03 0.  1.
        -12    1    3    3    0    0  0.18898797343E+02  0.64472447645E+01  0.22337268476E+02  0.29961392975E+02  0.00000000000E+00 0.  1.
</event>
<event>
 7    1  0.5987893E-013  0.5930195E+02  0.7816164E-02  0.1266605E+00
        -11   -1    0    0    0    0  0.00000000000E+00  0.00000000000E+00  0.45593999997E+02  0.45594000000E+02  0.51100000000E-03 0.  1.
         11   -1    0    0    0    0 -0.00000000000E+00 -0.00000000000E+00 -0.45593999997E+02  0.45594000000E+02  0.51100000000E-03 0. -1.
    9900012    2    1    2    0    0 -0.19360877114E+02 -0.18689125329E+02 -0.17105353192E+02  0.59301951703E+02  0.50000013997E+02 0.  0.
        -12    1    1    2    0    0  0.19360877114E+02  0.18689125329E+02  0.17105353192E+02  0.31886048297E+02  0.00000000000E+00 0.  1.
         11    1    3    3    0    0 -0.21920315698E+01 -0.14681724269E+02 -0.28333756109E+02  0.31986868641E+02  0.51100000000E-03 0. -1.
        -11    1    3    3    0    0 -0.17632689963E+02  0.15912128119E+01  0.39828961429E+01  0.18146822738E+02  0.51100000000E-03 0.  1.
        -12    1    3    3    0    0  0.46384441880E+00 -0.55986138723E+01  0.72455067750E+01  0.91682603237E+01  0.00000000000E+00 0.  1.
</event>
<event>
 7    1  0.5987893E-013  0.5930195E+02  0.7816164E-02  0.1266605E+00
        -11   -1    0    0    0    0  0.00000000000E+00  0.00000000000E+00  0.45593999997E+02  0.45594000000E+02  0.51100000000E-03 0. -1.
         11   -1    0    0    0    0 -0.00000000000E+00 -0.00000000000E+00 -0.45593999997E+02  0.45594000000E+02  0.51100000000E-03 0.  1.
    9900012    2    1    2    0    0 -0.22502193758E+02 -0.12700621261E+02  0.18683306376E+02  0.59301945972E+02  0.50000003546E+02 0.  0.
        -12    1    1    2    0    0  0.22502193758E+02  0.12700621261E+02 -0.18683306376E+02  0.31886054028E+02  0.00000000000E+00 0.  1.
         11    1    3    3    0    0 -0.24692787005E+02  0.54592605591E+01  0.23084469271E+02  0.34240764853E+02  0.51100000000E-03 0. -1.
        -11    1    3    3    0    0  0.12966506818E+01  0.20771134287E+01 -0.41315629093E+01  0.48026571313E+01  0.51100000000E-03 0.  1.
         12    1    3    3    0    0  0.89394256545E+00 -0.20236995249E+02 -0.26959998548E+00  0.20258523988E+02  0.00000000000E+00 0. -1.
</event>
<event>
 7    1  0.5987893E-013  0.5930196E+02  0.7816164E-02  0.1266605E+00
        -11   -1    0    0    0    0  0.00000000000E+00  0.00000000000E+00  0.45593999997E+02  0.45594000000E+02  0.51100000000E-03 0.  1.
         11   -1    0    0    0    0 -0.00000000000E+00 -0.00000000000E+00 -0.45593999997E+02  0.45594000000E+02  0.51100000000E-03 0. -1.
    9900012    2    1    2    0    0  0.17993009187E+02 -0.26266288979E+02 -0.17473495016E+01  0.59301960004E+02  0.50000029137E+02 0.  0.
        -12    1    1    2    0    0 -0.17993009187E+02  0.26266288979E+02  0.17473495016E+01  0.31886039996E+02  0.00000000000E+00 0.  1.
         11    1    3    3    0    0  0.11623066472E+01 -0.10156043201E+02 -0.22213511159E+02  0.24452734990E+02  0.51100000000E-03 0. -1.
        -11    1    3    3    0    0  0.16497653395E+02 -0.18859330037E+02  0.19957849167E+02  0.32033773437E+02  0.51100000000E-03 0.  1.
         12    1    3    3    0    0  0.33304914470E+00  0.27490842588E+01  0.50831249038E+00  0.28154515770E+01  0.00000000000E+00 0. -1.
</event>
<event>
 7    1  0.5987893E-013  0.5930229E+02  0.7816164E-02  0.1266604E+00
        -11   -1    0    0    0    0  0.00000000000E+00  0.00000000000E+00  0.45593999997E+02  0.45594000000E+02  0.51100000000E-03 0. -1.
         11   -1    0    0    0    0 -0.00000000000E+00 -0.00000000000E+00 -0.45593999997E+02  0.45594000000E+02  0.51100000000E-03 0.  1.
    9900012    2    1    2    0    0 -0.36234058275E+01  0.28098371040E+02  0.14630478776E+02  0.59302291067E+02  0.50000632913E+02 0.  0.
        -12    1    1    2    0    0  0.36234058275E+01 -0.28098371040E+02 -0.14630478776E+02  0.31885708933E+02  0.00000000000E+00 0.  1.
         11    1    3    3    0    0  0.11210303708E+01 -0.30986484661E+01  0.19492611677E+02  0.19769174026E+02  0.51100000000E-03 0. -1.
        -11    1    3    3    0    0  0.68765519352E+01  0.24293277269E+01 -0.43717824168E+01  0.85030042622E+01  0.51100000000E-03 0.  1.
         12    1    3    3    0    0 -0.11620988133E+02  0.28767691780E+02 -0.49035048402E+00  0.31030112780E+02  0.00000000000E+00 0. -1.
</event>
<event>
 7    1  0.5987893E-013  0.5930195E+02  0.7816164E-02  0.1266605E+00
        -11   -1    0    0    0    0  0.00000000000E+00  0.00000000000E+00  0.45593999997E+02  0.45594000000E+02  0.51100000000E-03 0. -1.
         11   -1    0    0    0    0 -0.00000000000E+00 -0.00000000000E+00 -0.45593999997E+02  0.45594000000E+02  0.51100000000E-03 0.  1.
    9900012    2    1    2    0    0  0.16446699690E+02 -0.25466224912E+02  0.98842207130E+01  0.59301947233E+02  0.50000005846E+02 0.  0.
        -12    1    1    2    0    0 -0.16446699690E+02  0.25466224912E+02 -0.98842207130E+01  0.31886052767E+02  0.00000000000E+00 0.  1.
         11    1    3    3    0    0 -0.12618751861E+01 -0.16998272017E+02  0.25167356769E+02  0.30396207453E+02  0.51100000000E-03 0. -1.
        -11    1    3    3    0    0 -0.15754039818E+01  0.16593904914E+01 -0.33866858004E+01  0.40871891907E+01  0.51100000000E-03 0.  1.
         12    1    3    3    0    0  0.19283978858E+02 -0.10127343386E+02 -0.11896450256E+02  0.24818550589E+02  0.00000000000E+00 0. -1.
</event>
<event>
 7    1  0.5987893E-013  0.5930193E+02  0.7816164E-02  0.1266605E+00
        -11   -1    0    0    0    0  0.00000000000E+00  0.00000000000E+00  0.45593999997E+02  0.45594000000E+02  0.51100000000E-03 0. -1.
         11   -1    0    0    0    0 -0.00000000000E+00 -0.00000000000E+00 -0.45593999997E+02  0.45594000000E+02  0.51100000000E-03 0.  1.
    9900012    2    1    2    0    0 -0.27040786145E+02  0.16896068754E+02  0.20053186580E+00  0.59301929880E+02  0.49999974198E+02 0.  0.
        -12    1    1    2    0    0  0.27040786145E+02 -0.16896068754E+02 -0.20053186580E+00  0.31886070120E+02  0.00000000000E+00 0.  1.
         11    1    3    3    0    0 -0.14285919857E+02 -0.86583177466E+00  0.21316778263E+02  0.25675712387E+02  0.51100000000E-03 0. -1.
        -11    1    3    3    0    0 -0.15837055971E+01 -0.25340614010E+01 -0.27675622495E+01  0.40729585891E+01  0.51100000000E-03 0.  1.
         12    1    3    3    0    0 -0.11171160691E+02  0.20295961930E+02 -0.18348684148E+02  0.29553258903E+02  0.00000000000E+00 0. -1.
</event>
<event>
 7    1  0.5987893E-013  0.5930195E+02  0.7816164E-02  0.1266605E+00
        -11   -1    0    0    0    0  0.00000000000E+00  0.00000000000E+00  0.45593999997E+02  0.45594000000E+02  0.51100000000E-03 0.  1.
         11   -1    0    0    0    0 -0.00000000000E+00 -0.00000000000E+00 -0.45593999997E+02  0.45594000000E+02  0.51100000000E-03 0. -1.
    9900012    2    1    2    0    0  0.21753547500E+02  0.54715785551E+01 -0.22661980007E+02  0.59301947586E+02  0.50000006489E+02 0.  0.
        -12    1    1    2    0    0 -0.21753547500E+02 -0.54715785551E+01  0.22661980007E+02  0.31886052414E+02  0.00000000000E+00 0.  1.
         11    1    3    3    0    0  0.16255262850E+02 -0.11796238804E+02 -0.77381536418E+01  0.21523564814E+02  0.51100000000E-03 0. -1.
        -11    1    3    3    0    0 -0.95002270596E+01  0.40953817274E+01  0.31871420698E+01  0.10825171616E+02  0.51100000000E-03 0.  1.
         12    1    3    3    0    0  0.14998511710E+02  0.13172435632E+02 -0.18110968435E+02  0.26953211156E+02  0.00000000000E+00 0. -1.
</event>
<event>
 7    1  0.5987893E-013  0.5930200E+02  0.7816164E-02  0.1266605E+00
        -11   -1    0    0    0    0  0.00000000000E+00  0.00000000000E+00  0.45593999997E+02  0.45594000000E+02  0.51100000000E-03 0. -1.
         11   -1    0    0    0    0 -0.00000000000E+00 -0.00000000000E+00 -0.45593999997E+02  0.45594000000E+02  0.51100000000E-03 0.  1.
    9900012    2    1    2    0    0 -0.29306066196E+02  0.12237888336E+02 -0.28470780427E+01  0.59301995544E+02  0.50000093952E+02 0.  0.
        -12    1    1    2    0    0  0.29306066196E+02 -0.12237888336E+02  0.28470780427E+01  0.31886004456E+02  0.00000000000E+00 0.  1.
         11    1    3    3    0    0  0.48724562453E+01  0.20570261764E+02  0.33363753929E+01  0.21401119128E+02  0.51100000000E-03 0. -1.
        -11    1    3    3    0    0 -0.39857987331E+01 -0.52777657328E+01 -0.33729474895E+01  0.74241617506E+01  0.51100000000E-03 0.  1.
         12    1    3    3    0    0 -0.30192723708E+02 -0.30546076954E+01 -0.28105059462E+01  0.30476714665E+02  0.00000000000E+00 0. -1.
</event>
<event>
 7    1  0.5987893E-013  0.5930193E+02  0.7816164E-02  0.1266605E+00
        -11   -1    0    0    0    0  0.00000000000E+00  0.00000000000E+00  0.45593999997E+02  0.45594000000E+02  0.51100000000E-03 0.  1.
         11   -1    0    0    0    0 -0.00000000000E+00 -0.00000000000E+00 -0.45593999997E+02  0.45594000000E+02  0.51100000000E-03 0. -1.
    9900012    2    1    2    0    0 -0.11454081116E+02 -0.63089693923E+00 -0.29751091734E+02  0.59301929930E+02  0.49999974288E+02 0.  0.
        -12    1    1    2    0    0  0.11454081116E+02  0.63089693923E+00  0.29751091734E+02  0.31886070070E+02  0.00000000000E+00 0.  1.
         11    1    3    3    0    0 -0.23222083264E+02  0.16997482636E+02 -0.19043149534E+02  0.34508275985E+02  0.51100000000E-03 0. -1.
        -11    1    3    3    0    0  0.30631513651E+01 -0.87101585808E+01 -0.16307509145E+01  0.93759856865E+01  0.51100000000E-03 0.  1.
         12    1    3    3    0    0  0.87048507828E+01 -0.89182209944E+01 -0.90771912860E+01  0.15417668258E+02  0.00000000000E+00 0. -1.
</event>
<event>
 7    1  0.5987893E-013  0.5930188E+02  0.7816164E-02  0.1266605E+00
        -11   -1    0    0    0    0  0.00000000000E+00  0.00000000000E+00  0.45593999997E+02  0.45594000000E+02  0.51100000000E-03 0. -1.
         11   -1    0    0    0    0 -0.00000000000E+00 -0.00000000000E+00 -0.45593999997E+02  0.45594000000E+02  0.51100000000E-03 0.  1.
    9900012    2    1    2    0    0 -0.19505113543E+02 -0.23783142154E+02  0.84046179524E+01  0.59301875933E+02  0.49999875812E+02 0.  0.
        -12    1    1    2    0    0  0.19505113543E+02  0.23783142154E+02 -0.84046179524E+01  0.31886124067E+02  0.00000000000E+00 0.  1.
         11    1    3    3    0    0 -0.27792439608E+01 -0.32251161880E+02  0.86658446103E+01  0.33510572998E+02  0.51100000000E-03 0. -1.
        -11    1    3    3    0    0 -0.55032090299E+01  0.11150320143E+02  0.46167468054E+01  0.13263834296E+02  0.51100000000E-03 0.  1.
         12    1    3    3    0    0 -0.11222660552E+02 -0.26823004173E+01 -0.48779734632E+01  0.12527468639E+02  0.00000000000E+00 0. -1.
</event>
<event>
 7    1  0.5987893E-013  0.5930194E+02  0.7816164E-02  0.1266605E+00
        -11   -1    0    0    0    0  0.00000000000E+00  0.00000000000E+00  0.45593999997E+02  0.45594000000E+02  0.51100000000E-03 0.  1.
         11   -1    0    0    0    0 -0.00000000000E+00 -0.00000000000E+00 -0.45593999997E+02  0.45594000000E+02  0.51100000000E-03 0. -1.
    9900012    2    1    2    0    0  0.19622710546E+01  0.31211638125E+02 -0.62212348187E+01  0.59301943097E+02  0.49999998302E+02 0.  0.
        -12    1    1    2    0    0 -0.19622710546E+01 -0.31211638125E+02  0.62212348187E+01  0.31886056903E+02  0.00000000000E+00 0.  1.
         11    1    3    3    0    0  0.11985815909E+02  0.15552140763E+02 -0.83537224927E+00  0.19652651535E+02  0.51100000000E-03 0. -1.
        -11    1    3    3    0    0 -0.10274396266E+02  0.10608887728E+02  0.13554281318E+02  0.20045704272E+02  0.51100000000E-03 0.  1.
        -12    1    3    3    0    0  0.25085141144E+00  0.50506096345E+01 -0.18940143888E+02  0.19603587289E+02  0.00000000000E+00 0.  1.
</event>
<event>
 7    1  0.5987893E-013  0.5930195E+02  0.7816164E-02  0.1266605E+00
        -11   -1    0    0    0    0  0.00000000000E+00  0.00000000000E+00  0.45593999997E+02  0.45594000000E+02  0.51100000000E-03 0. -1.
         11   -1    0    0    0    0 -0.00000000000E+00 -0.00000000000E+00 -0.45593999997E+02  0.45594000000E+02  0.51100000000E-03 0.  1.
    9900012    2    1    2    0    0 -0.21734105812E+02  0.82385000819E+01  0.21828334843E+02  0.59301945978E+02  0.50000003557E+02 0.  0.
        -12    1    1    2    0    0  0.21734105812E+02 -0.82385000819E+01 -0.21828334843E+02  0.31886054022E+02  0.00000000000E+00 0.  1.
         11    1    3    3    0    0  0.99017325882E+00 -0.60294622268E+00  0.29775682011E+02  0.29798242007E+02  0.51100000000E-03 0. -1.
        -11    1    3    3    0    0 -0.56283609680E+01  0.42577352638E+01 -0.93886681398E+01  0.11745375535E+02  0.51100000000E-03 0.  1.
         12    1    3    3    0    0 -0.17095918103E+02  0.45837110407E+01  0.14413209725E+01  0.17758328436E+02  0.00000000000E+00 0. -1.
</event>
<event>
 7    1  0.5987893E-013  0.5930195E+02  0.7816164E-02  0.1266605E+00
        -11   -1    0    0    0    0  0.00000000000E+00  0.00000000000E+00  0.45593999997E+02  0.45594000000E+02  0.51100000000E-03 0.  1.
         11   -1    0    0    0    0 -0.00000000000E+00 -0.00000000000E+00 -0.45593999997E+02  0.45594000000E+02  0.51100000000E-03 0. -1.
    9900012    2    1    2    0    0  0.89282976136E+01 -0.29617135304E+02 -0.77350632794E+01  0.59301946531E+02  0.50000004565E+02 0.  0.
        -12    1    1    2    0    0 -0.89282976136E+01  0.29617135304E+02  0.77350632794E+01  0.31886053469E+02  0.00000000000E+00 0.  1.
         11    1    3    3    0    0  0.10737453852E+02 -0.34796963877E+01 -0.11308411202E+02  0.15977526916E+02  0.51100000000E-03 0. -1.
        -11    1    3    3    0    0 -0.17122466199E+02 -0.66031160065E+01  0.12226042365E+01  0.18392247038E+02  0.51100000000E-03 0.  1.
        -12    1    3    3    0    0  0.15313309960E+02 -0.19534322910E+02  0.23507436864E+01  0.24932172576E+02  0.00000000000E+00 0.  1.
</event>
<event>
 7    1  0.5987893E-013  0.5930194E+02  0.7816164E-02  0.1266605E+00
        -11   -1    0    0    0    0  0.00000000000E+00  0.00000000000E+00  0.45593999997E+02  0.45594000000E+02  0.51100000000E-03 0. -1.
         11   -1    0    0    0    0 -0.00000000000E+00 -0.00000000000E+00 -0.45593999997E+02  0.45594000000E+02  0.51100000000E-03 0.  1.
    9900012    2    1    2    0    0 -0.95514861514E+01 -0.68456736756E+00  0.30414163429E+02  0.59301939452E+02  0.49999991654E+02 0.  0.
        -12    1    1    2    0    0  0.95514861514E+01  0.68456736756E+00 -0.30414163429E+02  0.31886060548E+02  0.00000000000E+00 0.  1.
         11    1    3    3    0    0  0.60462992588E+01 -0.11220605033E+01 -0.60328826057E+01  0.86146635045E+01  0.51100000000E-03 0. -1.
        -11    1    3    3    0    0 -0.18385536734E+02 -0.11692141012E+02  0.17165658064E+02  0.27737951249E+02  0.51100000000E-03 0.  1.
         12    1    3    3    0    0  0.27877513242E+01  0.12129634148E+02  0.19281387971E+02  0.22949324698E+02  0.00000000000E+00 0. -1.
</event>
<event>
 7    1  0.5987893E-013  0.5930195E+02  0.7816164E-02  0.1266605E+00
        -11   -1    0    0    0    0  0.00000000000E+00  0.00000000000E+00  0.45593999997E+02  0.45594000000E+02  0.51100000000E-03 0.  1.
         11   -1    0    0    0    0 -0.00000000000E+00 -0.00000000000E+00 -0.45593999997E+02  0.45594000000E+02  0.51100000000E-03 0. -1.
    9900012    2    1    2    0    0  0.23305174999E+02  0.56815220929E+01 -0.21007364369E+02  0.59301949245E+02  0.50000009515E+02 0.  0.
        -12    1    1    2    0    0 -0.23305174999E+02 -0.56815220929E+01  0.21007364369E+02  0.31886050755E+02  0.00000000000E+00 0.  1.
         11    1    3    3    0    0  0.31147038061E+01  0.51380121602E+01 -0.13561479372E+02  0.14832878068E+02  0.51100000000E-03 0. -1.
        -11    1    3    3    0    0 -0.35908121350E+01  0.85261012156E+01  0.10221659530E+02  0.13786611532E+02  0.51100000000E-03 0.  1.
        -12    1    3    3    0    0  0.23781283328E+02 -0.79825912829E+01 -0.17667544527E+02  0.30682459646E+02  0.00000000000E+00 0.  1.
</event>
<event>
 7    1  0.5987893E-013  0.5930195E+02  0.7816164E-02  0.1266605E+00
        -11   -1    0    0    0    0  0.00000000000E+00  0.00000000000E+00  0.45593999997E+02  0.45594000000E+02  0.51100000000E-03 0.  1.
         11   -1    0    0    0    0 -0.00000000000E+00 -0.00000000000E+00 -0.45593999997E+02  0.45594000000E+02  0.51100000000E-03 0. -1.
    9900012    2    1    2    0    0  0.32538000728E+01  0.25842252104E+02 -0.18393224591E+02  0.59301954156E+02  0.50000018472E+02 0.  0.
        -12    1    1    2    0    0 -0.32538000728E+01 -0.25842252104E+02  0.18393224591E+02  0.31886045844E+02  0.00000000000E+00 0.  1.
         11    1    3    3    0    0  0.39683680476E+01  0.14782781164E+02 -0.20022519633E+02  0.25202774780E+02  0.51100000000E-03 0. -1.
        -11    1    3    3    0    0 -0.15472951843E+02  0.39916154026E+01  0.61508739954E+01  0.17122455531E+02  0.51100000000E-03 0.  1.
        -12    1    3    3    0    0  0.14758383868E+02  0.70678555373E+01 -0.45215789536E+01  0.16976723845E+02  0.00000000000E+00 0.  1.
</event>
<event>
 7    1  0.5987893E-013  0.5930199E+02  0.7816164E-02  0.1266605E+00
        -11   -1    0    0    0    0  0.00000000000E+00  0.00000000000E+00  0.45593999997E+02  0.45594000000E+02  0.51100000000E-03 0. -1.
         11   -1    0    0    0    0 -0.00000000000E+00 -0.00000000000E+00 -0.45593999997E+02  0.45594000000E+02  0.51100000000E-03 0.  1.
    9900012    2    1    2    0    0  0.10838758937E+02 -0.14611084723E+02  0.26186931322E+02  0.59301986387E+02  0.50000077253E+02 0.  0.
        -12    1    1    2    0    0 -0.10838758937E+02  0.14611084723E+02 -0.26186931322E+02  0.31886013613E+02  0.00000000000E+00 0.  1.
         11    1    3    3    0    0  0.97653239553E+01 -0.89311440070E+00  0.37696642775E+02  0.38951201291E+02  0.51100000000E-03 0. -1.
        -11    1    3    3    0    0  0.31063934489E+01 -0.14299492284E+02 -0.95954592611E+01  0.17498514180E+02  0.51100000000E-03 0.  1.
         12    1    3    3    0    0 -0.20329584669E+01  0.58152196120E+00 -0.19142521921E+01  0.28522709154E+01  0.00000000000E+00 0. -1.
</event>
<event>
 7    1  0.5987893E-013  0.5930195E+02  0.7816164E-02  0.1266605E+00
        -11   -1    0    0    0    0  0.00000000000E+00  0.00000000000E+00  0.45593999997E+02  0.45594000000E+02  0.51100000000E-03 0.  1.
         11   -1    0    0    0    0 -0.00000000000E+00 -0.00000000000E+00 -0.45593999997E+02  0.45594000000E+02  0.51100000000E-03 0. -1.
    9900012    2    1    2    0    0 -0.12109025454E+02 -0.17666222298E+02 -0.23621950794E+02  0.59301945571E+02  0.50000002815E+02 0.  0.
        -12    1    1    2    0    0  0.12109025454E+02  0.17666222298E+02  0.23621950794E+02  0.31886054429E+02  0.00000000000E+00 0.  1.
         11    1    3    3    0    0  0.73577114249E+01  0.11524306138E+02 -0.70282945905E+01  0.15373434050E+02  0.51100000000E-03 0. -1.
        -11    1    3    3    0    0 -0.12764526794E+02 -0.13523308301E+02  0.20048459058E+01  0.18703807608E+02  0.51100000000E-03 0.  1.
         12    1    3    3    0    0 -0.67022100853E+01 -0.15667220135E+02 -0.18598502109E+02  0.25224703913E+02  0.00000000000E+00 0. -1.
</event>
<event>
 7    1  0.5987893E-013  0.5930194E+02  0.7816164E-02  0.1266605E+00
        -11   -1    0    0    0    0  0.00000000000E+00  0.00000000000E+00  0.45593999997E+02  0.45594000000E+02  0.51100000000E-03 0.  1.
         11   -1    0    0    0    0 -0.00000000000E+00 -0.00000000000E+00 -0.45593999997E+02  0.45594000000E+02  0.51100000000E-03 0. -1.
    9900012    2    1    2    0    0 -0.25919104018E+01  0.31851824528E+01 -0.31620518971E+02  0.59301943379E+02  0.49999998818E+02 0.  0.
        -12    1    1    2    0    0  0.25919104018E+01 -0.31851824528E+01  0.31620518971E+02  0.31886056621E+02  0.00000000000E+00 0.  1.
         11    1    3    3    0    0 -0.48132563870E+00  0.34830596603E+01 -0.29207613072E+02  0.29418498272E+02  0.51100000000E-03 0. -1.
        -11    1    3    3    0    0  0.10321419319E+02 -0.85436859616E+01  0.34806126153E+01  0.13843443611E+02  0.51100000000E-03 0.  1.
        -12    1    3    3    0    0 -0.12432004082E+02  0.82458087541E+01 -0.58935185148E+01  0.16040001496E+02  0.00000000000E+00 0.  1.
</event>
<event>
 7    1  0.5987893E-013  0.5930196E+02  0.7816164E-02  0.1266605E+00
        -11   -1    0    0    0    0  0.00000000000E+00  0.00000000000E+00  0.45593999997E+02  0.45594000000E+02  0.51100000000E-03 0.  1.
         11   -1    0    0    0    0 -0.00000000000E+00 -0.00000000000E+00 -0.45593999997E+02  0.45594000000E+02  0.51100000000E-03 0. -1.
    9900012    2    1    2    0    0  0.27993858597E+02  0.79334510532E+01 -0.13043152243E+02  0.59301959400E+02  0.50000028035E+02 0.  0.
        -12    1    1    2    0    0 -0.27993858597E+02 -0.79334510532E+01  0.13043152243E+02  0.31886040600E+02  0.00000000000E+00 0.  1.
         11    1    3    3    0    0  0.27388662598E+02  0.95991936045E+01 -0.24763461355E+02  0.38151177902E+02  0.51100000000E-03 0. -1.
        -11    1    3    3    0    0 -0.12652205863E+00  0.77191217843E+01  0.28881269555E+01  0.82427014094E+01  0.51100000000E-03 0.  1.
         12    1    3    3    0    0  0.73171805766E+00 -0.93848643356E+01  0.88321821571E+01  0.12908080088E+02  0.00000000000E+00 0. -1.
</event>
<event>
 7    1  0.5987893E-013  0.5930194E+02  0.7816164E-02  0.1266605E+00
        -11   -1    0    0    0    0  0.00000000000E+00  0.00000000000E+00  0.45593999997E+02  0.45594000000E+02  0.51100000000E-03 0. -1.
         11   -1    0    0    0    0 -0.00000000000E+00 -0.00000000000E+00 -0.45593999997E+02  0.45594000000E+02  0.51100000000E-03 0.  1.
    9900012    2    1    2    0    0  0.18241908520E+02  0.23679660199E+02  0.11100773462E+02  0.59301941839E+02  0.49999996008E+02 0.  0.
        -12    1    1    2    0    0 -0.18241908520E+02 -0.23679660199E+02 -0.11100773462E+02  0.31886058161E+02  0.00000000000E+00 0.  1.
         11    1    3    3    0    0  0.14480751548E+02  0.12279755313E+02 -0.67056560045E+01  0.20135798436E+02  0.51100000000E-03 0.  1.
        -11    1    3    3    0    0  0.56591689549E+00  0.21806589731E+02  0.17994919241E+02  0.28278343946E+02  0.51100000000E-03 0. -1.
        -12    1    3    3    0    0  0.31952400765E+01 -0.10406684845E+02 -0.18848977403E+00  0.10887799456E+02  0.00000000000E+00 0.  1.
</event>
<event>
 7    1  0.5987893E-013  0.5930185E+02  0.7816164E-02  0.1266605E+00
        -11   -1    0    0    0    0  0.00000000000E+00  0.00000000000E+00  0.45593999997E+02  0.45594000000E+02  0.51100000000E-03 0.  1.
         11   -1    0    0    0    0 -0.00000000000E+00 -0.00000000000E+00 -0.45593999997E+02  0.45594000000E+02  0.51100000000E-03 0. -1.
    9900012    2    1    2    0    0  0.18035740152E+02 -0.97552298826E+01 -0.24418725914E+02  0.59301849273E+02  0.49999827190E+02 0.  0.
        -12    1    1    2    0    0 -0.18035740152E+02  0.97552298826E+01  0.24418725914E+02  0.31886150727E+02  0.00000000000E+00 0.  1.
         11    1    3    3    0    0  0.91663000061E+01 -0.21580486254E+02 -0.73352838216E+01  0.24567149443E+02  0.51100000000E-03 0. -1.
        -11    1    3    3    0    0  0.16121908597E+02  0.14941559671E+02 -0.14863999885E+02  0.26534970041E+02  0.51100000000E-03 0.  1.
        -12    1    3    3    0    0 -0.72524684515E+01 -0.31163032998E+01 -0.22194422080E+01  0.81997297889E+01  0.00000000000E+00 0.  1.
</event>
<event>
 7    1  0.5987893E-013  0.5930204E+02  0.7816164E-02  0.1266604E+00
        -11   -1    0    0    0    0  0.00000000000E+00  0.00000000000E+00  0.45593999997E+02  0.45594000000E+02  0.51100000000E-03 0.  1.
         11   -1    0    0    0    0 -0.00000000000E+00 -0.00000000000E+00 -0.45593999997E+02  0.45594000000E+02  0.51100000000E-03 0. -1.
    9900012    2    1    2    0    0  0.16156479310E+01  0.26522702762E+02 -0.17625277303E+02  0.59302039453E+02  0.50000174032E+02 0.  0.
        -12    1    1    2    0    0 -0.16156479310E+01 -0.26522702762E+02  0.17625277303E+02  0.31885960547E+02  0.00000000000E+00 0.  1.
         11    1    3    3    0    0 -0.40976658081E+01  0.26013608542E+02 -0.13982914055E+02  0.29816448148E+02  0.51100000000E-03 0. -1.
        -11    1    3    3    0    0  0.10802628844E+01 -0.55676448067E+01 -0.14864001716E+02  0.15909248375E+02  0.51100000000E-03 0.  1.
         12    1    3    3    0    0  0.46330508546E+01  0.60767390270E+01  0.11221638468E+02  0.13576342929E+02  0.00000000000E+00 0. -1.
</event>
<event>
 7    1  0.5987893E-013  0.5930191E+02  0.7816164E-02  0.1266605E+00
        -11   -1    0    0    0    0  0.00000000000E+00  0.00000000000E+00  0.45593999997E+02  0.45594000000E+02  0.51100000000E-03 0. -1.
         11   -1    0    0    0    0 -0.00000000000E+00 -0.00000000000E+00 -0.45593999997E+02  0.45594000000E+02  0.51100000000E-03 0.  1.
    9900012    2    1    2    0    0 -0.16983587279E+02 -0.26957945761E+02 -0.12447607833E+01  0.59301913600E+02  0.49999944506E+02 0.  0.
        -12    1    1    2    0    0  0.16983587279E+02  0.26957945761E+02  0.12447607833E+01  0.31886086400E+02  0.00000000000E+00 0.  1.
         11    1    3    3    0    0 -0.20271085425E+02 -0.13963755035E+02  0.13959912628E+02  0.28298100993E+02  0.51100000000E-03 0. -1.
        -11    1    3    3    0    0 -0.50192784285E+00 -0.13392011663E+02 -0.20492922480E+02  0.24485868985E+02  0.51100000000E-03 0.  1.
        -12    1    3    3    0    0  0.37894259895E+01  0.39782093637E+00  0.52882490690E+01  0.65179436208E+01  0.00000000000E+00 0.  1.
</event>
<event>
 7    1  0.5987893E-013  0.5930197E+02  0.7816164E-02  0.1266605E+00
        -11   -1    0    0    0    0  0.00000000000E+00  0.00000000000E+00  0.45593999997E+02  0.45594000000E+02  0.51100000000E-03 0. -1.
         11   -1    0    0    0    0 -0.00000000000E+00 -0.00000000000E+00 -0.45593999997E+02  0.45594000000E+02  0.51100000000E-03 0.  1.
    9900012    2    1    2    0    0  0.29308345459E+02 -0.10268337567E+02  0.72319600943E+01  0.59301966745E+02  0.50000041430E+02 0.  0.
        -12    1    1    2    0    0 -0.29308345459E+02  0.10268337567E+02 -0.72319600943E+01  0.31886033255E+02  0.00000000000E+00 0.  1.
         11    1    3    3    0    0  0.20422010833E+02  0.90224276404E+00  0.21267236633E+02  0.29498608827E+02  0.51100000000E-03 0. -1.
        -11    1    3    3    0    0 -0.16691520394E+01 -0.14424019256E+02 -0.44726097324E+01  0.15193506446E+02  0.51100000000E-03 0.  1.
        -12    1    3    3    0    0  0.10555486666E+02  0.32534389250E+01 -0.95626668060E+01  0.14609851472E+02  0.00000000000E+00 0.  1.
</event>
<event>
 7    1  0.5987893E-013  0.5930199E+02  0.7816164E-02  0.1266605E+00
        -11   -1    0    0    0    0  0.00000000000E+00  0.00000000000E+00  0.45593999997E+02  0.45594000000E+02  0.51100000000E-03 0.  1.
         11   -1    0    0    0    0 -0.00000000000E+00 -0.00000000000E+00 -0.45593999997E+02  0.45594000000E+02  0.51100000000E-03 0. -1.
    9900012    2    1    2    0    0 -0.24985655938E+01  0.20179567115E+02 -0.24561355172E+02  0.59301985403E+02  0.50000075459E+02 0.  0.
        -12    1    1    2    0    0  0.24985655938E+01 -0.20179567115E+02  0.24561355172E+02  0.31886014597E+02  0.00000000000E+00 0.  1.
         11    1    3    3    0    0 -0.27781505620E+01  0.96209192889E+01 -0.30265079198E+02  0.31878758251E+02  0.51100000000E-03 0. -1.
        -11    1    3    3    0    0 -0.10896878818E+02  0.13205465307E+01  0.67489142506E+01  0.12885404725E+02  0.51100000000E-03 0.  1.
         12    1    3    3    0    0  0.11176463786E+02  0.92381012958E+01 -0.10451902245E+01  0.14537822427E+02  0.00000000000E+00 0. -1.
</event>
<event>
 7    1  0.5987893E-013  0.5930194E+02  0.7816164E-02  0.1266605E+00
        -11   -1    0    0    0    0  0.00000000000E+00  0.00000000000E+00  0.45593999997E+02  0.45594000000E+02  0.51100000000E-03 0. -1.
         11   -1    0    0    0    0 -0.00000000000E+00 -0.00000000000E+00 -0.45593999997E+02  0.45594000000E+02  0.51100000000E-03 0.  1.
    9900012    2    1    2    0    0  0.30837536137E+02 -0.74825686053E+01 -0.31270254309E+01  0.59301941041E+02  0.49999994552E+02 0.  0.
        -12    1    1    2    0    0 -0.30837536137E+02  0.74825686053E+01  0.31270254309E+01  0.31886058959E+02  0.00000000000E+00 0.  1.
         11    1    3    3    0    0  0.10115174927E+02 -0.63721819887E+01  0.13421243924E+02  0.17973626674E+02  0.51100000000E-03 0. -1.
        -11    1    3    3    0    0 -0.75433999625E+01 -0.36956551069E+01 -0.82083364836E+01  0.11744681254E+02  0.51100000000E-03 0.  1.
        -12    1    3    3    0    0  0.28265761173E+02  0.25852684904E+01 -0.83399328714E+01  0.29583633113E+02  0.00000000000E+00 0.  1.
</event>
<event>
 7    1  0.5987893E-013  0.5930193E+02  0.7816164E-02  0.1266605E+00
        -11   -1    0    0    0    0  0.00000000000E+00  0.00000000000E+00  0.45593999997E+02  0.45594000000E+02  0.51100000000E-03 0.  1.
         11   -1    0    0    0    0 -0.00000000000E+00 -0.00000000000E+00 -0.45593999997E+02  0.45594000000E+02  0.51100000000E-03 0. -1.
    9900012    2    1    2    0    0 -0.27267966502E+02 -0.60179398756E+01 -0.15393627394E+02  0.59301931540E+02  0.49999977226E+02 0.  0.
        -12    1    1    2    0    0  0.27267966502E+02  0.60179398756E+01  0.15393627394E+02  0.31886068460E+02  0.00000000000E+00 0.  1.
         11    1    3    3    0    0  0.83738476972E+01  0.10854321589E+02 -0.92162610878E+01  0.16518991831E+02  0.51100000000E-03 0. -1.
        -11    1    3    3    0    0 -0.50451891184E+01 -0.94154804237E+01 -0.31964474753E+01  0.11149999174E+02  0.51100000000E-03 0.  1.
         12    1    3    3    0    0 -0.30596625081E+02 -0.74567810413E+01 -0.29809188305E+01  0.31632940535E+02  0.00000000000E+00 0. -1.
</event>
<event>
 7    1  0.5987893E-013  0.5930192E+02  0.7816164E-02  0.1266605E+00
        -11   -1    0    0    0    0  0.00000000000E+00  0.00000000000E+00  0.45593999997E+02  0.45594000000E+02  0.51100000000E-03 0.  1.
         11   -1    0    0    0    0 -0.00000000000E+00 -0.00000000000E+00 -0.45593999997E+02  0.45594000000E+02  0.51100000000E-03 0. -1.
    9900012    2    1    2    0    0  0.46957643328E+01 -0.27142844807E+02 -0.16060435319E+02  0.59301924520E+02  0.49999964422E+02 0.  0.
        -12    1    1    2    0    0 -0.46957643328E+01  0.27142844807E+02  0.16060435319E+02  0.31886075480E+02  0.00000000000E+00 0.  1.
         11    1    3    3    0    0  0.70398935068E+01  0.81806462962E+00 -0.11219909507E+02  0.13270859050E+02  0.51100000000E-03 0. -1.
        -11    1    3    3    0    0  0.69016060032E+00 -0.32965438479E+01  0.14282726838E+02  0.14674461121E+02  0.51100000000E-03 0.  1.
         12    1    3    3    0    0 -0.30342897743E+01 -0.24664365589E+02 -0.19123252650E+02  0.31356604348E+02  0.00000000000E+00 0. -1.
</event>
<event>
 7    1  0.5987893E-013  0.5930218E+02  0.7816164E-02  0.1266604E+00
        -11   -1    0    0    0    0  0.00000000000E+00  0.00000000000E+00  0.45593999997E+02  0.45594000000E+02  0.51100000000E-03 0.  1.
         11   -1    0    0    0    0 -0.00000000000E+00 -0.00000000000E+00 -0.45593999997E+02  0.45594000000E+02  0.51100000000E-03 0. -1.
    9900012    2    1    2    0    0  0.28966228882E+02  0.13311775289E+02  0.67790427274E+00  0.59302182915E+02  0.50000435670E+02 0.  0.
        -12    1    1    2    0    0 -0.28966228882E+02 -0.13311775289E+02 -0.67790427274E+00  0.31885817085E+02  0.00000000000E+00 0.  1.
         11    1    3    3    0    0  0.52183897161E+01  0.60190472809E+00 -0.21788982529E+02  0.22413246986E+02  0.51100000000E-03 0. -1.
        -11    1    3    3    0    0  0.49525572861E+01  0.69389040563E+01  0.11688365134E+02  0.14467000137E+02  0.51100000000E-03 0.  1.
         12    1    3    3    0    0  0.18795281880E+02  0.57709665042E+01  0.10778521667E+02  0.22421935792E+02  0.00000000000E+00 0. -1.
</event>
<event>
 7    1  0.5987893E-013  0.5930194E+02  0.7816164E-02  0.1266605E+00
        -11   -1    0    0    0    0  0.00000000000E+00  0.00000000000E+00  0.45593999997E+02  0.45594000000E+02  0.51100000000E-03 0. -1.
         11   -1    0    0    0    0 -0.00000000000E+00 -0.00000000000E+00 -0.45593999997E+02  0.45594000000E+02  0.51100000000E-03 0.  1.
    9900012    2    1    2    0    0 -0.82412635778E+01 -0.30739615755E+02 -0.19693960188E+01  0.59301938424E+02  0.49999989781E+02 0.  0.
        -12    1    1    2    0    0  0.82412635778E+01  0.30739615755E+02  0.19693960188E+01  0.31886061576E+02  0.00000000000E+00 0.  1.
         11    1    3    3    0    0  0.12781733236E+02 -0.10027861787E+02 -0.89815579945E+00  0.16270752922E+02  0.51100000000E-03 0. -1.
        -11    1    3    3    0    0 -0.21279715024E+02 -0.18746276325E+02 -0.12815726111E+02  0.31120603843E+02  0.51100000000E-03 0.  1.
         12    1    3    3    0    0  0.25671820985E+00 -0.19654776440E+01  0.11744485892E+02  0.11910581660E+02  0.00000000000E+00 0. -1.
</event>
<event>
 7    1  0.5987893E-013  0.5930194E+02  0.7816164E-02  0.1266605E+00
        -11   -1    0    0    0    0  0.00000000000E+00  0.00000000000E+00  0.45593999997E+02  0.45594000000E+02  0.51100000000E-03 0.  1.
         11   -1    0    0    0    0 -0.00000000000E+00 -0.00000000000E+00 -0.45593999997E+02  0.45594000000E+02  0.51100000000E-03 0. -1.
    9900012    2    1    2    0    0  0.10666863257E+02 -0.27030158475E+02 -0.13126676159E+02  0.59301936180E+02  0.49999985688E+02 0.  0.
        -12    1    1    2    0    0 -0.10666863257E+02  0.27030158475E+02  0.13126676159E+02  0.31886063820E+02  0.00000000000E+00 0.  1.
         11    1    3    3    0    0 -0.56584061951E+01 -0.28036403557E+02 -0.15525025623E+02  0.32543569348E+02  0.51100000000E-03 0. -1.
        -11    1    3    3    0    0  0.18482921507E+02 -0.14458296135E+01  0.80651222977E+01  0.20217690487E+02  0.51100000000E-03 0.  1.
        -12    1    3    3    0    0 -0.21576520547E+01  0.24520746948E+01 -0.56667728335E+01  0.65406763446E+01  0.00000000000E+00 0.  1.
</event>
<event>
 7    1  0.5987893E-013  0.5930193E+02  0.7816164E-02  0.1266605E+00
        -11   -1    0    0    0    0  0.00000000000E+00  0.00000000000E+00  0.45593999997E+02  0.45594000000E+02  0.51100000000E-03 0. -1.
         11   -1    0    0    0    0 -0.00000000000E+00 -0.00000000000E+00 -0.45593999997E+02  0.45594000000E+02  0.51100000000E-03 0.  1.
    9900012    2    1    2    0    0 -0.19108526723E+02  0.24912123030E+02 -0.55652057201E+01  0.59301934359E+02  0.49999982366E+02 0.  0.
        -12    1    1    2    0    0  0.19108526723E+02 -0.24912123030E+02  0.55652057201E+01  0.31886065641E+02  0.00000000000E+00 0.  1.
         11    1    3    3    0    0  0.70995352600E+01  0.18447927803E+02 -0.73078001910E+01  0.21074472355E+02  0.51100000000E-03 0. -1.
        -11    1    3    3    0    0 -0.16364352501E+02  0.13576132232E+02 -0.79389748370E+01  0.22696491378E+02  0.51100000000E-03 0.  1.
         12    1    3    3    0    0 -0.98437094812E+01 -0.71119370050E+01  0.96815693079E+01  0.15530970626E+02  0.00000000000E+00 0. -1.
</event>
<event>
 7    1  0.5987893E-013  0.5930194E+02  0.7816164E-02  0.1266605E+00
        -11   -1    0    0    0    0  0.00000000000E+00  0.00000000000E+00  0.45593999997E+02  0.45594000000E+02  0.51100000000E-03 0.  1.
         11   -1    0    0    0    0 -0.00000000000E+00 -0.00000000000E+00 -0.45593999997E+02  0.45594000000E+02  0.51100000000E-03 0. -1.
    9900012    2    1    2    0    0  0.24237770938E+02 -0.19747101461E+02 -0.62692356166E+01  0.59301939231E+02  0.49999991252E+02 0.  0.
        -12    1    1    2    0    0 -0.24237770938E+02  0.19747101461E+02  0.62692356166E+01  0.31886060769E+02  0.00000000000E+00 0.  1.
         11    1    3    3    0    0  0.10126527683E+02 -0.29562086050E+02 -0.12992930261E+02  0.33841981792E+02  0.51100000000E-03 0. -1.
        -11    1    3    3    0    0  0.75482986949E+01  0.12078752482E+02 -0.19214086833E+01  0.14372365369E+02  0.51100000000E-03 0.  1.
        -12    1    3    3    0    0  0.65629445597E+01 -0.22637678925E+01  0.86451033281E+01  0.11087592070E+02  0.00000000000E+00 0.  1.
</event>
<event>
 7    1  0.5987893E-013  0.5930196E+02  0.7816164E-02  0.1266605E+00
        -11   -1    0    0    0    0  0.00000000000E+00  0.00000000000E+00  0.45593999997E+02  0.45594000000E+02  0.51100000000E-03 0. -1.
         11   -1    0    0    0    0 -0.00000000000E+00 -0.00000000000E+00 -0.45593999997E+02  0.45594000000E+02  0.51100000000E-03 0.  1.
    9900012    2    1    2    0    0 -0.25664342532E+02  0.25278802080E+01 -0.18752883683E+02  0.59301963834E+02  0.50000036123E+02 0.  0.
        -12    1    1    2    0    0  0.25664342532E+02 -0.25278802080E+01  0.18752883683E+02  0.31886036166E+02  0.00000000000E+00 0.  1.
         11    1    3    3    0    0  0.31195150910E+01  0.22159756916E+01 -0.25568552055E+02  0.25853293351E+02  0.51100000000E-03 0.  1.
        -11    1    3    3    0    0 -0.25517241910E+02  0.10384557664E+01 -0.34928218637E+00  0.25540752209E+02  0.51100000000E-03 0. -1.
         12    1    3    3    0    0 -0.32666157125E+01 -0.72655125000E+00  0.71649505583E+01  0.79079182744E+01  0.00000000000E+00 0. -1.
</event>
<event>
 7    1  0.5987893E-013  0.5930195E+02  0.7816164E-02  0.1266605E+00
        -11   -1    0    0    0    0  0.00000000000E+00  0.00000000000E+00  0.45593999997E+02  0.45594000000E+02  0.51100000000E-03 0. -1.
         11   -1    0    0    0    0 -0.00000000000E+00 -0.00000000000E+00 -0.45593999997E+02  0.45594000000E+02  0.51100000000E-03 0.  1.
    9900012    2    1    2    0    0 -0.99773112006E+01  0.41316974549E+01  0.30001707354E+02  0.59301951219E+02  0.50000013116E+02 0.  0.
        -12    1    1    2    0    0  0.99773112006E+01 -0.41316974549E+01 -0.30001707354E+02  0.31886048781E+02  0.00000000000E+00 0.  1.
         11    1    3    3    0    0 -0.62012521182E+01  0.11624911958E+02  0.29893645601E+02  0.32668396861E+02  0.51100000000E-03 0. -1.
        -11    1    3    3    0    0  0.67594808467E+01 -0.31712524643E+01 -0.92547812427E+01  0.11891105904E+02  0.51100000000E-03 0.  1.
         12    1    3    3    0    0 -0.10535539929E+02 -0.43219620393E+01  0.93628429960E+01  0.14742448454E+02  0.00000000000E+00 0. -1.
</event>
<event>
 7    1  0.5987893E-013  0.5930195E+02  0.7816164E-02  0.1266605E+00
        -11   -1    0    0    0    0  0.00000000000E+00  0.00000000000E+00  0.45593999997E+02  0.45594000000E+02  0.51100000000E-03 0. -1.
         11   -1    0    0    0    0 -0.00000000000E+00 -0.00000000000E+00 -0.45593999997E+02  0.45594000000E+02  0.51100000000E-03 0.  1.
    9900012    2    1    2    0    0  0.28389158824E+02  0.66624625899E+01 -0.12899115703E+02  0.59301953954E+02  0.50000018104E+02 0.  0.
        -12    1    1    2    0    0 -0.28389158824E+02 -0.66624625899E+01  0.12899115703E+02  0.31886046046E+02  0.00000000000E+00 0.  1.
         11    1    3    3    0    0  0.17150571568E+02  0.17760665549E+01  0.58035506173E+01  0.18192793011E+02  0.51100000000E-03 0. -1.
        -11    1    3    3    0    0 -0.10122864500E+02  0.10187385562E+02 -0.96960498808E+01  0.17328259977E+02  0.51100000000E-03 0.  1.
        -12    1    3    3    0    0  0.21361451756E+02 -0.53009895273E+01 -0.90066164391E+01  0.23780900967E+02  0.00000000000E+00 0.  1.
</event>
<event>
 7    1  0.5987893E-013  0.5930182E+02  0.7816164E-02  0.1266605E+00
        -11   -1    0    0    0    0  0.00000000000E+00  0.00000000000E+00  0.45593999997E+02  0.45594000000E+02  0.51100000000E-03 0.  1.
         11   -1    0    0    0    0 -0.00000000000E+00 -0.00000000000E+00 -0.45593999997E+02  0.45594000000E+02  0.51100000000E-03 0. -1.
    9900012    2    1    2    0    0 -0.12577555960E+02 -0.73390420875E+01 -0.28366746557E+02  0.59301815485E+02  0.49999765568E+02 0.  0.
        -12    1    1    2    0    0  0.12577555960E+02  0.73390420875E+01  0.28366746557E+02  0.31886184515E+02  0.00000000000E+00 0.  1.
         11    1    3    3    0    0  0.69981556972E+01 -0.10131786117E+02 -0.73433994791E+01  0.14337112305E+02  0.51100000000E-03 0.  1.
        -11    1    3    3    0    0 -0.29164363869E+02  0.57235460915E+01 -0.15713842316E+02  0.33619100826E+02  0.51100000000E-03 0. -1.
         12    1    3    3    0    0  0.95886522113E+01 -0.29308020623E+01 -0.53095047620E+01  0.11345602354E+02  0.00000000000E+00 0. -1.
</event>
<event>
 7    1  0.5987893E-013  0.5930199E+02  0.7816164E-02  0.1266605E+00
        -11   -1    0    0    0    0  0.00000000000E+00  0.00000000000E+00  0.45593999997E+02  0.45594000000E+02  0.51100000000E-03 0.  1.
         11   -1    0    0    0    0 -0.00000000000E+00 -0.00000000000E+00 -0.45593999997E+02  0.45594000000E+02  0.51100000000E-03 0. -1.
    9900012    2    1    2    0    0  0.34725092295E+01  0.29036371827E+01 -0.31563084354E+02  0.59301988597E+02  0.50000081284E+02 0.  0.
        -12    1    1    2    0    0 -0.34725092295E+01 -0.29036371827E+01  0.31563084354E+02  0.31886011403E+02  0.00000000000E+00 0.  1.
         11    1    3    3    0    0  0.76360300419E+01  0.17215450759E+02 -0.77341169390E+01  0.20359205896E+02  0.51100000000E-03 0. -1.
        -11    1    3    3    0    0 -0.82240162591E+01 -0.12595182226E+02 -0.28681502855E+02  0.32386751381E+02  0.51100000000E-03 0.  1.
        -12    1    3    3    0    0  0.40604954467E+01 -0.17166313505E+01  0.48525354401E+01  0.65560313196E+01  0.00000000000E+00 0.  1.
</event>
<event>
 7    1  0.5987893E-013  0.5930200E+02  0.7816164E-02  0.1266605E+00
        -11   -1    0    0    0    0  0.00000000000E+00  0.00000000000E+00  0.45593999997E+02  0.45594000000E+02  0.51100000000E-03 0. -1.
         11   -1    0    0    0    0 -0.00000000000E+00 -0.00000000000E+00 -0.45593999997E+02  0.45594000000E+02  0.51100000000E-03 0.  1.
    9900012    2    1    2    0    0 -0.27040099644E+02  0.12619787210E+02  0.11237915360E+02  0.59302003706E+02  0.50000108839E+02 0.  0.
        -12    1    1    2    0    0  0.27040099644E+02 -0.12619787210E+02 -0.11237915360E+02  0.31885996294E+02  0.00000000000E+00 0.  1.
         11    1    3    3    0    0 -0.12316224883E+02  0.84899496613E+01  0.11520622820E+02  0.18881032573E+02  0.51100000000E-03 0. -1.
        -11    1    3    3    0    0 -0.47228476136E+01 -0.15468727245E+02  0.64481588326E+01  0.17411650260E+02  0.51100000000E-03 0.  1.
        -12    1    3    3    0    0 -0.10001027148E+02  0.19598564795E+02 -0.67308662922E+01  0.23009320874E+02  0.00000000000E+00 0.  1.
</event>
<event>
 7    1  0.5987893E-013  0.5930188E+02  0.7816164E-02  0.1266605E+00
        -11   -1    0    0    0    0  0.00000000000E+00  0.00000000000E+00  0.45593999997E+02  0.45594000000E+02  0.51100000000E-03 0.  1.
         11   -1    0    0    0    0 -0.00000000000E+00 -0.00000000000E+00 -0.45593999997E+02  0.45594000000E+02  0.51100000000E-03 0. -1.
    9900012    2    1    2    0    0  0.31473693497E+02  0.50951687272E+01 -0.41323507744E+00  0.59301876217E+02  0.49999876329E+02 0.  0.
        -12    1    1    2    0    0 -0.31473693497E+02 -0.50951687272E+01  0.41323507744E+00  0.31886123783E+02  0.00000000000E+00 0.  1.
         11    1    3    3    0    0  0.13472561822E+02 -0.46087893870E+01  0.15736653513E+02  0.21222467474E+02  0.51100000000E-03 0. -1.
        -11    1    3    3    0    0 -0.45373488557E+01  0.46947527251E+01 -0.13299506388E+02  0.14815704783E+02  0.51100000000E-03 0.  1.
         12    1    3    3    0    0  0.22538480530E+02  0.50092053890E+01 -0.28503822025E+01  0.23263703960E+02  0.00000000000E+00 0. -1.
</event>
<event>
 7    1  0.5987893E-013  0.5930192E+02  0.7816164E-02  0.1266605E+00
        -11   -1    0    0    0    0  0.00000000000E+00  0.00000000000E+00  0.45593999997E+02  0.45594000000E+02  0.51100000000E-03 0.  1.
         11   -1    0    0    0    0 -0.00000000000E+00 -0.00000000000E+00 -0.45593999997E+02  0.45594000000E+02  0.51100000000E-03 0. -1.
    9900012    2    1    2    0    0  0.10525153629E+02  0.22661036899E+02 -0.19809605469E+02  0.59301922770E+02  0.49999961232E+02 0.  0.
        -12    1    1    2    0    0 -0.10525153629E+02 -0.22661036899E+02  0.19809605469E+02  0.31886077230E+02  0.00000000000E+00 0.  1.
         11    1    3    3    0    0 -0.61126145439E+01 -0.38189062421E+01 -0.27436837111E+01  0.77120621118E+01  0.51100000000E-03 0.  1.
        -11    1    3    3    0    0  0.11949546687E+02  0.31924653983E+02 -0.11270493160E+01  0.34106384129E+02  0.51100000000E-03 0. -1.
         12    1    3    3    0    0  0.46882214858E+01 -0.54447108415E+01 -0.15938872442E+02  0.17483476530E+02  0.00000000000E+00 0. -1.
</event>
<event>
 7    1  0.5987893E-013  0.5930217E+02  0.7816164E-02  0.1266604E+00
        -11   -1    0    0    0    0  0.00000000000E+00  0.00000000000E+00  0.45593999997E+02  0.45594000000E+02  0.51100000000E-03 0.  1.
         11   -1    0    0    0    0 -0.00000000000E+00 -0.00000000000E+00 -0.45593999997E+02  0.45594000000E+02  0.51100000000E-03 0. -1.
    9900012    2    1    2    0    0  0.15317154733E+01  0.31000667063E+02 -0.73019758215E+01  0.59302166758E+02  0.50000406205E+02 0.  0.
        -12    1    1    2    0    0 -0.15317154733E+01 -0.31000667063E+02  0.73019758215E+01  0.31885833242E+02  0.00000000000E+00 0.  1.
         11    1    3    3    0    0 -0.85576075239E+01  0.34805248735E+01 -0.23731337134E+02  0.25466115965E+02  0.51100000000E-03 0. -1.
        -11    1    3    3    0    0  0.31092821831E+01  0.90805522565E+01  0.33065416574E+01  0.10151713302E+02  0.51100000000E-03 0.  1.
         12    1    3    3    0    0  0.69800408141E+01  0.18439589933E+02  0.13122819655E+02  0.23684337490E+02  0.00000000000E+00 0. -1.
</event>
<event>
 7    1  0.5987893E-013  0.5930196E+02  0.7816164E-02  0.1266605E+00
        -11   -1    0    0    0    0  0.00000000000E+00  0.00000000000E+00  0.45593999997E+02  0.45594000000E+02  0.51100000000E-03 0.  1.
         11   -1    0    0    0    0 -0.00000000000E+00 -0.00000000000E+00 -0.45593999997E+02  0.45594000000E+02  0.51100000000E-03 0. -1.
    9900012    2    1    2    0    0  0.20434111049E+02  0.21758949309E+02  0.11212261704E+02  0.59301959451E+02  0.50000028128E+02 0.  0.
        -12    1    1    2    0    0 -0.20434111049E+02 -0.21758949309E+02 -0.11212261704E+02  0.31886040549E+02  0.00000000000E+00 0.  1.
         11    1    3    3    0    0  0.24560002618E+02  0.26789374249E+02  0.23164201409E+02  0.43098080333E+02  0.51100000000E-03 0. -1.
        -11    1    3    3    0    0  0.24823233952E+01 -0.32170756526E+01 -0.39207750455E+01  0.56465903350E+01  0.51100000000E-03 0.  1.
         12    1    3    3    0    0 -0.66082149645E+01 -0.18133492870E+01 -0.80311646589E+01  0.10557288782E+02  0.00000000000E+00 0. -1.
</event>
<event>
 7    1  0.5987893E-013  0.5930173E+02  0.7816164E-02  0.1266606E+00
        -11   -1    0    0    0    0  0.00000000000E+00  0.00000000000E+00  0.45593999997E+02  0.45594000000E+02  0.51100000000E-03 0. -1.
         11   -1    0    0    0    0 -0.00000000000E+00 -0.00000000000E+00 -0.45593999997E+02  0.45594000000E+02  0.51100000000E-03 0.  1.
    9900012    2    1    2    0    0 -0.98006720819E+01  0.29689608947E+02  0.62616387380E+01  0.59301730661E+02  0.49999610869E+02 0.  0.
        -12    1    1    2    0    0  0.98006720819E+01 -0.29689608947E+02 -0.62616387380E+01  0.31886269339E+02  0.00000000000E+00 0.  1.
         11    1    3    3    0    0 -0.43361198394E+01  0.35947884090E+01 -0.18038024990E+01  0.59142322142E+01  0.51100000000E-03 0. -1.
        -11    1    3    3    0    0  0.11518576657E+02  0.18217572029E+02 -0.13027545914E+02  0.25184806762E+02  0.51100000000E-03 0.  1.
        -12    1    3    3    0    0 -0.16983128900E+02  0.78772485085E+01  0.21092987151E+02  0.28202691685E+02  0.00000000000E+00 0.  1.
</event>
<event>
 7    1  0.5987893E-013  0.5930195E+02  0.7816164E-02  0.1266605E+00
        -11   -1    0    0    0    0  0.00000000000E+00  0.00000000000E+00  0.45593999997E+02  0.45594000000E+02  0.51100000000E-03 0.  1.
         11   -1    0    0    0    0 -0.00000000000E+00 -0.00000000000E+00 -0.45593999997E+02  0.45594000000E+02  0.51100000000E-03 0. -1.
    9900012    2    1    2    0    0  0.10702154093E+02  0.16586117475E+02 -0.25041666839E+02  0.59301945474E+02  0.50000002638E+02 0.  0.
        -12    1    1    2    0    0 -0.10702154093E+02 -0.16586117475E+02  0.25041666839E+02  0.31886054526E+02  0.00000000000E+00 0.  1.
         11    1    3    3    0    0  0.22869400854E+02 -0.51150597952E+00 -0.21920729485E+02  0.31682637441E+02  0.51100000000E-03 0. -1.
        -11    1    3    3    0    0 -0.63198310662E+00  0.75416027487E+01  0.63651915575E+01  0.98889250422E+01  0.51100000000E-03 0.  1.
         12    1    3    3    0    0 -0.11535263654E+02  0.95560207058E+01 -0.94861289112E+01  0.17730382991E+02  0.00000000000E+00 0. -1.
</event>
<event>
 7    1  0.5987893E-013  0.5930194E+02  0.7816164E-02  0.1266605E+00
        -11   -1    0    0    0    0  0.00000000000E+00  0.00000000000E+00  0.45593999997E+02  0.45594000000E+02  0.51100000000E-03 0.  1.
         11   -1    0    0    0    0 -0.00000000000E+00 -0.00000000000E+00 -0.45593999997E+02  0.45594000000E+02  0.51100000000E-03 0. -1.
    9900012    2    1    2    0    0  0.35852391015E+01 -0.31650466966E+02  0.14542003679E+01  0.59301941960E+02  0.49999996230E+02 0.  0.
        -12    1    1    2    0    0 -0.35852391015E+01  0.31650466966E+02 -0.14542003679E+01  0.31886058040E+02  0.00000000000E+00 0.  1.
         11    1    3    3    0    0 -0.56857607907E+01  0.82347924800E+00  0.15036808725E+02  0.16096944143E+02  0.51100000000E-03 0. -1.
        -11    1    3    3    0    0 -0.55796046660E+01 -0.22026197345E+02 -0.92850174846E+01  0.24545812426E+02  0.51100000000E-03 0.  1.
         12    1    3    3    0    0  0.14850604558E+02 -0.10447748869E+02 -0.42975908724E+01  0.18659185392E+02  0.00000000000E+00 0. -1.
</event>
<event>
 7    1  0.5987893E-013  0.5930193E+02  0.7816164E-02  0.1266605E+00
        -11   -1    0    0    0    0  0.00000000000E+00  0.00000000000E+00  0.45593999997E+02  0.45594000000E+02  0.51100000000E-03 0.  1.
         11   -1    0    0    0    0 -0.00000000000E+00 -0.00000000000E+00 -0.45593999997E+02  0.45594000000E+02  0.51100000000E-03 0. -1.
    9900012    2    1    2    0    0  0.28227403201E+01  0.18181031043E+02 -0.26042349094E+02  0.59301926252E+02  0.49999967581E+02 0.  0.
        -12    1    1    2    0    0 -0.28227403201E+01 -0.18181031043E+02  0.26042349094E+02  0.31886073748E+02  0.00000000000E+00 0.  1.
         11    1    3    3    0    0  0.87329969675E+01  0.49521024895E+01 -0.10065599903E+02  0.14216358773E+02  0.51100000000E-03 0. -1.
        -11    1    3    3    0    0 -0.22293994243E+02  0.50926084465E+01 -0.39858173440E+01  0.23213004550E+02  0.51100000000E-03 0.  1.
        -12    1    3    3    0    0  0.16383737596E+02  0.81363201073E+01 -0.11990931848E+02  0.21872562929E+02  0.00000000000E+00 0.  1.
</event>
<event>
 7    1  0.5987893E-013  0.5930193E+02  0.7816164E-02  0.1266605E+00
        -11   -1    0    0    0    0  0.00000000000E+00  0.00000000000E+00  0.45593999997E+02  0.45594000000E+02  0.51100000000E-03 0. -1.
         11   -1    0    0    0    0 -0.00000000000E+00 -0.00000000000E+00 -0.45593999997E+02  0.45594000000E+02  0.51100000000E-03 0.  1.
    9900012    2    1    2    0    0  0.61996600771E+01  0.27038937853E+02  0.15722003061E+02  0.59301932109E+02  0.49999978263E+02 0.  0.
        -12    1    1    2    0    0 -0.61996600771E+01 -0.27038937853E+02 -0.15722003061E+02  0.31886067891E+02  0.00000000000E+00 0.  1.
         11    1    3    3    0    0 -0.12388381341E+02  0.11808012888E+01  0.10915979713E+02  0.16553697390E+02  0.51100000000E-03 0. -1.
        -11    1    3    3    0    0  0.25209884410E+01  0.25145587997E+02 -0.18570323968E+01  0.25339781925E+02  0.51100000000E-03 0.  1.
         12    1    3    3    0    0  0.16067052977E+02  0.71254856795E+00  0.66630557439E+01  0.17408452794E+02  0.00000000000E+00 0. -1.
</event>
<event>
 7    1  0.5987893E-013  0.5930194E+02  0.7816164E-02  0.1266605E+00
        -11   -1    0    0    0    0  0.00000000000E+00  0.00000000000E+00  0.45593999997E+02  0.45594000000E+02  0.51100000000E-03 0. -1.
         11   -1    0    0    0    0 -0.00000000000E+00 -0.00000000000E+00 -0.45593999997E+02  0.45594000000E+02  0.51100000000E-03 0.  1.
    9900012    2    1    2    0    0 -0.27410834141E+02 -0.15940930804E+02  0.33546146694E+01  0.59301944383E+02  0.50000000648E+02 0.  0.
        -12    1    1    2    0    0  0.27410834141E+02  0.15940930804E+02 -0.33546146694E+01  0.31886055617E+02  0.00000000000E+00 0.  1.
         11    1    3    3    0    0 -0.34191127933E+02 -0.10722123511E+02  0.69674689462E+01  0.36504010543E+02  0.51100000000E-03 0. -1.
        -11    1    3    3    0    0  0.44647139563E+01  0.54487578854E+01 -0.83274881387E+01  0.10907322869E+02  0.51100000000E-03 0.  1.
         12    1    3    3    0    0  0.23155798354E+01 -0.10667565179E+02  0.47146338619E+01  0.11890610971E+02  0.00000000000E+00 0. -1.
</event>
<event>
 7    1  0.5987893E-013  0.5930194E+02  0.7816164E-02  0.1266605E+00
        -11   -1    0    0    0    0  0.00000000000E+00  0.00000000000E+00  0.45593999997E+02  0.45594000000E+02  0.51100000000E-03 0. -1.
         11   -1    0    0    0    0 -0.00000000000E+00 -0.00000000000E+00 -0.45593999997E+02  0.45594000000E+02  0.51100000000E-03 0.  1.
    9900012    2    1    2    0    0  0.16334008932E+02 -0.25669047994E+02  0.95404862231E+01  0.59301941133E+02  0.49999994720E+02 0.  0.
        -12    1    1    2    0    0 -0.16334008932E+02  0.25669047994E+02 -0.95404862231E+01  0.31886058867E+02  0.00000000000E+00 0.  1.
         11    1    3    3    0    0 -0.10952606097E+02 -0.46616935852E+01  0.15078136433E+02  0.19210444189E+02  0.51100000000E-03 0. -1.
        -11    1    3    3    0    0  0.29523002512E+02 -0.18426924758E+02 -0.82081358250E+01  0.35756576001E+02  0.51100000000E-03 0.  1.
        -12    1    3    3    0    0 -0.22363874830E+01 -0.25804296507E+01  0.26704856146E+01  0.43349209421E+01  0.00000000000E+00 0.  1.
</event>
<event>
 7    1  0.5987893E-013  0.5930194E+02  0.7816164E-02  0.1266605E+00
        -11   -1    0    0    0    0  0.00000000000E+00  0.00000000000E+00  0.45593999997E+02  0.45594000000E+02  0.51100000000E-03 0.  1.
         11   -1    0    0    0    0 -0.00000000000E+00 -0.00000000000E+00 -0.45593999997E+02  0.45594000000E+02  0.51100000000E-03 0. -1.
    9900012    2    1    2    0    0 -0.72625011852E+01 -0.24152439624E+00 -0.31047034418E+02  0.59301943429E+02  0.49999998908E+02 0.  0.
        -12    1    1    2    0    0  0.72625011852E+01  0.24152439624E+00  0.31047034418E+02  0.31886056571E+02  0.00000000000E+00 0.  1.
         11    1    3    3    0    0  0.12849532568E+02  0.66554560353E+01 -0.10604238057E+02  0.17940330189E+02  0.51100000000E-03 0.  1.
        -11    1    3    3    0    0 -0.25627266968E+02 -0.96097935172E+01 -0.97997194379E+01  0.29071282136E+02  0.51100000000E-03 0. -1.
        -12    1    3    3    0    0  0.55152332148E+01  0.27128130856E+01 -0.10643076923E+02  0.12290331104E+02  0.00000000000E+00 0.  1.
</event>
<event>
 7    1  0.5987893E-013  0.5930194E+02  0.7816164E-02  0.1266605E+00
        -11   -1    0    0    0    0  0.00000000000E+00  0.00000000000E+00  0.45593999997E+02  0.45594000000E+02  0.51100000000E-03 0.  1.
         11   -1    0    0    0    0 -0.00000000000E+00 -0.00000000000E+00 -0.45593999997E+02  0.45594000000E+02  0.51100000000E-03 0. -1.
    9900012    2    1    2    0    0 -0.25168277233E+02  0.12437955516E+02 -0.15118732514E+02  0.59301937385E+02  0.49999987885E+02 0.  0.
        -12    1    1    2    0    0  0.25168277233E+02 -0.12437955516E+02  0.15118732514E+02  0.31886062615E+02  0.00000000000E+00 0.  1.
         11    1    3    3    0    0 -0.77881854770E+01 -0.93615007880E+01 -0.18499779300E+02  0.22148032970E+02  0.51100000000E-03 0. -1.
        -11    1    3    3    0    0 -0.23198476951E+02  0.16632752141E+02 -0.29831914255E+00  0.28546571969E+02  0.51100000000E-03 0.  1.
         12    1    3    3    0    0  0.58183851953E+01  0.51667041628E+01  0.36793659290E+01  0.86073324454E+01  0.00000000000E+00 0. -1.
</event>
<event>
 7    1  0.5987893E-013  0.5930194E+02  0.7816164E-02  0.1266605E+00
        -11   -1    0    0    0    0  0.00000000000E+00  0.00000000000E+00  0.45593999997E+02  0.45594000000E+02  0.51100000000E-03 0.  1.
         11   -1    0    0    0    0 -0.00000000000E+00 -0.00000000000E+00 -0.45593999997E+02  0.45594000000E+02  0.51100000000E-03 0. -1.
    9900012    2    1    2    0    0  0.10299858038E+02 -0.28267856026E+02 -0.10562305578E+02  0.59301936288E+02  0.49999985885E+02 0.  0.
        -12    1    1    2    0    0 -0.10299858038E+02  0.28267856026E+02  0.10562305578E+02  0.31886063712E+02  0.00000000000E+00 0.  1.
         11    1    3    3    0    0 -0.17138009950E+02 -0.63532882187E+01 -0.42857141086E+01  0.18773465368E+02  0.51100000000E-03 0. -1.
        -11    1    3    3    0    0  0.12786570097E+02 -0.11490874324E+02  0.65976893239E+01  0.18413746828E+02  0.51100000000E-03 0.  1.
         12    1    3    3    0    0  0.14651297891E+02 -0.10423693483E+02 -0.12874280793E+02  0.22114724092E+02  0.00000000000E+00 0. -1.
</event>
<event>
 7    1  0.5987893E-013  0.5930193E+02  0.7816164E-02  0.1266605E+00
        -11   -1    0    0    0    0  0.00000000000E+00  0.00000000000E+00  0.45593999997E+02  0.45594000000E+02  0.51100000000E-03 0.  1.
         11   -1    0    0    0    0 -0.00000000000E+00 -0.00000000000E+00 -0.45593999997E+02  0.45594000000E+02  0.51100000000E-03 0. -1.
    9900012    2    1    2    0    0 -0.10031848936E+02 -0.16104051641E+01 -0.30223997987E+02  0.59301930124E+02  0.49999974642E+02 0.  0.
        -12    1    1    2    0    0  0.10031848936E+02  0.16104051641E+01  0.30223997987E+02  0.31886069876E+02  0.00000000000E+00 0.  1.
         11    1    3    3    0    0 -0.38212271017E+01  0.54354902926E+01 -0.28529533191E+02  0.29293012745E+02  0.51100000000E-03 0. -1.
        -11    1    3    3    0    0 -0.11172895666E+02  0.58544747592E+01  0.62385901225E+01  0.14072259209E+02  0.51100000000E-03 0.  1.
         12    1    3    3    0    0  0.49622738319E+01 -0.12900370216E+02 -0.79330549178E+01  0.15936658170E+02  0.00000000000E+00 0. -1.
</event>
<event>
 7    1  0.5987893E-013  0.5930204E+02  0.7816164E-02  0.1266604E+00
        -11   -1    0    0    0    0  0.00000000000E+00  0.00000000000E+00  0.45593999997E+02  0.45594000000E+02  0.51100000000E-03 0.  1.
         11   -1    0    0    0    0 -0.00000000000E+00 -0.00000000000E+00 -0.45593999997E+02  0.45594000000E+02  0.51100000000E-03 0. -1.
    9900012    2    1    2    0    0 -0.14426272876E+02 -0.22180187830E+02 -0.17794272650E+02  0.59302043524E+02  0.50000181457E+02 0.  0.
        -12    1    1    2    0    0  0.14426272876E+02  0.22180187830E+02  0.17794272650E+02  0.31885956476E+02  0.00000000000E+00 0.  1.
         11    1    3    3    0    0 -0.16865115462E+02 -0.12332535206E+02 -0.93368761083E+01  0.22884510042E+02  0.51100000000E-03 0. -1.
        -11    1    3    3    0    0  0.36619609683E+01  0.12267522825E+02 -0.27465601292E+00  0.12805370381E+02  0.51100000000E-03 0.  1.
        -12    1    3    3    0    0 -0.12231183821E+01 -0.22115175450E+02 -0.81827405285E+01  0.23612163101E+02  0.00000000000E+00 0.  1.
</event>
<event>
 7    1  0.5987893E-013  0.5930196E+02  0.7816164E-02  0.1266605E+00
        -11   -1    0    0    0    0  0.00000000000E+00  0.00000000000E+00  0.45593999997E+02  0.45594000000E+02  0.51100000000E-03 0.  1.
         11   -1    0    0    0    0 -0.00000000000E+00 -0.00000000000E+00 -0.45593999997E+02  0.45594000000E+02  0.51100000000E-03 0. -1.
    9900012    2    1    2    0    0  0.15721925950E+02  0.21764918374E+02 -0.17199682363E+02  0.59301957587E+02  0.50000024728E+02 0.  0.
        -12    1    1    2    0    0 -0.15721925950E+02 -0.21764918374E+02  0.17199682363E+02  0.31886042413E+02  0.00000000000E+00 0.  1.
         11    1    3    3    0    0  0.11854849318E+02  0.20389329516E+02 -0.15180888021E+02  0.28048557394E+02  0.51100000000E-03 0. -1.
        -11    1    3    3    0    0 -0.16838594102E+01 -0.14233152011E+02  0.11803448384E+01  0.14380932267E+02  0.51100000000E-03 0.  1.
        -12    1    3    3    0    0  0.55509360423E+01  0.15608740868E+02 -0.31991391799E+01  0.16872467926E+02  0.00000000000E+00 0.  1.
</event>
<event>
 7    1  0.5987893E-013  0.5930195E+02  0.7816164E-02  0.1266605E+00
        -11   -1    0    0    0    0  0.00000000000E+00  0.00000000000E+00  0.45593999997E+02  0.45594000000E+02  0.51100000000E-03 0.  1.
         11   -1    0    0    0    0 -0.00000000000E+00 -0.00000000000E+00 -0.45593999997E+02  0.45594000000E+02  0.51100000000E-03 0. -1.
    9900012    2    1    2    0    0  0.14686366635E+02 -0.25821425862E+02 -0.11588118987E+02  0.59301954461E+02  0.50000019027E+02 0.  0.
        -12    1    1    2    0    0 -0.14686366635E+02  0.25821425862E+02  0.11588118987E+02  0.31886045539E+02  0.00000000000E+00 0.  1.
         11    1    3    3    0    0 -0.91753291915E+01 -0.97653063506E+01  0.44319903383E+01  0.14113483359E+02  0.51100000000E-03 0.  1.
        -11    1    3    3    0    0  0.29754054284E+02 -0.18835766586E+02 -0.10781224442E+02  0.36828313156E+02  0.51100000000E-03 0. -1.
         12    1    3    3    0    0 -0.58923584580E+01  0.27796470743E+01 -0.52388848836E+01  0.83601579458E+01  0.00000000000E+00 0. -1.
</event>
<event>
 7    1  0.8371954E-013  0.5930194E+02  0.7816164E-02  0.1266605E+00
        -11   -1    0    0    0    0  0.00000000000E+00  0.00000000000E+00  0.45593999997E+02  0.45594000000E+02  0.51100000000E-03 0. -1.
         11   -1    0    0    0    0 -0.00000000000E+00 -0.00000000000E+00 -0.45593999997E+02  0.45594000000E+02  0.51100000000E-03 0.  1.
    9900012    2    1    2    0    0 -0.13321114668E+02  0.18918385997E+02  0.21940000890E+02  0.59301936214E+02  0.49999985749E+02 0.  0.
        -12    1    1    2    0    0  0.13321114668E+02 -0.18918385997E+02 -0.21940000890E+02  0.31886063786E+02  0.00000000000E+00 0.  1.
         11    1    3    3    0    0 -0.30932015213E+01 -0.80470297027E+01  0.20974269713E+02  0.22676917183E+02  0.51100000000E-03 0. -1.
        -11    1    3    3    0    0  0.63527700511E+01  0.88111189681E+01 -0.39379223629E+01  0.11554251927E+02  0.51100000000E-03 0.  1.
         12    1    3    3    0    0 -0.16580683198E+02  0.18154296732E+02  0.49036535399E+01  0.25070767104E+02  0.00000000000E+00 0. -1.
</event>
<event>
 7    1  0.5987893E-013  0.5930195E+02  0.7816164E-02  0.1266605E+00
        -11   -1    0    0    0    0  0.00000000000E+00  0.00000000000E+00  0.45593999997E+02  0.45594000000E+02  0.51100000000E-03 0.  1.
         11   -1    0    0    0    0 -0.00000000000E+00 -0.00000000000E+00 -0.45593999997E+02  0.45594000000E+02  0.51100000000E-03 0. -1.
    9900012    2    1    2    0    0  0.17836164903E+02  0.22746006112E+01 -0.26332818071E+02  0.59301954558E+02  0.50000019205E+02 0.  0.
        -12    1    1    2    0    0 -0.17836164903E+02 -0.22746006112E+01  0.26332818071E+02  0.31886045442E+02  0.00000000000E+00 0.  1.
         11    1    3    3    0    0  0.18945944559E+02  0.73333078554E+00 -0.29505449030E+02  0.35072184306E+02  0.51100000000E-03 0. -1.
        -11    1    3    3    0    0  0.67740842629E+01 -0.64087063401E+01  0.77584878549E+01  0.12130699428E+02  0.51100000000E-03 0.  1.
        -12    1    3    3    0    0 -0.78838639193E+01  0.79499761658E+01 -0.45858568953E+01  0.12099070824E+02  0.00000000000E+00 0.  1.
</event>
<event>
 7    1  0.5987893E-013  0.5930198E+02  0.7816164E-02  0.1266605E+00
        -11   -1    0    0    0    0  0.00000000000E+00  0.00000000000E+00  0.45593999997E+02  0.45594000000E+02  0.51100000000E-03 0.  1.
         11   -1    0    0    0    0 -0.00000000000E+00 -0.00000000000E+00 -0.45593999997E+02  0.45594000000E+02  0.51100000000E-03 0. -1.
    9900012    2    1    2    0    0  0.10415768483E+02  0.29709460038E+02  0.50574881914E+01  0.59301977425E+02  0.50000060908E+02 0.  0.
        -12    1    1    2    0    0 -0.10415768483E+02 -0.29709460038E+02 -0.50574881914E+01  0.31886022575E+02  0.00000000000E+00 0.  1.
         11    1    3    3    0    0  0.10324079005E+02  0.12399669807E+02 -0.41212606245E+01  0.16653023990E+02  0.51100000000E-03 0. -1.
        -11    1    3    3    0    0 -0.11060378864E+02 -0.57249988825E+01 -0.49660353239E+01  0.13407799966E+02  0.51100000000E-03 0.  1.
        -12    1    3    3    0    0  0.11152068342E+02  0.23034789114E+02  0.14144784140E+02  0.29241153469E+02  0.00000000000E+00 0.  1.
</event>
<event>
 7    1  0.5987893E-013  0.5930209E+02  0.7816164E-02  0.1266604E+00
        -11   -1    0    0    0    0  0.00000000000E+00  0.00000000000E+00  0.45593999997E+02  0.45594000000E+02  0.51100000000E-03 0.  1.
         11   -1    0    0    0    0 -0.00000000000E+00 -0.00000000000E+00 -0.45593999997E+02  0.45594000000E+02  0.51100000000E-03 0. -1.
    9900012    2    1    2    0    0 -0.89138016546E+01  0.22579890814E+02 -0.20673748701E+02  0.59302090659E+02  0.50000267420E+02 0.  0.
        -12    1    1    2    0    0  0.89138016546E+01 -0.22579890814E+02  0.20673748701E+02  0.31885909341E+02  0.00000000000E+00 0.  1.
         11    1    3    3    0    0 -0.27095453949E+01  0.47629013539E+01 -0.28882089138E+02  0.29397311761E+02  0.51100000000E-03 0. -1.
        -11    1    3    3    0    0 -0.40497115121E+00  0.19006595575E+02 -0.91060207425E+00  0.19032705362E+02  0.51100000000E-03 0.  1.
         12    1    3    3    0    0 -0.57992851085E+01 -0.11896061149E+01  0.91189425105E+01  0.10872073537E+02  0.00000000000E+00 0. -1.
</event>
<event>
 7    1  0.5987893E-013  0.5930195E+02  0.7816164E-02  0.1266605E+00
        -11   -1    0    0    0    0  0.00000000000E+00  0.00000000000E+00  0.45593999997E+02  0.45594000000E+02  0.51100000000E-03 0.  1.
         11   -1    0    0    0    0 -0.00000000000E+00 -0.00000000000E+00 -0.45593999997E+02  0.45594000000E+02  0.51100000000E-03 0. -1.
    9900012    2    1    2    0    0 -0.10978368947E+02  0.29874448866E+02 -0.19269331742E+01  0.59301947387E+02  0.50000006127E+02 0.  0.
        -12    1    1    2    0    0  0.10978368947E+02 -0.29874448866E+02  0.19269331742E+01  0.31886052613E+02  0.00000000000E+00 0.  1.
         11    1    3    3    0    0  0.55511808314E+01  0.25125355595E+02  0.11530892415E+02  0.28196818660E+02  0.51100000000E-03 0. -1.
        -11    1    3    3    0    0 -0.13831167257E+01 -0.54990871647E+01 -0.11361217086E+02  0.12697646453E+02  0.51100000000E-03 0.  1.
        -12    1    3    3    0    0 -0.15146433053E+02  0.10248180436E+02 -0.20966085036E+01  0.18407482274E+02  0.00000000000E+00 0.  1.
</event>
<event>
 7    1  0.5987893E-013  0.5930195E+02  0.7816164E-02  0.1266605E+00
        -11   -1    0    0    0    0  0.00000000000E+00  0.00000000000E+00  0.45593999997E+02  0.45594000000E+02  0.51100000000E-03 0. -1.
         11   -1    0    0    0    0 -0.00000000000E+00 -0.00000000000E+00 -0.45593999997E+02  0.45594000000E+02  0.51100000000E-03 0.  1.
    9900012    2    1    2    0    0 -0.16549019536E+02 -0.79171191629E+01  0.26080058402E+02  0.59301948666E+02  0.50000008459E+02 0.  0.
        -12    1    1    2    0    0  0.16549019536E+02  0.79171191629E+01 -0.26080058402E+02  0.31886051334E+02  0.00000000000E+00 0.  1.
         11    1    3    3    0    0  0.45784874579E+01 -0.24588726242E+01  0.34470717873E+02  0.34860278153E+02  0.51100000000E-03 0. -1.
        -11    1    3    3    0    0 -0.62090756772E+01  0.16198647444E+01 -0.28848175637E+01  0.70355351745E+01  0.51100000000E-03 0.  1.
         12    1    3    3    0    0 -0.14918431317E+02 -0.70781112831E+01 -0.55058419076E+01  0.17406135338E+02  0.00000000000E+00 0. -1.
</event>
<event>
 7    1  0.5987893E-013  0.5930193E+02  0.7816164E-02  0.1266605E+00
        -11   -1    0    0    0    0  0.00000000000E+00  0.00000000000E+00  0.45593999997E+02  0.45594000000E+02  0.51100000000E-03 0. -1.
         11   -1    0    0    0    0 -0.00000000000E+00 -0.00000000000E+00 -0.45593999997E+02  0.45594000000E+02  0.51100000000E-03 0.  1.
    9900012    2    1    2    0    0  0.26837321513E+02 -0.14479005048E+02  0.93186968023E+01  0.59301929009E+02  0.49999972610E+02 0.  0.
        -12    1    1    2    0    0 -0.26837321513E+02  0.14479005048E+02 -0.93186968023E+01  0.31886070991E+02  0.00000000000E+00 0.  1.
         11    1    3    3    0    0  0.17271889106E+02  0.14950810004E+02 -0.37813631394E+01  0.23154774465E+02  0.51100000000E-03 0. -1.
        -11    1    3    3    0    0 -0.21038269420E+01 -0.57366366757E+00  0.23765333753E+01  0.32253819852E+01  0.51100000000E-03 0.  1.
         12    1    3    3    0    0  0.11669259348E+02 -0.28856151384E+02  0.10723526566E+02  0.32921772559E+02  0.00000000000E+00 0. -1.
</event>
<event>
 7    1  0.5987893E-013  0.5930194E+02  0.7816164E-02  0.1266605E+00
        -11   -1    0    0    0    0  0.00000000000E+00  0.00000000000E+00  0.45593999997E+02  0.45594000000E+02  0.51100000000E-03 0. -1.
         11   -1    0    0    0    0 -0.00000000000E+00 -0.00000000000E+00 -0.45593999997E+02  0.45594000000E+02  0.51100000000E-03 0.  1.
    9900012    2    1    2    0    0 -0.50729086473E+01 -0.30678843779E+02 -0.70565570747E+01  0.59301939480E+02  0.49999991705E+02 0.  0.
        -12    1    1    2    0    0  0.50729086473E+01  0.30678843779E+02  0.70565570747E+01  0.31886060520E+02  0.00000000000E+00 0.  1.
         11    1    3    3    0    0 -0.11292638258E+01 -0.36105671970E+01  0.12475869683E+02  0.13036823113E+02  0.51100000000E-03 0. -1.
        -11    1    3    3    0    0  0.30630541020E+01 -0.13162047303E+02 -0.26079702400E+02  0.29372992139E+02  0.51100000000E-03 0.  1.
         12    1    3    3    0    0 -0.70066989235E+01 -0.13906229279E+02  0.65472756424E+01  0.16892124227E+02  0.00000000000E+00 0. -1.
</event>
<event>
 7    1  0.5987893E-013  0.5930191E+02  0.7816164E-02  0.1266605E+00
        -11   -1    0    0    0    0  0.00000000000E+00  0.00000000000E+00  0.45593999997E+02  0.45594000000E+02  0.51100000000E-03 0.  1.
         11   -1    0    0    0    0 -0.00000000000E+00 -0.00000000000E+00 -0.45593999997E+02  0.45594000000E+02  0.51100000000E-03 0. -1.
    9900012    2    1    2    0    0  0.13307940189E+02  0.17145403609E+02 -0.23359294997E+02  0.59301908993E+02  0.49999936104E+02 0.  0.
        -12    1    1    2    0    0 -0.13307940189E+02 -0.17145403609E+02  0.23359294997E+02  0.31886091007E+02  0.00000000000E+00 0.  1.
         11    1    3    3    0    0  0.11595724113E+01 -0.39192580905E+01 -0.21433756370E+02  0.21819970315E+02  0.51100000000E-03 0. -1.
        -11    1    3    3    0    0  0.19848910052E+02  0.10367539772E+02 -0.68403868184E+01  0.23414867142E+02  0.51100000000E-03 0.  1.
         12    1    3    3    0    0 -0.77005422748E+01  0.10697121927E+02  0.49148481913E+01  0.14067071536E+02  0.00000000000E+00 0. -1.
</event>
<event>
 7    1  0.5987893E-013  0.5930195E+02  0.7816164E-02  0.1266605E+00
        -11   -1    0    0    0    0  0.00000000000E+00  0.00000000000E+00  0.45593999997E+02  0.45594000000E+02  0.51100000000E-03 0.  1.
         11   -1    0    0    0    0 -0.00000000000E+00 -0.00000000000E+00 -0.45593999997E+02  0.45594000000E+02  0.51100000000E-03 0. -1.
    9900012    2    1    2    0    0  0.27692926228E+02  0.14536400445E+02  0.62060625308E+01  0.59301947985E+02  0.50000007217E+02 0.  0.
        -12    1    1    2    0    0 -0.27692926228E+02 -0.14536400445E+02 -0.62060625308E+01  0.31886052015E+02  0.00000000000E+00 0.  1.
         11    1    3    3    0    0  0.13088461061E+02 -0.12893710307E+02 -0.70212149456E+01  0.19668579969E+02  0.51100000000E-03 0. -1.
        -11    1    3    3    0    0  0.19190453253E+02  0.19829317649E+02  0.61291374148E+01  0.28267324956E+02  0.51100000000E-03 0.  1.
        -12    1    3    3    0    0 -0.45859880852E+01  0.76007931030E+01  0.70981400615E+01  0.11366043060E+02  0.00000000000E+00 0.  1.
</event>
<event>
 7    1  0.5987893E-013  0.5930194E+02  0.7816164E-02  0.1266605E+00
        -11   -1    0    0    0    0  0.00000000000E+00  0.00000000000E+00  0.45593999997E+02  0.45594000000E+02  0.51100000000E-03 0. -1.
         11   -1    0    0    0    0 -0.00000000000E+00 -0.00000000000E+00 -0.45593999997E+02  0.45594000000E+02  0.51100000000E-03 0.  1.
    9900012    2    1    2    0    0 -0.26163056358E+01 -0.31387741288E+02  0.49684279252E+01  0.59301942947E+02  0.49999998029E+02 0.  0.
        -12    1    1    2    0    0  0.26163056358E+01  0.31387741288E+02 -0.49684279252E+01  0.31886057053E+02  0.00000000000E+00 0.  1.
         11    1    3    3    0    0 -0.43037480056E+01  0.13218454220E+01  0.31473380242E+01  0.54932011719E+01  0.51100000000E-03 0. -1.
        -11    1    3    3    0    0  0.92026552959E+01 -0.41190975607E+02  0.35078140503E+01  0.42351978650E+02  0.51100000000E-03 0.  1.
        -12    1    3    3    0    0 -0.75152129262E+01  0.84813888964E+01 -0.16867241493E+01  0.11456763125E+02  0.00000000000E+00 0.  1.
</event>
<event>
 7    1  0.5987893E-013  0.5930195E+02  0.7816164E-02  0.1266605E+00
        -11   -1    0    0    0    0  0.00000000000E+00  0.00000000000E+00  0.45593999997E+02  0.45594000000E+02  0.51100000000E-03 0.  1.
         11   -1    0    0    0    0 -0.00000000000E+00 -0.00000000000E+00 -0.45593999997E+02  0.45594000000E+02  0.51100000000E-03 0. -1.
    9900012    2    1    2    0    0  0.16197623616E+02  0.90437463332E+01 -0.25933918055E+02  0.59301945616E+02  0.50000002896E+02 0.  0.
        -12    1    1    2    0    0 -0.16197623616E+02 -0.90437463332E+01  0.25933918055E+02  0.31886054384E+02  0.00000000000E+00 0.  1.
         11    1    3    3    0    0 -0.11346924983E+02  0.18466318131E+02 -0.15768710216E+02  0.26803168358E+02  0.51100000000E-03 0. -1.
        -11    1    3    3    0    0  0.19982610582E+01 -0.34815811474E+01  0.76125815504E+00  0.40858253490E+01  0.51100000000E-03 0.  1.
         12    1    3    3    0    0  0.25546287541E+02 -0.59409906506E+01 -0.10926465994E+02  0.28412951908E+02  0.00000000000E+00 0. -1.
</event>
<event>
 7    1  0.5987893E-013  0.5930194E+02  0.7816164E-02  0.1266605E+00
        -11   -1    0    0    0    0  0.00000000000E+00  0.00000000000E+00  0.45593999997E+02  0.45594000000E+02  0.51100000000E-03 0.  1.
         11   -1    0    0    0    0 -0.00000000000E+00 -0.00000000000E+00 -0.45593999997E+02  0.45594000000E+02  0.51100000000E-03 0. -1.
    9900012    2    1    2    0    0  0.52567492216E+01  0.30670449445E+02 -0.69577866855E+01  0.59301942277E+02  0.49999996808E+02 0.  0.
        -12    1    1    2    0    0 -0.52567492216E+01 -0.30670449445E+02  0.69577866855E+01  0.31886057723E+02  0.00000000000E+00 0.  1.
         11    1    3    3    0    0  0.17254429748E+01 -0.53938003445E+01 -0.10338023761E+02  0.11787492148E+02  0.51100000000E-03 0. -1.
        -11    1    3    3    0    0  0.12406630376E+02  0.17959988904E+02  0.12751682145E+02  0.25280250721E+02  0.51100000000E-03 0.  1.
        -12    1    3    3    0    0 -0.88753241288E+01  0.18104260886E+02 -0.93714450704E+01  0.22234199408E+02  0.00000000000E+00 0.  1.
</event>
<event>
 7    1  0.5987893E-013  0.5930190E+02  0.7816164E-02  0.1266605E+00
        -11   -1    0    0    0    0  0.00000000000E+00  0.00000000000E+00  0.45593999997E+02  0.45594000000E+02  0.51100000000E-03 0.  1.
         11   -1    0    0    0    0 -0.00000000000E+00 -0.00000000000E+00 -0.45593999997E+02  0.45594000000E+02  0.51100000000E-03 0. -1.
    9900012    2    1    2    0    0  0.11282264345E+02 -0.29796693446E+02  0.12613971705E+01  0.59301897198E+02  0.49999914594E+02 0.  0.
        -12    1    1    2    0    0 -0.11282264345E+02  0.29796693446E+02 -0.12613971705E+01  0.31886102802E+02  0.00000000000E+00 0.  1.
         11    1    3    3    0    0 -0.61877698045E+01  0.54148683984E+01 -0.29954493599E+01  0.87511149036E+01  0.51100000000E-03 0. -1.
        -11    1    3    3    0    0  0.66547891094E+01 -0.38219739015E+02  0.79357177990E+00  0.38802891966E+02  0.51100000000E-03 0.  1.
        -12    1    3    3    0    0  0.10815245040E+02  0.30081771709E+01  0.34632747505E+01  0.11747890329E+02  0.00000000000E+00 0.  1.
</event>
<event>
 7    1  0.5987893E-013  0.5930194E+02  0.7816164E-02  0.1266605E+00
        -11   -1    0    0    0    0  0.00000000000E+00  0.00000000000E+00  0.45593999997E+02  0.45594000000E+02  0.51100000000E-03 0.  1.
         11   -1    0    0    0    0 -0.00000000000E+00 -0.00000000000E+00 -0.45593999997E+02  0.45594000000E+02  0.51100000000E-03 0. -1.
    9900012    2    1    2    0    0 -0.68126117446E+01 -0.14437197240E+02 -0.27602105184E+02  0.59301944215E+02  0.50000000342E+02 0.  0.
        -12    1    1    2    0    0  0.68126117446E+01  0.14437197240E+02  0.27602105184E+02  0.31886055785E+02  0.00000000000E+00 0.  1.
         11    1    3    3    0    0 -0.98109862184E+01 -0.13278570012E+02  0.94209770046E+01  0.19008700117E+02  0.51100000000E-03 0.  1.
        -11    1    3    3    0    0 -0.54574492412E+01 -0.34162739689E+01 -0.21829316288E+02  0.22759036226E+02  0.51100000000E-03 0. -1.
        -12    1    3    3    0    0  0.84558237150E+01  0.22576467409E+01 -0.15193765900E+02  0.17534207873E+02  0.00000000000E+00 0.  1.
</event>
<event>
 7    1  0.5987893E-013  0.5930195E+02  0.7816164E-02  0.1266605E+00
        -11   -1    0    0    0    0  0.00000000000E+00  0.00000000000E+00  0.45593999997E+02  0.45594000000E+02  0.51100000000E-03 0. -1.
         11   -1    0    0    0    0 -0.00000000000E+00 -0.00000000000E+00 -0.45593999997E+02  0.45594000000E+02  0.51100000000E-03 0.  1.
    9900012    2    1    2    0    0  0.29623430883E+02 -0.11759340594E+02 -0.94362554975E+00  0.59301950109E+02  0.50000011090E+02 0.  0.
        -12    1    1    2    0    0 -0.29623430883E+02  0.11759340594E+02  0.94362554975E+00  0.31886049891E+02  0.00000000000E+00 0.  1.
         11    1    3    3    0    0  0.28017121004E+02 -0.81898912053E+01  0.13466919552E+02  0.32146404305E+02  0.51100000000E-03 0. -1.
        -11    1    3    3    0    0 -0.68638200672E+01  0.41468865739E+01 -0.13447638418E+02  0.15657192387E+02  0.51100000000E-03 0.  1.
        -12    1    3    3    0    0  0.84701299469E+01 -0.77163359625E+01 -0.96290668362E+00  0.11498353416E+02  0.00000000000E+00 0.  1.
</event>
<event>
 7    1  0.5987893E-013  0.5930193E+02  0.7816164E-02  0.1266605E+00
        -11   -1    0    0    0    0  0.00000000000E+00  0.00000000000E+00  0.45593999997E+02  0.45594000000E+02  0.51100000000E-03 0. -1.
         11   -1    0    0    0    0 -0.00000000000E+00 -0.00000000000E+00 -0.45593999997E+02  0.45594000000E+02  0.51100000000E-03 0.  1.
    9900012    2    1    2    0    0 -0.15403804749E+02  0.25001212860E+02 -0.12425112142E+02  0.59301933185E+02  0.49999980226E+02 0.  0.
        -12    1    1    2    0    0  0.15403804749E+02 -0.25001212860E+02  0.12425112142E+02  0.31886066815E+02  0.00000000000E+00 0.  1.
         11    1    3    3    0    0 -0.16598606877E+02  0.49906104472E+01 -0.25538827393E+02  0.30865055448E+02  0.51100000000E-03 0. -1.
        -11    1    3    3    0    0  0.72356555783E+01  0.53020772151E+01  0.24754804392E+01  0.93056293773E+01  0.51100000000E-03 0.  1.
         12    1    3    3    0    0 -0.60408534495E+01  0.14708525197E+02  0.10638234812E+02  0.19131248360E+02  0.00000000000E+00 0. -1.
</event>
<event>
 7    1  0.5987893E-013  0.5930194E+02  0.7816164E-02  0.1266605E+00
        -11   -1    0    0    0    0  0.00000000000E+00  0.00000000000E+00  0.45593999997E+02  0.45594000000E+02  0.51100000000E-03 0.  1.
         11   -1    0    0    0    0 -0.00000000000E+00 -0.00000000000E+00 -0.45593999997E+02  0.45594000000E+02  0.51100000000E-03 0. -1.
    9900012    2    1    2    0    0 -0.23329529274E+02 -0.22473229870E+01  0.21619515943E+02  0.59301939310E+02  0.49999991395E+02 0.  0.
        -12    1    1    2    0    0  0.23329529274E+02  0.22473229870E+01 -0.21619515943E+02  0.31886060690E+02  0.00000000000E+00 0.  1.
         11    1    3    3    0    0 -0.11076833050E+02 -0.91878079212E+01  0.16294675582E+02  0.21740020639E+02  0.51100000000E-03 0. -1.
        -11    1    3    3    0    0 -0.13069878115E+02  0.54222342805E+01 -0.12964694694E+02  0.19191290923E+02  0.51100000000E-03 0.  1.
        -12    1    3    3    0    0  0.81718189096E+00  0.15182506536E+01  0.18289535055E+02  0.18370627747E+02  0.00000000000E+00 0.  1.
</event>
<event>
 7    1  0.5987893E-013  0.5930196E+02  0.7816164E-02  0.1266605E+00
        -11   -1    0    0    0    0  0.00000000000E+00  0.00000000000E+00  0.45593999997E+02  0.45594000000E+02  0.51100000000E-03 0. -1.
         11   -1    0    0    0    0 -0.00000000000E+00 -0.00000000000E+00 -0.45593999997E+02  0.45594000000E+02  0.51100000000E-03 0.  1.
    9900012    2    1    2    0    0 -0.76625964957E+00  0.29772305722E+02  0.11390447045E+02  0.59301958764E+02  0.50000026875E+02 0.  0.
        -12    1    1    2    0    0  0.76625964957E+00 -0.29772305722E+02 -0.11390447045E+02  0.31886041236E+02  0.00000000000E+00 0.  1.
         11    1    3    3    0    0  0.69556419901E+01  0.14276823300E+02 -0.13396778677E+02  0.20776966050E+02  0.51100000000E-03 0. -1.
        -11    1    3    3    0    0 -0.56433880557E+01 -0.50846806324E+01  0.22237765188E+01  0.79149850377E+01  0.51100000000E-03 0.  1.
         12    1    3    3    0    0 -0.20785135840E+01  0.20580163054E+02  0.22563449203E+02  0.30610007677E+02  0.00000000000E+00 0. -1.
</event>
<event>
 7    1  0.5987893E-013  0.5930195E+02  0.7816164E-02  0.1266605E+00
        -11   -1    0    0    0    0  0.00000000000E+00  0.00000000000E+00  0.45593999997E+02  0.45594000000E+02  0.51100000000E-03 0. -1.
         11   -1    0    0    0    0 -0.00000000000E+00 -0.00000000000E+00 -0.45593999997E+02  0.45594000000E+02  0.51100000000E-03 0.  1.
    9900012    2    1    2    0    0 -0.35883909589E+01  0.72483458237E+01  0.30843232452E+02  0.59301952033E+02  0.50000014600E+02 0.  0.
        -12    1    1    2    0    0  0.35883909589E+01 -0.72483458237E+01 -0.30843232452E+02  0.31886047967E+02  0.00000000000E+00 0.  1.
         11    1    3    3    0    0  0.11058778331E+02 -0.13149340301E+02  0.23196198420E+02  0.28866335928E+02  0.51100000000E-03 0. -1.
        -11    1    3    3    0    0 -0.55066170928E+01  0.14412719662E+02 -0.23738295006E+01  0.15610393545E+02  0.51100000000E-03 0.  1.
         12    1    3    3    0    0 -0.91405521973E+01  0.59849664623E+01  0.10020863532E+02  0.14825222560E+02  0.00000000000E+00 0. -1.
</event>
<event>
 7    1  0.5987893E-013  0.5930194E+02  0.7816164E-02  0.1266605E+00
        -11   -1    0    0    0    0  0.00000000000E+00  0.00000000000E+00  0.45593999997E+02  0.45594000000E+02  0.51100000000E-03 0. -1.
         11   -1    0    0    0    0 -0.00000000000E+00 -0.00000000000E+00 -0.45593999997E+02  0.45594000000E+02  0.51100000000E-03 0.  1.
    9900012    2    1    2    0    0  0.20495297433E+02  0.11089587481E+02  0.21764300184E+02  0.59301938313E+02  0.49999989578E+02 0.  0.
        -12    1    1    2    0    0 -0.20495297433E+02 -0.11089587481E+02 -0.21764300184E+02  0.31886061687E+02  0.00000000000E+00 0.  1.
         11    1    3    3    0    0 -0.46694691764E+01  0.10137880406E+02  0.23713702697E+02  0.26209163615E+02  0.51100000000E-03 0. -1.
        -11    1    3    3    0    0  0.12795263105E+02  0.11168133853E+02 -0.13785884449E+01  0.17039556274E+02  0.51100000000E-03 0.  1.
         12    1    3    3    0    0  0.12369503505E+02 -0.10216426778E+02 -0.57081406757E+00  0.16053218424E+02  0.00000000000E+00 0. -1.
</event>
<event>
 7    1  0.5987893E-013  0.5930194E+02  0.7816164E-02  0.1266605E+00
        -11   -1    0    0    0    0  0.00000000000E+00  0.00000000000E+00  0.45593999997E+02  0.45594000000E+02  0.51100000000E-03 0.  1.
         11   -1    0    0    0    0 -0.00000000000E+00 -0.00000000000E+00 -0.45593999997E+02  0.45594000000E+02  0.51100000000E-03 0. -1.
    9900012    2    1    2    0    0  0.19479737093E+02 -0.39979743547E+01 -0.24925421060E+02  0.59301943938E+02  0.49999999836E+02 0.  0.
        -12    1    1    2    0    0 -0.19479737093E+02  0.39979743547E+01  0.24925421060E+02  0.31886056062E+02  0.00000000000E+00 0.  1.
         11    1    3    3    0    0  0.80993228108E+01  0.88801790342E+01 -0.26377317713E+02  0.28986539974E+02  0.51100000000E-03 0. -1.
        -11    1    3    3    0    0  0.11494139685E+02 -0.39099632807E+01  0.11586237207E+02  0.16782251125E+02  0.51100000000E-03 0.  1.
        -12    1    3    3    0    0 -0.11372540214E+00 -0.89681901083E+01 -0.10134340555E+02  0.13533152839E+02  0.00000000000E+00 0.  1.
</event>
<event>
 7    1  0.5987893E-013  0.5930194E+02  0.7816164E-02  0.1266605E+00
        -11   -1    0    0    0    0  0.00000000000E+00  0.00000000000E+00  0.45593999997E+02  0.45594000000E+02  0.51100000000E-03 0.  1.
         11   -1    0    0    0    0 -0.00000000000E+00 -0.00000000000E+00 -0.45593999997E+02  0.45594000000E+02  0.51100000000E-03 0. -1.
    9900012    2    1    2    0    0  0.23302982007E+02 -0.17303227815E+02  0.13201902542E+02  0.59301938877E+02  0.49999990606E+02 0.  0.
        -12    1    1    2    0    0 -0.23302982007E+02  0.17303227815E+02 -0.13201902542E+02  0.31886061123E+02  0.00000000000E+00 0.  1.
         11    1    3    3    0    0 -0.33234958268E+01 -0.11878642707E+02 -0.33829386202E+01  0.12790310827E+02  0.51100000000E-03 0. -1.
        -11    1    3    3    0    0  0.25290883421E+02  0.44370830449E+01 -0.16583116788E+01  0.25730652694E+02  0.51100000000E-03 0.  1.
        -12    1    3    3    0    0  0.13355944128E+01 -0.98616681529E+01  0.18243152841E+02  0.20780975356E+02  0.00000000000E+00 0.  1.
</event>
<event>
 7    1  0.5987893E-013  0.5930200E+02  0.7816164E-02  0.1266605E+00
        -11   -1    0    0    0    0  0.00000000000E+00  0.00000000000E+00  0.45593999997E+02  0.45594000000E+02  0.51100000000E-03 0.  1.
         11   -1    0    0    0    0 -0.00000000000E+00 -0.00000000000E+00 -0.45593999997E+02  0.45594000000E+02  0.51100000000E-03 0. -1.
    9900012    2    1    2    0    0  0.22896157219E+02  0.16669319228E+02  0.14649808652E+02  0.59301998174E+02  0.50000098749E+02 0.  0.
        -12    1    1    2    0    0 -0.22896157219E+02 -0.16669319228E+02 -0.14649808652E+02  0.31886001826E+02  0.00000000000E+00 0.  1.
         11    1    3    3    0    0  0.18518598347E+02 -0.46034871935E+01  0.98056718055E+01  0.21454178588E+02  0.51100000000E-03 0. -1.
        -11    1    3    3    0    0  0.70728983977E+01  0.11627670276E+02 -0.12070132103E+02  0.18191115882E+02  0.51100000000E-03 0.  1.
        -12    1    3    3    0    0 -0.26953395252E+01  0.96451361454E+01  0.16914268949E+02  0.19656703704E+02  0.00000000000E+00 0.  1.
</event>
<event>
 7    1  0.5987893E-013  0.5930193E+02  0.7816164E-02  0.1266605E+00
        -11   -1    0    0    0    0  0.00000000000E+00  0.00000000000E+00  0.45593999997E+02  0.45594000000E+02  0.51100000000E-03 0. -1.
         11   -1    0    0    0    0 -0.00000000000E+00 -0.00000000000E+00 -0.45593999997E+02  0.45594000000E+02  0.51100000000E-03 0.  1.
    9900012    2    1    2    0    0 -0.24252410372E+02  0.12953781727E+01  0.20660685346E+02  0.59301932001E+02  0.49999978067E+02 0.  0.
        -12    1    1    2    0    0  0.24252410372E+02 -0.12953781727E+01 -0.20660685346E+02  0.31886067999E+02  0.00000000000E+00 0.  1.
         11    1    3    3    0    0 -0.13936386029E+02  0.31419077738E+01  0.14475762044E+02  0.20338193799E+02  0.51100000000E-03 0. -1.
        -11    1    3    3    0    0 -0.13557293427E+01 -0.11337928425E+02 -0.12009523493E+02  0.16571520082E+02  0.51100000000E-03 0.  1.
        -12    1    3    3    0    0 -0.89602950005E+01  0.94913988242E+01  0.18194446795E+02  0.22392218120E+02  0.00000000000E+00 0.  1.
</event>
<event>
 7    1  0.5987893E-013  0.5930196E+02  0.7816164E-02  0.1266605E+00
        -11   -1    0    0    0    0  0.00000000000E+00  0.00000000000E+00  0.45593999997E+02  0.45594000000E+02  0.51100000000E-03 0. -1.
         11   -1    0    0    0    0 -0.00000000000E+00 -0.00000000000E+00 -0.45593999997E+02  0.45594000000E+02  0.51100000000E-03 0.  1.
    9900012    2    1    2    0    0 -0.11765609844E+02 -0.11379948014E+02  0.27363964969E+02  0.59301962764E+02  0.50000034171E+02 0.  0.
        -12    1    1    2    0    0  0.11765609844E+02  0.11379948014E+02 -0.27363964969E+02  0.31886037236E+02  0.00000000000E+00 0.  1.
         11    1    3    3    0    0  0.53968359651E+01 -0.24472357657E+02  0.10285901021E+02  0.27089147049E+02  0.51100000000E-03 0. -1.
        -11    1    3    3    0    0 -0.11538742092E+02  0.67662096608E+01  0.25311177183E+00  0.13378648215E+02  0.51100000000E-03 0.  1.
         12    1    3    3    0    0 -0.56237037172E+01  0.63261999823E+01  0.16824952176E+02  0.18834167500E+02  0.00000000000E+00 0. -1.
</event>
<event>
 7    1  0.5987893E-013  0.5930193E+02  0.7816164E-02  0.1266605E+00
        -11   -1    0    0    0    0  0.00000000000E+00  0.00000000000E+00  0.45593999997E+02  0.45594000000E+02  0.51100000000E-03 0.  1.
         11   -1    0    0    0    0 -0.00000000000E+00 -0.00000000000E+00 -0.45593999997E+02  0.45594000000E+02  0.51100000000E-03 0. -1.
    9900012    2    1    2    0    0  0.12540116908E+02 -0.26382743399E+02 -0.12783486177E+02  0.59301934075E+02  0.49999981849E+02 0.  0.
        -12    1    1    2    0    0 -0.12540116908E+02  0.26382743399E+02  0.12783486177E+02  0.31886065925E+02  0.00000000000E+00 0.  1.
         11    1    3    3    0    0 -0.11404461096E+02 -0.12848172701E+02 -0.80307464213E+01  0.18963917395E+02  0.51100000000E-03 0. -1.
        -11    1    3    3    0    0  0.26954491709E+02 -0.19551091376E+02 -0.33564722718E+01  0.33467233284E+02  0.51100000000E-03 0.  1.
        -12    1    3    3    0    0 -0.30099137059E+01  0.60165206778E+01 -0.13962674836E+01  0.68707833956E+01  0.00000000000E+00 0.  1.
</event>
<event>
 7    1  0.8753407E-013  0.5930195E+02  0.7816164E-02  0.1266605E+00
        -11   -1    0    0    0    0  0.00000000000E+00  0.00000000000E+00  0.45593999997E+02  0.45594000000E+02  0.51100000000E-03 0. -1.
         11   -1    0    0    0    0 -0.00000000000E+00 -0.00000000000E+00 -0.45593999997E+02  0.45594000000E+02  0.51100000000E-03 0.  1.
    9900012    2    1    2    0    0  0.22933594726E+01  0.14463566041E+02  0.28324297489E+02  0.59301951820E+02  0.50000014212E+02 0.  0.
        -12    1    1    2    0    0 -0.22933594726E+01 -0.14463566041E+02 -0.28324297489E+02  0.31886048180E+02  0.00000000000E+00 0.  1.
         11    1    3    3    0    0  0.41120134549E+01  0.22691008189E+02  0.14485900838E+02  0.27232918144E+02  0.51100000000E-03 0.  1.
        -11    1    3    3    0    0 -0.37385085261E+01 -0.64001799049E+01  0.22143593379E+02  0.23351177204E+02  0.51100000000E-03 0. -1.
        -12    1    3    3    0    0  0.19198545437E+01 -0.18272622439E+01 -0.83051967282E+01  0.87178564722E+01  0.00000000000E+00 0.  1.
</event>
<event>
 7    1  0.7897479E-013  0.5930195E+02  0.7816164E-02  0.1266605E+00
        -11   -1    0    0    0    0  0.00000000000E+00  0.00000000000E+00  0.45593999997E+02  0.45594000000E+02  0.51100000000E-03 0. -1.
         11   -1    0    0    0    0 -0.00000000000E+00 -0.00000000000E+00 -0.45593999997E+02  0.45594000000E+02  0.51100000000E-03 0.  1.
    9900012    2    1    2    0    0 -0.29862606424E+01  0.24417757735E+02  0.20287326431E+02  0.59301948831E+02  0.50000008761E+02 0.  0.
        -12    1    1    2    0    0  0.29862606424E+01 -0.24417757735E+02 -0.20287326431E+02  0.31886051169E+02  0.00000000000E+00 0.  1.
         11    1    3    3    0    0 -0.65001326643E+01  0.14507260062E+02  0.29280770425E+02  0.33317800589E+02  0.51100000000E-03 0. -1.
        -11    1    3    3    0    0 -0.75700818369E+01 -0.44662145613E+00 -0.76230940985E+01  0.10752542659E+02  0.51100000000E-03 0.  1.
        -12    1    3    3    0    0  0.11083953859E+02  0.10357119129E+02 -0.13703498954E+01  0.15231605583E+02  0.00000000000E+00 0.  1.
</event>
<event>
 7    1  0.5987893E-013  0.5930194E+02  0.7816164E-02  0.1266605E+00
        -11   -1    0    0    0    0  0.00000000000E+00  0.00000000000E+00  0.45593999997E+02  0.45594000000E+02  0.51100000000E-03 0.  1.
         11   -1    0    0    0    0 -0.00000000000E+00 -0.00000000000E+00 -0.45593999997E+02  0.45594000000E+02  0.51100000000E-03 0. -1.
    9900012    2    1    2    0    0  0.30026189413E+02 -0.29562256725E+01  0.10315509426E+02  0.59301936342E+02  0.49999985984E+02 0.  0.
        -12    1    1    2    0    0 -0.30026189413E+02  0.29562256725E+01 -0.10315509426E+02  0.31886063658E+02  0.00000000000E+00 0.  1.
         11    1    3    3    0    0 -0.11797142123E+02 -0.12027714418E+01 -0.71134937877E+01  0.13828268711E+02  0.51100000000E-03 0. -1.
        -11    1    3    3    0    0  0.98245350824E+01 -0.18737100537E+01  0.42314467998E+01  0.10859899688E+02  0.51100000000E-03 0.  1.
         12    1    3    3    0    0  0.31998796454E+02  0.12025582299E+00  0.13197556414E+02  0.34613767943E+02  0.00000000000E+00 0. -1.
</event>
<event>
 7    1  0.5987893E-013  0.5930197E+02  0.7816164E-02  0.1266605E+00
        -11   -1    0    0    0    0  0.00000000000E+00  0.00000000000E+00  0.45593999997E+02  0.45594000000E+02  0.51100000000E-03 0.  1.
         11   -1    0    0    0    0 -0.00000000000E+00 -0.00000000000E+00 -0.45593999997E+02  0.45594000000E+02  0.51100000000E-03 0. -1.
    9900012    2    1    2    0    0  0.93642765020E+00  0.12156373251E+02 -0.29462941211E+02  0.59301965249E+02  0.50000038702E+02 0.  0.
        -12    1    1    2    0    0 -0.93642765020E+00 -0.12156373251E+02  0.29462941211E+02  0.31886034751E+02  0.00000000000E+00 0.  1.
         11    1    3    3    0    0 -0.49017466201E+01 -0.47563279575E+01  0.93858455639E+01  0.11607922845E+02  0.51100000000E-03 0.  1.
        -11    1    3    3    0    0 -0.48624259969E+01  0.16106975985E+02 -0.25774014275E+02  0.30779500875E+02  0.51100000000E-03 0. -1.
        -12    1    3    3    0    0  0.10700600267E+02  0.80572522339E+00 -0.13074772500E+02  0.16914541529E+02  0.00000000000E+00 0.  1.
</event>
<event>
 7    1  0.5987893E-013  0.5930200E+02  0.7816164E-02  0.1266605E+00
        -11   -1    0    0    0    0  0.00000000000E+00  0.00000000000E+00  0.45593999997E+02  0.45594000000E+02  0.51100000000E-03 0. -1.
         11   -1    0    0    0    0 -0.00000000000E+00 -0.00000000000E+00 -0.45593999997E+02  0.45594000000E+02  0.51100000000E-03 0.  1.
    9900012    2    1    2    0    0  0.16700300245E+02 -0.79176993441E+01  0.25983208660E+02  0.59301998002E+02  0.50000098436E+02 0.  0.
        -12    1    1    2    0    0 -0.16700300245E+02  0.79176993441E+01 -0.25983208660E+02  0.31886001998E+02  0.00000000000E+00 0.  1.
         11    1    3    3    0    0  0.12880133943E+01  0.96132578027E+01  0.13001928309E+02  0.16221092568E+02  0.51100000000E-03 0. -1.
        -11    1    3    3    0    0 -0.26221808127E+01 -0.15735031500E+02 -0.58068829851E+01  0.16976069592E+02  0.51100000000E-03 0.  1.
        -12    1    3    3    0    0  0.18034467663E+02 -0.17959256471E+01  0.18788163336E+02  0.26104835843E+02  0.00000000000E+00 0.  1.
</event>
<event>
 7    1  0.5987893E-013  0.5930193E+02  0.7816164E-02  0.1266605E+00
        -11   -1    0    0    0    0  0.00000000000E+00  0.00000000000E+00  0.45593999997E+02  0.45594000000E+02  0.51100000000E-03 0.  1.
         11   -1    0    0    0    0 -0.00000000000E+00 -0.00000000000E+00 -0.45593999997E+02  0.45594000000E+02  0.51100000000E-03 0. -1.
    9900012    2    1    2    0    0  0.20854736715E+02  0.13286259225E+02 -0.20131488476E+02  0.59301928497E+02  0.49999971675E+02 0.  0.
        -12    1    1    2    0    0 -0.20854736715E+02 -0.13286259225E+02  0.20131488476E+02  0.31886071503E+02  0.00000000000E+00 0.  1.
         11    1    3    3    0    0 -0.11208728201E+01  0.20449633668E+02 -0.12860807873E+02  0.24183553346E+02  0.51100000000E-03 0. -1.
        -11    1    3    3    0    0  0.22494151056E+02 -0.56686234265E+01 -0.14739348531E+02  0.27483968394E+02  0.51100000000E-03 0.  1.
        -12    1    3    3    0    0 -0.51854152080E+00 -0.14947510160E+01  0.74686679284E+01  0.76344067571E+01  0.00000000000E+00 0.  1.
</event>
<event>
 7    1  0.5987893E-013  0.5930190E+02  0.7816164E-02  0.1266605E+00
        -11   -1    0    0    0    0  0.00000000000E+00  0.00000000000E+00  0.45593999997E+02  0.45594000000E+02  0.51100000000E-03 0.  1.
         11   -1    0    0    0    0 -0.00000000000E+00 -0.00000000000E+00 -0.45593999997E+02  0.45594000000E+02  0.51100000000E-03 0. -1.
    9900012    2    1    2    0    0  0.10479135046E+02  0.54699394122E+01 -0.29614031803E+02  0.59301899766E+02  0.49999919278E+02 0.  0.
        -12    1    1    2    0    0 -0.10479135046E+02 -0.54699394122E+01  0.29614031803E+02  0.31886100234E+02  0.00000000000E+00 0.  1.
         11    1    3    3    0    0  0.25527782739E+02  0.68305023566E+00 -0.20176808658E+02  0.32545934570E+02  0.51100000000E-03 0. -1.
        -11    1    3    3    0    0 -0.13976061918E+01  0.62633962440E+01  0.39855624170E+01  0.75543460086E+01  0.51100000000E-03 0.  1.
         12    1    3    3    0    0 -0.13651041501E+02 -0.14765070675E+01 -0.13422785562E+02  0.19201619187E+02  0.00000000000E+00 0. -1.
</event>
<event>
 7    1  0.5987893E-013  0.5930193E+02  0.7816164E-02  0.1266605E+00
        -11   -1    0    0    0    0  0.00000000000E+00  0.00000000000E+00  0.45593999997E+02  0.45594000000E+02  0.51100000000E-03 0.  1.
         11   -1    0    0    0    0 -0.00000000000E+00 -0.00000000000E+00 -0.45593999997E+02  0.45594000000E+02  0.51100000000E-03 0. -1.
    9900012    2    1    2    0    0  0.74605139057E+01  0.61339973880E+01 -0.30388098169E+02  0.59301926206E+02  0.49999967497E+02 0.  0.
        -12    1    1    2    0    0 -0.74605139057E+01 -0.61339973880E+01  0.30388098169E+02  0.31886073794E+02  0.00000000000E+00 0.  1.
         11    1    3    3    0    0 -0.38465002372E+01 -0.11855096291E+02  0.13604906497E+01  0.12537535931E+02  0.51100000000E-03 0. -1.
        -11    1    3    3    0    0  0.19785842011E+02  0.14769010907E+02 -0.19177645659E+02  0.31263162356E+02  0.51100000000E-03 0.  1.
        -12    1    3    3    0    0 -0.84788278676E+01  0.32200827724E+01 -0.12570943159E+02  0.15501227918E+02  0.00000000000E+00 0.  1.
</event>
<event>
 7    1  0.5987893E-013  0.5930197E+02  0.7816164E-02  0.1266605E+00
        -11   -1    0    0    0    0  0.00000000000E+00  0.00000000000E+00  0.45593999997E+02  0.45594000000E+02  0.51100000000E-03 0.  1.
         11   -1    0    0    0    0 -0.00000000000E+00 -0.00000000000E+00 -0.45593999997E+02  0.45594000000E+02  0.51100000000E-03 0. -1.
    9900012    2    1    2    0    0  0.23435805072E+02  0.11474285650E+02  0.18325466659E+02  0.59301969849E+02  0.50000047091E+02 0.  0.
        -12    1    1    2    0    0 -0.23435805072E+02 -0.11474285650E+02 -0.18325466659E+02  0.31886030151E+02  0.00000000000E+00 0.  1.
         11    1    3    3    0    0 -0.79319619416E+01  0.87004443559E+01 -0.46394063839E+01  0.12654558234E+02  0.51100000000E-03 0. -1.
        -11    1    3    3    0    0  0.19036100470E+01  0.32705879257E+01  0.15899851525E+02  0.16343982237E+02  0.51100000000E-03 0.  1.
         12    1    3    3    0    0  0.29464156967E+02 -0.49674663207E+00  0.70650215176E+01  0.30303429377E+02  0.00000000000E+00 0. -1.
</event>
<event>
 7    1  0.5987893E-013  0.5930193E+02  0.7816164E-02  0.1266605E+00
        -11   -1    0    0    0    0  0.00000000000E+00  0.00000000000E+00  0.45593999997E+02  0.45594000000E+02  0.51100000000E-03 0.  1.
         11   -1    0    0    0    0 -0.00000000000E+00 -0.00000000000E+00 -0.45593999997E+02  0.45594000000E+02  0.51100000000E-03 0. -1.
    9900012    2    1    2    0    0 -0.17568683655E+02  0.24907256334E+02 -0.93643601648E+01  0.59301932436E+02  0.49999978859E+02 0.  0.
        -12    1    1    2    0    0  0.17568683655E+02 -0.24907256334E+02  0.93643601648E+01  0.31886067564E+02  0.00000000000E+00 0.  1.
         11    1    3    3    0    0 -0.13512365466E+02 -0.60030226351E+00 -0.87338913661E+01  0.16100473345E+02  0.51100000000E-03 0. -1.
        -11    1    3    3    0    0  0.80973511328E+01  0.90725709031E+01  0.13638877960E+02  0.18272865961E+02  0.51100000000E-03 0.  1.
        -12    1    3    3    0    0 -0.12153669321E+02  0.16434987694E+02 -0.14269346759E+02  0.24928593129E+02  0.00000000000E+00 0.  1.
</event>
<event>
 7    1  0.5987893E-013  0.5930196E+02  0.7816164E-02  0.1266605E+00
        -11   -1    0    0    0    0  0.00000000000E+00  0.00000000000E+00  0.45593999997E+02  0.45594000000E+02  0.51100000000E-03 0.  1.
         11   -1    0    0    0    0 -0.00000000000E+00 -0.00000000000E+00 -0.45593999997E+02  0.45594000000E+02  0.51100000000E-03 0. -1.
    9900012    2    1    2    0    0  0.19734808692E+02  0.70488133588E+01 -0.24032712806E+02  0.59301957149E+02  0.50000023931E+02 0.  0.
        -12    1    1    2    0    0 -0.19734808692E+02 -0.70488133588E+01  0.24032712806E+02  0.31886042851E+02  0.00000000000E+00 0.  1.
         11    1    3    3    0    0  0.21812179725E+02  0.12044817068E+02 -0.20849176623E+02  0.32489028436E+02  0.51100000000E-03 0. -1.
        -11    1    3    3    0    0 -0.90515189736E+01  0.78538949064E+01 -0.19366509226E+01  0.12139368929E+02  0.51100000000E-03 0.  1.
        -12    1    3    3    0    0  0.69741479399E+01 -0.12849898615E+02 -0.12468852604E+01  0.14673559785E+02  0.00000000000E+00 0.  1.
</event>
<event>
 7    1  0.5987893E-013  0.5930186E+02  0.7816164E-02  0.1266605E+00
        -11   -1    0    0    0    0  0.00000000000E+00  0.00000000000E+00  0.45593999997E+02  0.45594000000E+02  0.51100000000E-03 0.  1.
         11   -1    0    0    0    0 -0.00000000000E+00 -0.00000000000E+00 -0.45593999997E+02  0.45594000000E+02  0.51100000000E-03 0. -1.
    9900012    2    1    2    0    0  0.82934268792E+01  0.32377456580E+01 -0.30618002578E+02  0.59301858681E+02  0.49999844348E+02 0.  0.
        -12    1    1    2    0    0 -0.82934268792E+01 -0.32377456580E+01  0.30618002578E+02  0.31886141319E+02  0.00000000000E+00 0.  1.
         11    1    3    3    0    0  0.25269001169E+02  0.56644668697E+01 -0.24346113202E+02  0.35543520271E+02  0.51100000000E-03 0. -1.
        -11    1    3    3    0    0 -0.17233441389E+02  0.12664205347E+01 -0.99004793271E+00  0.17308250005E+02  0.51100000000E-03 0.  1.
         12    1    3    3    0    0  0.25786709903E+00 -0.36931417464E+01 -0.52818414432E+01  0.64500884049E+01  0.00000000000E+00 0. -1.
</event>
<event>
 7    1  0.5987893E-013  0.5930195E+02  0.7816164E-02  0.1266605E+00
        -11   -1    0    0    0    0  0.00000000000E+00  0.00000000000E+00  0.45593999997E+02  0.45594000000E+02  0.51100000000E-03 0.  1.
         11   -1    0    0    0    0 -0.00000000000E+00 -0.00000000000E+00 -0.45593999997E+02  0.45594000000E+02  0.51100000000E-03 0. -1.
    9900012    2    1    2    0    0 -0.16156779771E+02  0.16406548186E+02 -0.22056831259E+02  0.59301950368E+02  0.50000011564E+02 0.  0.
        -12    1    1    2    0    0  0.16156779771E+02 -0.16406548186E+02  0.22056831259E+02  0.31886049632E+02  0.00000000000E+00 0.  1.
         11    1    3    3    0    0 -0.19135276301E+02  0.15149252621E+02 -0.13357895964E+02  0.27822509573E+02  0.51100000000E-03 0. -1.
        -11    1    3    3    0    0  0.11303359478E+02  0.11240155556E+01 -0.16525154210E+02  0.20052682324E+02  0.51100000000E-03 0.  1.
        -12    1    3    3    0    0 -0.83248629480E+01  0.13328000940E+00  0.78262189151E+01  0.11426758472E+02  0.00000000000E+00 0.  1.
</event>
<event>
 7    1  0.5987893E-013  0.5930196E+02  0.7816164E-02  0.1266605E+00
        -11   -1    0    0    0    0  0.00000000000E+00  0.00000000000E+00  0.45593999997E+02  0.45594000000E+02  0.51100000000E-03 0. -1.
         11   -1    0    0    0    0 -0.00000000000E+00 -0.00000000000E+00 -0.45593999997E+02  0.45594000000E+02  0.51100000000E-03 0.  1.
    9900012    2    1    2    0    0 -0.14506358080E+02 -0.27246916972E+02 -0.79931622666E+01  0.59301959916E+02  0.50000028977E+02 0.  0.
        -12    1    1    2    0    0  0.14506358080E+02  0.27246916972E+02  0.79931622666E+01  0.31886040084E+02  0.00000000000E+00 0.  1.
         11    1    3    3    0    0 -0.15510004504E+01 -0.19273346097E+02 -0.66316794550E+01  0.20441297532E+02  0.51100000000E-03 0. -1.
        -11    1    3    3    0    0 -0.23243692975E+02 -0.32412735174E+01  0.73284817928E+01  0.24586210826E+02  0.51100000000E-03 0.  1.
        -12    1    3    3    0    0  0.10288335345E+02 -0.47322973579E+01 -0.86899646044E+01  0.14274451558E+02  0.00000000000E+00 0.  1.
</event>
<event>
 7    1  0.5987893E-013  0.5930191E+02  0.7816164E-02  0.1266605E+00
        -11   -1    0    0    0    0  0.00000000000E+00  0.00000000000E+00  0.45593999997E+02  0.45594000000E+02  0.51100000000E-03 0.  1.
         11   -1    0    0    0    0 -0.00000000000E+00 -0.00000000000E+00 -0.45593999997E+02  0.45594000000E+02  0.51100000000E-03 0. -1.
    9900012    2    1    2    0    0  0.18870156558E+02 -0.24532716606E+02 -0.76671667922E+01  0.59301914645E+02  0.49999946413E+02 0.  0.
        -12    1    1    2    0    0 -0.18870156558E+02  0.24532716606E+02  0.76671667922E+01  0.31886085355E+02  0.00000000000E+00 0.  1.
         11    1    3    3    0    0  0.12798323557E+02 -0.63457724237E+01  0.67190494464E+01  0.15786435292E+02  0.51100000000E-03 0. -1.
        -11    1    3    3    0    0 -0.35900592496E+01 -0.79261728322E+01 -0.24610643220E+02  0.26103572574E+02  0.51100000000E-03 0.  1.
        -12    1    3    3    0    0  0.96618922511E+01 -0.10260771351E+02  0.10224426981E+02  0.17411906779E+02  0.00000000000E+00 0.  1.
</event>
<event>
 7    1  0.5987893E-013  0.5930193E+02  0.7816164E-02  0.1266605E+00
        -11   -1    0    0    0    0  0.00000000000E+00  0.00000000000E+00  0.45593999997E+02  0.45594000000E+02  0.51100000000E-03 0.  1.
         11   -1    0    0    0    0 -0.00000000000E+00 -0.00000000000E+00 -0.45593999997E+02  0.45594000000E+02  0.51100000000E-03 0. -1.
    9900012    2    1    2    0    0 -0.93802732225E+01  0.30443822712E+02 -0.13804043911E+01  0.59301931203E+02  0.49999976611E+02 0.  0.
        -12    1    1    2    0    0  0.93802732225E+01 -0.30443822712E+02  0.13804043911E+01  0.31886068797E+02  0.00000000000E+00 0.  1.
         11    1    3    3    0    0 -0.18224472253E+02 -0.61236120183E+01  0.34079231994E+00  0.19228784484E+02  0.51100000000E-03 0. -1.
        -11    1    3    3    0    0  0.10526537070E+02  0.14571587636E+02 -0.78242541344E+00  0.17993091416E+02  0.51100000000E-03 0.  1.
        -12    1    3    3    0    0 -0.16823380391E+01  0.21995847094E+02 -0.93877129762E+00  0.22080055304E+02  0.00000000000E+00 0.  1.
</event>
<event>
 7    1  0.5987893E-013  0.5930195E+02  0.7816164E-02  0.1266605E+00
        -11   -1    0    0    0    0  0.00000000000E+00  0.00000000000E+00  0.45593999997E+02  0.45594000000E+02  0.51100000000E-03 0.  1.
         11   -1    0    0    0    0 -0.00000000000E+00 -0.00000000000E+00 -0.45593999997E+02  0.45594000000E+02  0.51100000000E-03 0. -1.
    9900012    2    1    2    0    0  0.22832920490E+02  0.64373107342E+01 -0.21305848789E+02  0.59301946306E+02  0.50000004155E+02 0.  0.
        -12    1    1    2    0    0 -0.22832920490E+02 -0.64373107342E+01  0.21305848789E+02  0.31886053694E+02  0.00000000000E+00 0.  1.
         11    1    3    3    0    0  0.16144156049E+02  0.74832294370E+01 -0.78484758978E+00  0.17811470555E+02  0.51100000000E-03 0. -1.
        -11    1    3    3    0    0 -0.12372285473E+02  0.47604508885E-01 -0.18548796324E+02  0.22296492086E+02  0.51100000000E-03 0.  1.
        -12    1    3    3    0    0  0.19061049914E+02 -0.10935232117E+01 -0.19722048753E+01  0.19193983665E+02  0.00000000000E+00 0.  1.
</event>
<event>
 7    1  0.5987893E-013  0.5930195E+02  0.7816164E-02  0.1266605E+00
        -11   -1    0    0    0    0  0.00000000000E+00  0.00000000000E+00  0.45593999997E+02  0.45594000000E+02  0.51100000000E-03 0. -1.
         11   -1    0    0    0    0 -0.00000000000E+00 -0.00000000000E+00 -0.45593999997E+02  0.45594000000E+02  0.51100000000E-03 0.  1.
    9900012    2    1    2    0    0 -0.25056242355E+02 -0.12573649726E+02  0.15192380448E+02  0.59301947060E+02  0.50000005531E+02 0.  0.
        -12    1    1    2    0    0  0.25056242355E+02  0.12573649726E+02 -0.15192380448E+02  0.31886052940E+02  0.00000000000E+00 0.  1.
         11    1    3    3    0    0  0.30582132613E+01  0.40413428921E+01  0.58101008247E+01  0.77098892714E+01  0.51100000000E-03 0. -1.
        -11    1    3    3    0    0 -0.31570191735E+02  0.20154303807E+01  0.77743079188E+01  0.32575739895E+02  0.51100000000E-03 0.  1.
        -12    1    3    3    0    0  0.34557361189E+01 -0.18630422999E+02  0.16079717044E+01  0.19016317894E+02  0.00000000000E+00 0.  1.
</event>
<event>
 7    1  0.5987893E-013  0.5930195E+02  0.7816164E-02  0.1266605E+00
        -11   -1    0    0    0    0  0.00000000000E+00  0.00000000000E+00  0.45593999997E+02  0.45594000000E+02  0.51100000000E-03 0.  1.
         11   -1    0    0    0    0 -0.00000000000E+00 -0.00000000000E+00 -0.45593999997E+02  0.45594000000E+02  0.51100000000E-03 0. -1.
    9900012    2    1    2    0    0  0.22094275418E+02 -0.14122307111E+02 -0.18141764281E+02  0.59301950141E+02  0.50000011150E+02 0.  0.
        -12    1    1    2    0    0 -0.22094275418E+02  0.14122307111E+02  0.18141764281E+02  0.31886049859E+02  0.00000000000E+00 0.  1.
         11    1    3    3    0    0 -0.63009838006E+01 -0.13721695157E+02  0.27397324330E+01  0.15345795806E+02  0.51100000000E-03 0. -1.
        -11    1    3    3    0    0  0.32152910142E+02  0.29134872712E+01 -0.13407046700E+02  0.34957787976E+02  0.51100000000E-03 0.  1.
        -12    1    3    3    0    0 -0.37576509240E+01 -0.33140992246E+01 -0.74744500134E+01  0.89983663595E+01  0.00000000000E+00 0.  1.
</event>
<event>
 7    1  0.5987893E-013  0.5930183E+02  0.7816164E-02  0.1266605E+00
        -11   -1    0    0    0    0  0.00000000000E+00  0.00000000000E+00  0.45593999997E+02  0.45594000000E+02  0.51100000000E-03 0. -1.
         11   -1    0    0    0    0 -0.00000000000E+00 -0.00000000000E+00 -0.45593999997E+02  0.45594000000E+02  0.51100000000E-03 0.  1.
    9900012    2    1    2    0    0  0.16374353499E+02 -0.84549606827E+01  0.26021568052E+02  0.59301830325E+02  0.49999792633E+02 0.  0.
        -12    1    1    2    0    0 -0.16374353499E+02  0.84549606827E+01 -0.26021568052E+02  0.31886169675E+02  0.00000000000E+00 0.  1.
         11    1    3    3    0    0 -0.10520653448E+02  0.58071915329E+01  0.10774809378E+02  0.16140140640E+02  0.51100000000E-03 0. -1.
        -11    1    3    3    0    0 -0.16308678222E+01 -0.11119696267E+02  0.14919765642E+01  0.11337255808E+02  0.51100000000E-03 0.  1.
         12    1    3    3    0    0  0.28525874769E+02 -0.31424559488E+01  0.13754782110E+02  0.31824433877E+02  0.00000000000E+00 0. -1.
</event>
<event>
 7    1  0.5987893E-013  0.5930194E+02  0.7816164E-02  0.1266605E+00
        -11   -1    0    0    0    0  0.00000000000E+00  0.00000000000E+00  0.45593999997E+02  0.45594000000E+02  0.51100000000E-03 0. -1.
         11   -1    0    0    0    0 -0.00000000000E+00 -0.00000000000E+00 -0.45593999997E+02  0.45594000000E+02  0.51100000000E-03 0.  1.
    9900012    2    1    2    0    0  0.26299861544E+02 -0.68186721387E+01  0.16689633778E+02  0.59301939054E+02  0.49999990930E+02 0.  0.
        -12    1    1    2    0    0 -0.26299861544E+02  0.68186721387E+01 -0.16689633778E+02  0.31886060946E+02  0.00000000000E+00 0.  1.
         11    1    3    3    0    0  0.21047683444E+02 -0.71729378942E+01  0.30830226390E+02  0.38012614694E+02  0.51100000000E-03 0. -1.
        -11    1    3    3    0    0  0.97977621010E+01 -0.29295783238E+01 -0.80872362505E+01  0.13037713058E+02  0.51100000000E-03 0.  1.
         12    1    3    3    0    0 -0.45455840001E+01  0.32838440793E+01 -0.60533563620E+01  0.82516113023E+01  0.00000000000E+00 0. -1.
</event>
<event>
 7    1  0.5987893E-013  0.5930209E+02  0.7816164E-02  0.1266604E+00
        -11   -1    0    0    0    0  0.00000000000E+00  0.00000000000E+00  0.45593999997E+02  0.45594000000E+02  0.51100000000E-03 0.  1.
         11   -1    0    0    0    0 -0.00000000000E+00 -0.00000000000E+00 -0.45593999997E+02  0.45594000000E+02  0.51100000000E-03 0. -1.
    9900012    2    1    2    0    0 -0.17938175031E+02 -0.26098275604E+02  0.37166197412E+01  0.59302088138E+02  0.50000262822E+02 0.  0.
        -12    1    1    2    0    0  0.17938175031E+02  0.26098275604E+02 -0.37166197412E+01  0.31885911862E+02  0.00000000000E+00 0.  1.
         11    1    3    3    0    0 -0.24706407779E+02 -0.30007765393E+02 -0.70167107809E+01  0.39498187296E+02  0.51100000000E-03 0. -1.
        -11    1    3    3    0    0  0.78026307185E+01  0.38096590562E+01 -0.33251324888E+00  0.86893678467E+01  0.51100000000E-03 0.  1.
         12    1    3    3    0    0 -0.10343979705E+01  0.99830732101E-01  0.11065843771E+02  0.11114532995E+02  0.00000000000E+00 0. -1.
</event>
<event>
 7    1  0.5987893E-013  0.5930192E+02  0.7816164E-02  0.1266605E+00
        -11   -1    0    0    0    0  0.00000000000E+00  0.00000000000E+00  0.45593999997E+02  0.45594000000E+02  0.51100000000E-03 0.  1.
         11   -1    0    0    0    0 -0.00000000000E+00 -0.00000000000E+00 -0.45593999997E+02  0.45594000000E+02  0.51100000000E-03 0. -1.
    9900012    2    1    2    0    0 -0.89776430114E+01  0.60461158386E+01 -0.29992804925E+02  0.59301922505E+02  0.49999960748E+02 0.  0.
        -12    1    1    2    0    0  0.89776430114E+01 -0.60461158386E+01  0.29992804925E+02  0.31886077495E+02  0.00000000000E+00 0.  1.
         11    1    3    3    0    0  0.51709944408E+00 -0.10435402551E+02 -0.17227065545E+01  0.10589274591E+02  0.51100000000E-03 0. -1.
        -11    1    3    3    0    0 -0.63582195110E+01  0.27239903706E+02 -0.23499936768E+02  0.36533359243E+02  0.51100000000E-03 0.  1.
        -12    1    3    3    0    0 -0.31365229444E+01 -0.10758385317E+02 -0.47701616026E+01  0.12179288671E+02  0.00000000000E+00 0.  1.
</event>
<event>
 7    1  0.5987893E-013  0.5930195E+02  0.7816164E-02  0.1266605E+00
        -11   -1    0    0    0    0  0.00000000000E+00  0.00000000000E+00  0.45593999997E+02  0.45594000000E+02  0.51100000000E-03 0.  1.
         11   -1    0    0    0    0 -0.00000000000E+00 -0.00000000000E+00 -0.45593999997E+02  0.45594000000E+02  0.51100000000E-03 0. -1.
    9900012    2    1    2    0    0 -0.21636217774E+02 -0.15400927400E+02 -0.17646699533E+02  0.59301945230E+02  0.50000002193E+02 0.  0.
        -12    1    1    2    0    0  0.21636217774E+02  0.15400927400E+02  0.17646699533E+02  0.31886054770E+02  0.00000000000E+00 0.  1.
         11    1    3    3    0    0 -0.61046335763E+01 -0.29758284188E+02 -0.22158588962E+02  0.37600865601E+02  0.51100000000E-03 0. -1.
        -11    1    3    3    0    0 -0.50325060528E+01  0.37135333251E+01  0.17822737253E+01  0.65033027625E+01  0.51100000000E-03 0.  1.
         12    1    3    3    0    0 -0.10499078145E+02  0.10643823463E+02  0.27296157030E+01  0.15197776867E+02  0.00000000000E+00 0. -1.
</event>
<event>
 7    1  0.5987893E-013  0.5930203E+02  0.7816164E-02  0.1266604E+00
        -11   -1    0    0    0    0  0.00000000000E+00  0.00000000000E+00  0.45593999997E+02  0.45594000000E+02  0.51100000000E-03 0.  1.
         11   -1    0    0    0    0 -0.00000000000E+00 -0.00000000000E+00 -0.45593999997E+02  0.45594000000E+02  0.51100000000E-03 0. -1.
    9900012    2    1    2    0    0 -0.29827188557E+02  0.11108846784E+02 -0.19097776303E+01  0.59302032794E+02  0.50000161888E+02 0.  0.
        -12    1    1    2    0    0  0.29827188557E+02 -0.11108846784E+02  0.19097776303E+01  0.31885967206E+02  0.00000000000E+00 0.  1.
         11    1    3    3    0    0 -0.18762407681E+02  0.26817023888E+01 -0.17369728807E+02  0.25708499544E+02  0.51100000000E-03 0. -1.
        -11    1    3    3    0    0 -0.33890682542E+01  0.17565413591E+02  0.94210386518E+01  0.20218444742E+02  0.51100000000E-03 0.  1.
         12    1    3    3    0    0 -0.76757126212E+01 -0.91382691956E+01  0.60389125245E+01  0.13375088509E+02  0.00000000000E+00 0. -1.
</event>
<event>
 7    1  0.5987893E-013  0.5930186E+02  0.7816164E-02  0.1266605E+00
        -11   -1    0    0    0    0  0.00000000000E+00  0.00000000000E+00  0.45593999997E+02  0.45594000000E+02  0.51100000000E-03 0.  1.
         11   -1    0    0    0    0 -0.00000000000E+00 -0.00000000000E+00 -0.45593999997E+02  0.45594000000E+02  0.51100000000E-03 0. -1.
    9900012    2    1    2    0    0  0.28357082168E+02  0.81270495804E+01  0.12105890247E+02  0.59301864727E+02  0.49999855375E+02 0.  0.
        -12    1    1    2    0    0 -0.28357082168E+02 -0.81270495804E+01 -0.12105890247E+02  0.31886135273E+02  0.00000000000E+00 0.  1.
         11    1    3    3    0    0  0.34189463444E+01 -0.12516077828E+02  0.10230474252E+02  0.16522832747E+02  0.51100000000E-03 0. -1.
        -11    1    3    3    0    0  0.28389116710E+02  0.15752017680E+02 -0.58671863938E+01  0.32992300390E+02  0.51100000000E-03 0.  1.
        -12    1    3    3    0    0 -0.34509808871E+01  0.48911097289E+01  0.77426023894E+01  0.97867315904E+01  0.00000000000E+00 0.  1.
</event>
<event>
 7    1  0.5987893E-013  0.5930198E+02  0.7816164E-02  0.1266605E+00
        -11   -1    0    0    0    0  0.00000000000E+00  0.00000000000E+00  0.45593999997E+02  0.45594000000E+02  0.51100000000E-03 0. -1.
         11   -1    0    0    0    0 -0.00000000000E+00 -0.00000000000E+00 -0.45593999997E+02  0.45594000000E+02  0.51100000000E-03 0.  1.
    9900012    2    1    2    0    0  0.14664313504E+02  0.22284210494E+02  0.17466836433E+02  0.59301976371E+02  0.50000058987E+02 0.  0.
        -12    1    1    2    0    0 -0.14664313504E+02 -0.22284210494E+02 -0.17466836433E+02  0.31886023629E+02  0.00000000000E+00 0.  1.
         11    1    3    3    0    0  0.22200192350E+02  0.52593610552E+01  0.23051558848E+02  0.32432757895E+02  0.51100000000E-03 0. -1.
        -11    1    3    3    0    0 -0.12179482978E+02  0.95941772652E+01  0.15333207007E+01  0.15580087151E+02  0.51100000000E-03 0.  1.
        -12    1    3    3    0    0  0.46436041315E+01  0.74306721737E+01 -0.71180431162E+01  0.11289131326E+02  0.00000000000E+00 0.  1.
</event>
<event>
 7    1  0.5987893E-013  0.5930194E+02  0.7816164E-02  0.1266605E+00
        -11   -1    0    0    0    0  0.00000000000E+00  0.00000000000E+00  0.45593999997E+02  0.45594000000E+02  0.51100000000E-03 0. -1.
         11   -1    0    0    0    0 -0.00000000000E+00 -0.00000000000E+00 -0.45593999997E+02  0.45594000000E+02  0.51100000000E-03 0.  1.
    9900012    2    1    2    0    0 -0.60877765410E+01  0.29414746636E+02  0.10697319763E+02  0.59301937324E+02  0.49999987774E+02 0.  0.
        -12    1    1    2    0    0  0.60877765410E+01 -0.29414746636E+02 -0.10697319763E+02  0.31886062676E+02  0.00000000000E+00 0.  1.
         11    1    3    3    0    0 -0.10731256158E+02  0.25966555680E+02  0.50803816583E+01  0.28552270500E+02  0.51100000000E-03 0. -1.
        -11    1    3    3    0    0 -0.58087905022E+01 -0.10962519633E+02  0.17088434385E+01  0.12523539035E+02  0.51100000000E-03 0.  1.
        -12    1    3    3    0    0  0.10452270119E+02  0.14410710588E+02  0.39080946660E+01  0.18226127790E+02  0.00000000000E+00 0.  1.
</event>
<event>
 7    1  0.5987893E-013  0.5930202E+02  0.7816164E-02  0.1266604E+00
        -11   -1    0    0    0    0  0.00000000000E+00  0.00000000000E+00  0.45593999997E+02  0.45594000000E+02  0.51100000000E-03 0.  1.
         11   -1    0    0    0    0 -0.00000000000E+00 -0.00000000000E+00 -0.45593999997E+02  0.45594000000E+02  0.51100000000E-03 0. -1.
    9900012    2    1    2    0    0  0.13281482819E+02  0.24795991897E+02 -0.15015882481E+02  0.59302019904E+02  0.50000138380E+02 0.  0.
        -12    1    1    2    0    0 -0.13281482819E+02 -0.24795991897E+02  0.15015882481E+02  0.31885980096E+02  0.00000000000E+00 0.  1.
         11    1    3    3    0    0 -0.16319186439E+01 -0.21048195465E+01 -0.84893964273E+01  0.88973746546E+01  0.51100000000E-03 0. -1.
        -11    1    3    3    0    0 -0.20243223568E+01  0.16250874870E+02  0.14142632653E+02  0.21637996064E+02  0.51100000000E-03 0.  1.
        -12    1    3    3    0    0  0.16937723819E+02  0.10649936573E+02 -0.20669118707E+02  0.28766649185E+02  0.00000000000E+00 0.  1.
</event>
<event>
 7    1  0.5987893E-013  0.5930198E+02  0.7816164E-02  0.1266605E+00
        -11   -1    0    0    0    0  0.00000000000E+00  0.00000000000E+00  0.45593999997E+02  0.45594000000E+02  0.51100000000E-03 0. -1.
         11   -1    0    0    0    0 -0.00000000000E+00 -0.00000000000E+00 -0.45593999997E+02  0.45594000000E+02  0.51100000000E-03 0.  1.
    9900012    2    1    2    0    0  0.19117907598E+01  0.19142937570E+02 -0.25428557261E+02  0.59301975991E+02  0.50000058294E+02 0.  0.
        -12    1    1    2    0    0 -0.19117907598E+01 -0.19142937570E+02  0.25428557261E+02  0.31886024009E+02  0.00000000000E+00 0.  1.
         11    1    3    3    0    0  0.99613000648E+01 -0.11047571737E+02 -0.33514199197E+01  0.15248224684E+02  0.51100000000E-03 0. -1.
        -11    1    3    3    0    0 -0.10336752565E+02  0.74173226024E+01 -0.15868228348E+02  0.20338775758E+02  0.51100000000E-03 0.  1.
         12    1    3    3    0    0  0.22872432602E+01  0.22773186705E+02 -0.62089089932E+01  0.23714975550E+02  0.00000000000E+00 0. -1.
</event>
<event>
 7    1  0.5987893E-013  0.5930195E+02  0.7816164E-02  0.1266605E+00
        -11   -1    0    0    0    0  0.00000000000E+00  0.00000000000E+00  0.45593999997E+02  0.45594000000E+02  0.51100000000E-03 0.  1.
         11   -1    0    0    0    0 -0.00000000000E+00 -0.00000000000E+00 -0.45593999997E+02  0.45594000000E+02  0.51100000000E-03 0. -1.
    9900012    2    1    2    0    0  0.22466251806E+02  0.22408541869E+02  0.31376377853E+01  0.59301953055E+02  0.50000016464E+02 0.  0.
        -12    1    1    2    0    0 -0.22466251806E+02 -0.22408541869E+02 -0.31376377853E+01  0.31886046945E+02  0.00000000000E+00 0.  1.
         11    1    3    3    0    0 -0.55541094360E+01  0.15096881211E+02 -0.13477881882E+02  0.20986120514E+02  0.51100000000E-03 0. -1.
        -11    1    3    3    0    0  0.22577645326E+01  0.30892933826E+01  0.10953458843E+02  0.11602564164E+02  0.51100000000E-03 0.  1.
         12    1    3    3    0    0  0.25762596709E+02  0.42223672750E+01  0.56620608244E+01  0.26713268377E+02  0.00000000000E+00 0. -1.
</event>
<event>
 7    1  0.5987893E-013  0.5930196E+02  0.7816164E-02  0.1266605E+00
        -11   -1    0    0    0    0  0.00000000000E+00  0.00000000000E+00  0.45593999997E+02  0.45594000000E+02  0.51100000000E-03 0. -1.
         11   -1    0    0    0    0 -0.00000000000E+00 -0.00000000000E+00 -0.45593999997E+02  0.45594000000E+02  0.51100000000E-03 0.  1.
    9900012    2    1    2    0    0  0.21163401481E+02  0.15354265190E+02  0.18250390615E+02  0.59301956355E+02  0.50000022482E+02 0.  0.
        -12    1    1    2    0    0 -0.21163401481E+02 -0.15354265190E+02 -0.18250390615E+02  0.31886043645E+02  0.00000000000E+00 0.  1.
         11    1    3    3    0    0  0.53858929580E+01  0.13322099198E+02 -0.10452848302E+01  0.14407594894E+02  0.51100000000E-03 0. -1.
        -11    1    3    3    0    0  0.28113501063E+02  0.21374933317E+01  0.13748755734E+02  0.31368234000E+02  0.51100000000E-03 0.  1.
        -12    1    3    3    0    0 -0.12335992541E+02 -0.10532733959E+00  0.55469197109E+01  0.13526127461E+02  0.00000000000E+00 0.  1.
</event>
<event>
 7    1  0.5987893E-013  0.5930191E+02  0.7816164E-02  0.1266605E+00
        -11   -1    0    0    0    0  0.00000000000E+00  0.00000000000E+00  0.45593999997E+02  0.45594000000E+02  0.51100000000E-03 0.  1.
         11   -1    0    0    0    0 -0.00000000000E+00 -0.00000000000E+00 -0.45593999997E+02  0.45594000000E+02  0.51100000000E-03 0. -1.
    9900012    2    1    2    0    0  0.38464098000E+01  0.21593199524E+02 -0.23144369042E+02  0.59301906599E+02  0.49999931739E+02 0.  0.
        -12    1    1    2    0    0 -0.38464098000E+01 -0.21593199524E+02  0.23144369042E+02  0.31886093401E+02  0.00000000000E+00 0.  1.
         11    1    3    3    0    0  0.14629598191E+02 -0.69216916739E+01 -0.17159469592E+02  0.23587758601E+02  0.51100000000E-03 0. -1.
        -11    1    3    3    0    0 -0.97556223245E+01  0.21887935750E+02 -0.11914844601E+02  0.26762238704E+02  0.51100000000E-03 0.  1.
         12    1    3    3    0    0 -0.10275660662E+01  0.66269554479E+01  0.59299451511E+01  0.89519092949E+01  0.00000000000E+00 0. -1.
</event>
<event>
 7    1  0.5987893E-013  0.5930189E+02  0.7816164E-02  0.1266605E+00
        -11   -1    0    0    0    0  0.00000000000E+00  0.00000000000E+00  0.45593999997E+02  0.45594000000E+02  0.51100000000E-03 0. -1.
         11   -1    0    0    0    0 -0.00000000000E+00 -0.00000000000E+00 -0.45593999997E+02  0.45594000000E+02  0.51100000000E-03 0.  1.
    9900012    2    1    2    0    0  0.19778405893E+02  0.16896971936E+02  0.18439933787E+02  0.59301887688E+02  0.49999897251E+02 0.  0.
        -12    1    1    2    0    0 -0.19778405893E+02 -0.16896971936E+02 -0.18439933787E+02  0.31886112312E+02  0.00000000000E+00 0.  1.
         11    1    3    3    0    0  0.18693781387E+02  0.10903343196E+02  0.20151126661E+02  0.29570395015E+02  0.51100000000E-03 0. -1.
        -11    1    3    3    0    0 -0.11641741780E+02  0.97162837011E+01  0.33664837142E+01  0.15532853360E+02  0.51100000000E-03 0.  1.
         12    1    3    3    0    0  0.12726366287E+02 -0.37226549613E+01 -0.50776765878E+01  0.14198639314E+02  0.00000000000E+00 0. -1.
</event>
<event>
 7    1  0.5987893E-013  0.5930205E+02  0.7816164E-02  0.1266604E+00
        -11   -1    0    0    0    0  0.00000000000E+00  0.00000000000E+00  0.45593999997E+02  0.45594000000E+02  0.51100000000E-03 0.  1.
         11   -1    0    0    0    0 -0.00000000000E+00 -0.00000000000E+00 -0.45593999997E+02  0.45594000000E+02  0.51100000000E-03 0. -1.
    9900012    2    1    2    0    0  0.16525815112E+01  0.22665803991E+02 -0.22366144634E+02  0.59302045067E+02  0.50000184271E+02 0.  0.
        -12    1    1    2    0    0 -0.16525815112E+01 -0.22665803991E+02  0.22366144634E+02  0.31885954933E+02  0.00000000000E+00 0.  1.
         11    1    3    3    0    0 -0.35392094730E+01  0.20656660055E+02 -0.26504835584E+02  0.33789494195E+02  0.51100000000E-03 0. -1.
        -11    1    3    3    0    0 -0.69645149565E+01 -0.66740766247E+01  0.43274396380E+01  0.10572346071E+02  0.51100000000E-03 0.  1.
         12    1    3    3    0    0  0.12156305941E+02  0.86832205606E+01 -0.18874868779E+00  0.14940204801E+02  0.00000000000E+00 0. -1.
</event>
<event>
 7    1  0.5987893E-013  0.5930195E+02  0.7816164E-02  0.1266605E+00
        -11   -1    0    0    0    0  0.00000000000E+00  0.00000000000E+00  0.45593999997E+02  0.45594000000E+02  0.51100000000E-03 0.  1.
         11   -1    0    0    0    0 -0.00000000000E+00 -0.00000000000E+00 -0.45593999997E+02  0.45594000000E+02  0.51100000000E-03 0. -1.
    9900012    2    1    2    0    0 -0.13708776503E+01 -0.84922522971E+00 -0.31845249996E+02  0.59301946053E+02  0.50000003694E+02 0.  0.
        -12    1    1    2    0    0  0.13708776503E+01  0.84922522971E+00  0.31845249996E+02  0.31886053947E+02  0.00000000000E+00 0.  1.
         11    1    3    3    0    0 -0.19042073006E+01  0.11501343425E+02 -0.19488213592E+02  0.22708971252E+02  0.51100000000E-03 0. -1.
        -11    1    3    3    0    0  0.15646087362E+02 -0.37753022944E+01 -0.16419131464E+01  0.16178653720E+02  0.51100000000E-03 0.  1.
        -12    1    3    3    0    0 -0.15112757712E+02 -0.85752663608E+01 -0.10715123257E+02  0.20414321082E+02  0.00000000000E+00 0.  1.
</event>
<event>
 7    1  0.5987893E-013  0.5930195E+02  0.7816164E-02  0.1266605E+00
        -11   -1    0    0    0    0  0.00000000000E+00  0.00000000000E+00  0.45593999997E+02  0.45594000000E+02  0.51100000000E-03 0.  1.
         11   -1    0    0    0    0 -0.00000000000E+00 -0.00000000000E+00 -0.45593999997E+02  0.45594000000E+02  0.51100000000E-03 0. -1.
    9900012    2    1    2    0    0  0.14793332612E+01 -0.18006747101E+02 -0.26273348936E+02  0.59301949251E+02  0.50000009526E+02 0.  0.
        -12    1    1    2    0    0 -0.14793332612E+01  0.18006747101E+02  0.26273348936E+02  0.31886050749E+02  0.00000000000E+00 0.  1.
         11    1    3    3    0    0  0.10000408121E+02 -0.27127769549E+02 -0.11882725182E+02  0.31258969933E+02  0.51100000000E-03 0. -1.
        -11    1    3    3    0    0 -0.38188280453E+01  0.15595207879E+02 -0.10009269993E+02  0.18920344672E+02  0.51100000000E-03 0.  1.
        -12    1    3    3    0    0 -0.47022468140E+01 -0.64741854313E+01 -0.43813537621E+01  0.91226346461E+01  0.00000000000E+00 0.  1.
</event>
<event>
 7    1  0.5987893E-013  0.5930193E+02  0.7816164E-02  0.1266605E+00
        -11   -1    0    0    0    0  0.00000000000E+00  0.00000000000E+00  0.45593999997E+02  0.45594000000E+02  0.51100000000E-03 0.  1.
         11   -1    0    0    0    0 -0.00000000000E+00 -0.00000000000E+00 -0.45593999997E+02  0.45594000000E+02  0.51100000000E-03 0. -1.
    9900012    2    1    2    0    0  0.22916237922E+02 -0.19195616889E+02  0.11094842609E+02  0.59301934066E+02  0.49999981832E+02 0.  0.
        -12    1    1    2    0    0 -0.22916237922E+02  0.19195616889E+02 -0.11094842609E+02  0.31886065934E+02  0.00000000000E+00 0.  1.
         11    1    3    3    0    0  0.19819837199E+02 -0.16031473370E+02  0.58963810311E+01  0.26164888582E+02  0.51100000000E-03 0. -1.
        -11    1    3    3    0    0 -0.55001034880E+01  0.12524424060E+02  0.66095788225E+01  0.15192065985E+02  0.51100000000E-03 0.  1.
        -12    1    3    3    0    0  0.85965042106E+01 -0.15688567579E+02 -0.14111172443E+01  0.17944979499E+02  0.00000000000E+00 0.  1.
</event>
<event>
 7    1  0.5987893E-013  0.5930194E+02  0.7816164E-02  0.1266605E+00
        -11   -1    0    0    0    0  0.00000000000E+00  0.00000000000E+00  0.45593999997E+02  0.45594000000E+02  0.51100000000E-03 0.  1.
         11   -1    0    0    0    0 -0.00000000000E+00 -0.00000000000E+00 -0.45593999997E+02  0.45594000000E+02  0.51100000000E-03 0. -1.
    9900012    2    1    2    0    0 -0.28725030960E+02  0.20784394849E+01 -0.13684793974E+02  0.59301938775E+02  0.49999990420E+02 0.  0.
        -12    1    1    2    0    0  0.28725030960E+02 -0.20784394849E+01  0.13684793974E+02  0.31886061225E+02  0.00000000000E+00 0.  1.
         11    1    3    3    0    0 -0.28638713366E+02 -0.31331563485E+01 -0.20583281081E+02  0.35407118384E+02  0.51100000000E-03 0. -1.
        -11    1    3    3    0    0 -0.63344374181E+01  0.77219866183E+01  0.11878739171E+02  0.15519620462E+02  0.51100000000E-03 0.  1.
         12    1    3    3    0    0  0.62481198237E+01 -0.25103907849E+01 -0.49802520638E+01  0.83751999286E+01  0.00000000000E+00 0. -1.
</event>
<event>
 7    1  0.5987893E-013  0.5930196E+02  0.7816164E-02  0.1266605E+00
        -11   -1    0    0    0    0  0.00000000000E+00  0.00000000000E+00  0.45593999997E+02  0.45594000000E+02  0.51100000000E-03 0.  1.
         11   -1    0    0    0    0 -0.00000000000E+00 -0.00000000000E+00 -0.45593999997E+02  0.45594000000E+02  0.51100000000E-03 0. -1.
    9900012    2    1    2    0    0 -0.26878415180E+02  0.29169832271E+01 -0.16904490430E+02  0.59301956181E+02  0.50000022164E+02 0.  0.
        -12    1    1    2    0    0  0.26878415180E+02 -0.29169832271E+01  0.16904490430E+02  0.31886043819E+02  0.00000000000E+00 0.  1.
         11    1    3    3    0    0 -0.62195914255E+01 -0.12017796359E+02  0.11491389519E+02  0.17752824569E+02  0.51100000000E-03 0. -1.
        -11    1    3    3    0    0  0.58145491167E+00  0.75499056604E+01 -0.96953069701E+01  0.12301956869E+02  0.51100000000E-03 0.  1.
         12    1    3    3    0    0 -0.21240278666E+02  0.73848739261E+01 -0.18700572979E+02  0.29247174743E+02  0.00000000000E+00 0. -1.
</event>
<event>
 7    1  0.5987893E-013  0.5930196E+02  0.7816164E-02  0.1266605E+00
        -11   -1    0    0    0    0  0.00000000000E+00  0.00000000000E+00  0.45593999997E+02  0.45594000000E+02  0.51100000000E-03 0. -1.
         11   -1    0    0    0    0 -0.00000000000E+00 -0.00000000000E+00 -0.45593999997E+02  0.45594000000E+02  0.51100000000E-03 0.  1.
    9900012    2    1    2    0    0 -0.10307125928E+02  0.83961699688E+00  0.30162526916E+02  0.59301955537E+02  0.50000020990E+02 0.  0.
        -12    1    1    2    0    0  0.10307125928E+02 -0.83961699688E+00 -0.30162526916E+02  0.31886044463E+02  0.00000000000E+00 0.  1.
         11    1    3    3    0    0 -0.12423231444E+02 -0.99876212826E+01 -0.41717429258E+01  0.16477035465E+02  0.51100000000E-03 0. -1.
        -11    1    3    3    0    0  0.72085638040E+01  0.83112570753E+01  0.35378477904E+02  0.37049657021E+02  0.51100000000E-03 0.  1.
        -12    1    3    3    0    0 -0.50924582871E+01  0.25159812042E+01 -0.10442080631E+01  0.57752630507E+01  0.00000000000E+00 0.  1.
</event>
<event>
 7    1  0.5987893E-013  0.5930196E+02  0.7816164E-02  0.1266605E+00
        -11   -1    0    0    0    0  0.00000000000E+00  0.00000000000E+00  0.45593999997E+02  0.45594000000E+02  0.51100000000E-03 0.  1.
         11   -1    0    0    0    0 -0.00000000000E+00 -0.00000000000E+00 -0.45593999997E+02  0.45594000000E+02  0.51100000000E-03 0. -1.
    9900012    2    1    2    0    0  0.10131543328E+02  0.19597500409E+02  0.23021927541E+02  0.59301963241E+02  0.50000035040E+02 0.  0.
        -12    1    1    2    0    0 -0.10131543328E+02 -0.19597500409E+02 -0.23021927541E+02  0.31886036759E+02  0.00000000000E+00 0.  1.
         11    1    3    3    0    0  0.93821837033E+01 -0.17066582287E+01 -0.11267932745E+02  0.14761583992E+02  0.51100000000E-03 0. -1.
        -11    1    3    3    0    0  0.92446124910E+01  0.13248583017E+02  0.24133382905E+02  0.29041487268E+02  0.51100000000E-03 0.  1.
         12    1    3    3    0    0 -0.84952528659E+01  0.80555756202E+01  0.10156477381E+02  0.15498891981E+02  0.00000000000E+00 0. -1.
</event>
<event>
 7    1  0.5987893E-013  0.5930182E+02  0.7816164E-02  0.1266605E+00
        -11   -1    0    0    0    0  0.00000000000E+00  0.00000000000E+00  0.45593999997E+02  0.45594000000E+02  0.51100000000E-03 0. -1.
         11   -1    0    0    0    0 -0.00000000000E+00 -0.00000000000E+00 -0.45593999997E+02  0.45594000000E+02  0.51100000000E-03 0.  1.
    9900012    2    1    2    0    0 -0.19463476475E+02 -0.20473771570E+02  0.14789387974E+02  0.59301823756E+02  0.49999780653E+02 0.  0.
        -12    1    1    2    0    0  0.19463476475E+02  0.20473771570E+02 -0.14789387974E+02  0.31886176244E+02  0.00000000000E+00 0.  1.
         11    1    3    3    0    0 -0.31190533548E+02 -0.38160251113E+01  0.90920773978E+01  0.32712036047E+02  0.51100000000E-03 0. -1.
        -11    1    3    3    0    0  0.11757527315E+02 -0.85248757457E+01 -0.28408269022E+01  0.14798082740E+02  0.51100000000E-03 0.  1.
         12    1    3    3    0    0 -0.30470241287E-01 -0.81328707133E+01  0.85381374786E+01  0.11791704969E+02  0.00000000000E+00 0. -1.
</event>
<event>
 7    1  0.5987893E-013  0.5930192E+02  0.7816164E-02  0.1266605E+00
        -11   -1    0    0    0    0  0.00000000000E+00  0.00000000000E+00  0.45593999997E+02  0.45594000000E+02  0.51100000000E-03 0.  1.
         11   -1    0    0    0    0 -0.00000000000E+00 -0.00000000000E+00 -0.45593999997E+02  0.45594000000E+02  0.51100000000E-03 0. -1.
    9900012    2    1    2    0    0  0.29571946850E+01  0.72871560918E+01 -0.30901044699E+02  0.59301918275E+02  0.49999953032E+02 0.  0.
        -12    1    1    2    0    0 -0.29571946850E+01 -0.72871560918E+01  0.30901044699E+02  0.31886081725E+02  0.00000000000E+00 0.  1.
         11    1    3    3    0    0 -0.47580840039E+01 -0.30765796165E+01  0.22129577228E+01  0.60829176937E+01  0.51100000000E-03 0. -1.
        -11    1    3    3    0    0  0.42270391921E+01 -0.14227200816E+02 -0.20648751775E+02  0.25429354170E+02  0.51100000000E-03 0.  1.
        -12    1    3    3    0    0  0.34882394968E+01  0.24590936524E+02 -0.12465250647E+02  0.27789646411E+02  0.00000000000E+00 0.  1.
</event>
<event>
 7    1  0.5987893E-013  0.5930196E+02  0.7816164E-02  0.1266605E+00
        -11   -1    0    0    0    0  0.00000000000E+00  0.00000000000E+00  0.45593999997E+02  0.45594000000E+02  0.51100000000E-03 0.  1.
         11   -1    0    0    0    0 -0.00000000000E+00 -0.00000000000E+00 -0.45593999997E+02  0.45594000000E+02  0.51100000000E-03 0. -1.
    9900012    2    1    2    0    0 -0.29221150504E+02  0.26521458531E+01 -0.12482377986E+02  0.59301964270E+02  0.50000036916E+02 0.  0.
        -12    1    1    2    0    0  0.29221150504E+02 -0.26521458531E+01  0.12482377986E+02  0.31886035730E+02  0.00000000000E+00 0.  1.
         11    1    3    3    0    0 -0.33040382249E+02  0.18827900493E+01 -0.17114457539E+02  0.37257434354E+02  0.51100000000E-03 0. -1.
        -11    1    3    3    0    0  0.28615474763E+01  0.10231594613E+02  0.63540267284E+01  0.12379323011E+02  0.51100000000E-03 0.  1.
         12    1    3    3    0    0  0.95768426811E+00 -0.94622388092E+01 -0.17219471758E+01  0.96652069050E+01  0.00000000000E+00 0. -1.
</event>
<event>
 7    1  0.5987893E-013  0.5930194E+02  0.7816164E-02  0.1266605E+00
        -11   -1    0    0    0    0  0.00000000000E+00  0.00000000000E+00  0.45593999997E+02  0.45594000000E+02  0.51100000000E-03 0.  1.
         11   -1    0    0    0    0 -0.00000000000E+00 -0.00000000000E+00 -0.45593999997E+02  0.45594000000E+02  0.51100000000E-03 0. -1.
    9900012    2    1    2    0    0  0.23160276396E+02 -0.12805725322E+02 -0.17785829662E+02  0.59301941283E+02  0.49999994994E+02 0.  0.
        -12    1    1    2    0    0 -0.23160276396E+02  0.12805725322E+02  0.17785829662E+02  0.31886058717E+02  0.00000000000E+00 0.  1.
         11    1    3    3    0    0 -0.59514138435E+01 -0.15568579305E+02 -0.18014178233E+02  0.24542017153E+02  0.51100000000E-03 0. -1.
        -11    1    3    3    0    0  0.17243760265E+02 -0.73972847505E+01  0.26525777383E+01  0.18950020017E+02  0.51100000000E-03 0.  1.
         12    1    3    3    0    0  0.11867929975E+02  0.10160138734E+02 -0.24242291681E+01  0.15809904112E+02  0.00000000000E+00 0. -1.
</event>
<event>
 7    1  0.5987893E-013  0.5930182E+02  0.7816164E-02  0.1266605E+00
        -11   -1    0    0    0    0  0.00000000000E+00  0.00000000000E+00  0.45593999997E+02  0.45594000000E+02  0.51100000000E-03 0.  1.
         11   -1    0    0    0    0 -0.00000000000E+00 -0.00000000000E+00 -0.45593999997E+02  0.45594000000E+02  0.51100000000E-03 0. -1.
    9900012    2    1    2    0    0  0.58364153106E+01 -0.21531067944E+02 -0.22783276415E+02  0.59301822514E+02  0.49999778387E+02 0.  0.
        -12    1    1    2    0    0 -0.58364153106E+01  0.21531067944E+02  0.22783276415E+02  0.31886177486E+02  0.00000000000E+00 0.  1.
         11    1    3    3    0    0 -0.10536556945E+01 -0.17043768221E+02 -0.24322526662E+02  0.29718437526E+02  0.51100000000E-03 0. -1.
        -11    1    3    3    0    0  0.12774860639E+02  0.63220848698E+01  0.72774497053E+01  0.16003971255E+02  0.51100000000E-03 0.  1.
        -12    1    3    3    0    0 -0.58847896340E+01 -0.10809384593E+02 -0.57381994585E+01  0.13579413733E+02  0.00000000000E+00 0.  1.
</event>
<event>
 7    1  0.5987893E-013  0.5930194E+02  0.7816164E-02  0.1266605E+00
        -11   -1    0    0    0    0  0.00000000000E+00  0.00000000000E+00  0.45593999997E+02  0.45594000000E+02  0.51100000000E-03 0.  1.
         11   -1    0    0    0    0 -0.00000000000E+00 -0.00000000000E+00 -0.45593999997E+02  0.45594000000E+02  0.51100000000E-03 0. -1.
    9900012    2    1    2    0    0  0.28192793114E+02 -0.73678658892E+01  0.12946111339E+02  0.59301939878E+02  0.49999992431E+02 0.  0.
        -12    1    1    2    0    0 -0.28192793114E+02  0.73678658892E+01 -0.12946111339E+02  0.31886060122E+02  0.00000000000E+00 0.  1.
         11    1    3    3    0    0  0.63290203453E+01  0.16782239699E+02  0.57524043100E+01  0.18835875968E+02  0.51100000000E-03 0. -1.
        -11    1    3    3    0    0  0.12062519866E+02 -0.10092438680E+02  0.14909954372E+02  0.21671835263E+02  0.51100000000E-03 0.  1.
         12    1    3    3    0    0  0.98012529026E+01 -0.14057666909E+02 -0.77162473434E+01  0.18794228647E+02  0.00000000000E+00 0. -1.
</event>
<event>
 7    1  0.5987893E-013  0.5930194E+02  0.7816164E-02  0.1266605E+00
        -11   -1    0    0    0    0  0.00000000000E+00  0.00000000000E+00  0.45593999997E+02  0.45594000000E+02  0.51100000000E-03 0.  1.
         11   -1    0    0    0    0 -0.00000000000E+00 -0.00000000000E+00 -0.45593999997E+02  0.45594000000E+02  0.51100000000E-03 0. -1.
    9900012    2    1    2    0    0  0.28967374200E+02  0.42577059817E+01 -0.12628694905E+02  0.59301940926E+02  0.49999994342E+02 0.  0.
        -12    1    1    2    0    0 -0.28967374200E+02 -0.42577059817E+01  0.12628694905E+02  0.31886059074E+02  0.00000000000E+00 0.  1.
         11    1    3    3    0    0 -0.27046037459E+01  0.35645348115E+01 -0.15208607301E+02  0.15853155085E+02  0.51100000000E-03 0. -1.
        -11    1    3    3    0    0  0.18260702582E+02 -0.14333597230E+02  0.78119267017E+00  0.23227473616E+02  0.51100000000E-03 0.  1.
         12    1    3    3    0    0  0.13411275364E+02  0.15026768400E+02  0.17987197254E+01  0.20221312225E+02  0.00000000000E+00 0. -1.
</event>
<event>
 7    1  0.5987893E-013  0.5930191E+02  0.7816164E-02  0.1266605E+00
        -11   -1    0    0    0    0  0.00000000000E+00  0.00000000000E+00  0.45593999997E+02  0.45594000000E+02  0.51100000000E-03 0.  1.
         11   -1    0    0    0    0 -0.00000000000E+00 -0.00000000000E+00 -0.45593999997E+02  0.45594000000E+02  0.51100000000E-03 0. -1.
    9900012    2    1    2    0    0 -0.14423049213E+02 -0.33059561896E+01 -0.28244804150E+02  0.59301911240E+02  0.49999940204E+02 0.  0.
        -12    1    1    2    0    0  0.14423049213E+02  0.33059561896E+01  0.28244804150E+02  0.31886088760E+02  0.00000000000E+00 0.  1.
         11    1    3    3    0    0 -0.32244868691E+01  0.16814100415E+02 -0.10344731714E+02  0.20003118828E+02  0.51100000000E-03 0. -1.
        -11    1    3    3    0    0 -0.15878977767E+02 -0.18688265703E+02 -0.21976067864E+02  0.32929329920E+02  0.51100000000E-03 0.  1.
         12    1    3    3    0    0  0.46804154231E+01 -0.14317909014E+01  0.40759954282E+01  0.63694624929E+01  0.00000000000E+00 0. -1.
</event>
<event>
 7    1  0.5987893E-013  0.5930195E+02  0.7816164E-02  0.1266605E+00
        -11   -1    0    0    0    0  0.00000000000E+00  0.00000000000E+00  0.45593999997E+02  0.45594000000E+02  0.51100000000E-03 0.  1.
         11   -1    0    0    0    0 -0.00000000000E+00 -0.00000000000E+00 -0.45593999997E+02  0.45594000000E+02  0.51100000000E-03 0. -1.
    9900012    2    1    2    0    0  0.86413490469E+01  0.30626208843E+02 -0.20205550661E+01  0.59301949379E+02  0.50000009759E+02 0.  0.
        -12    1    1    2    0    0 -0.86413490469E+01 -0.30626208843E+02  0.20205550661E+01  0.31886050621E+02  0.00000000000E+00 0.  1.
         11    1    3    3    0    0 -0.78463512932E+00  0.15730281486E+02 -0.17883466555E+02  0.23830144444E+02  0.51100000000E-03 0. -1.
        -11    1    3    3    0    0  0.13988567232E+02 -0.18992600991E+01  0.91240955929E+01  0.16808816816E+02  0.51100000000E-03 0.  1.
        -12    1    3    3    0    0 -0.45625830553E+01  0.16795187456E+02  0.67388158963E+01  0.18662988119E+02  0.00000000000E+00 0.  1.
</event>
<event>
 7    1  0.5987893E-013  0.5930194E+02  0.7816164E-02  0.1266605E+00
        -11   -1    0    0    0    0  0.00000000000E+00  0.00000000000E+00  0.45593999997E+02  0.45594000000E+02  0.51100000000E-03 0. -1.
         11   -1    0    0    0    0 -0.00000000000E+00 -0.00000000000E+00 -0.45593999997E+02  0.45594000000E+02  0.51100000000E-03 0.  1.
    9900012    2    1    2    0    0 -0.22949878236E+02 -0.10202826621E+02 -0.19645012555E+02  0.59301935640E+02  0.49999984703E+02 0.  0.
        -12    1    1    2    0    0  0.22949878236E+02  0.10202826621E+02  0.19645012555E+02  0.31886064360E+02  0.00000000000E+00 0.  1.
         11    1    3    3    0    0 -0.24869314053E+01 -0.87397907560E+01 -0.21969254435E+02  0.23774290966E+02  0.51100000000E-03 0. -1.
        -11    1    3    3    0    0  0.47680522309E+01  0.57237650890E+01  0.52743904941E+01  0.91277053095E+01  0.51100000000E-03 0.  1.
         12    1    3    3    0    0 -0.25230999061E+02 -0.71868009536E+01 -0.29501486148E+01  0.26399939364E+02  0.00000000000E+00 0. -1.
</event>
<event>
 7    1  0.5987893E-013  0.5930195E+02  0.7816164E-02  0.1266605E+00
        -11   -1    0    0    0    0  0.00000000000E+00  0.00000000000E+00  0.45593999997E+02  0.45594000000E+02  0.51100000000E-03 0.  1.
         11   -1    0    0    0    0 -0.00000000000E+00 -0.00000000000E+00 -0.45593999997E+02  0.45594000000E+02  0.51100000000E-03 0. -1.
    9900012    2    1    2    0    0 -0.20393013789E+02  0.22251200862E+02 -0.10282472100E+02  0.59301950014E+02  0.50000010918E+02 0.  0.
        -12    1    1    2    0    0  0.20393013789E+02 -0.22251200862E+02  0.10282472100E+02  0.31886049986E+02  0.00000000000E+00 0.  1.
         11    1    3    3    0    0 -0.33343862063E+02  0.14790059221E+02 -0.12919673701E+02  0.38697247420E+02  0.51100000000E-03 0. -1.
        -11    1    3    3    0    0  0.37499129763E+01 -0.38576111453E+01  0.26966769973E+01  0.60178964902E+01  0.51100000000E-03 0.  1.
         12    1    3    3    0    0  0.92009352981E+01  0.11318752786E+02 -0.59475396293E-01  0.14586806104E+02  0.00000000000E+00 0. -1.
</event>
<event>
 7    1  0.5987893E-013  0.5930193E+02  0.7816164E-02  0.1266605E+00
        -11   -1    0    0    0    0  0.00000000000E+00  0.00000000000E+00  0.45593999997E+02  0.45594000000E+02  0.51100000000E-03 0. -1.
         11   -1    0    0    0    0 -0.00000000000E+00 -0.00000000000E+00 -0.45593999997E+02  0.45594000000E+02  0.51100000000E-03 0.  1.
    9900012    2    1    2    0    0  0.38823017614E+01 -0.17979502004E+02  0.26045855570E+02  0.59301931699E+02  0.49999977516E+02 0.  0.
        -12    1    1    2    0    0 -0.38823017614E+01  0.17979502004E+02 -0.26045855570E+02  0.31886068301E+02  0.00000000000E+00 0.  1.
         11    1    3    3    0    0 -0.14789054466E+02 -0.14030397431E+01  0.82943880394E+01  0.17014156627E+02  0.51100000000E-03 0. -1.
        -11    1    3    3    0    0  0.16032407980E+02 -0.83977299861E+01 -0.43158510491E+01  0.18606088925E+02  0.51100000000E-03 0.  1.
         12    1    3    3    0    0  0.26389482477E+01 -0.81787322750E+01  0.22067318580E+02  0.23681686147E+02  0.00000000000E+00 0. -1.
</event>
<event>
 7    1  0.5987893E-013  0.5930195E+02  0.7816164E-02  0.1266605E+00
        -11   -1    0    0    0    0  0.00000000000E+00  0.00000000000E+00  0.45593999997E+02  0.45594000000E+02  0.51100000000E-03 0. -1.
         11   -1    0    0    0    0 -0.00000000000E+00 -0.00000000000E+00 -0.45593999997E+02  0.45594000000E+02  0.51100000000E-03 0.  1.
    9900012    2    1    2    0    0  0.31872465312E+02  0.93049047212E+00  0.20879094067E-01  0.59301948293E+02  0.50000007778E+02 0.  0.
        -12    1    1    2    0    0 -0.31872465312E+02 -0.93049047212E+00 -0.20879094067E-01  0.31886051707E+02  0.00000000000E+00 0.  1.
         11    1    3    3    0    0  0.19861195888E+02 -0.92377514836E+01  0.13118272726E+02  0.25532180364E+02  0.51100000000E-03 0. -1.
        -11    1    3    3    0    0  0.16222647631E+01 -0.50191361223E+01 -0.14387385356E+02  0.15323848343E+02  0.51100000000E-03 0.  1.
        -12    1    3    3    0    0  0.10389004660E+02  0.15187378078E+02  0.12899917244E+01  0.18445919586E+02  0.00000000000E+00 0.  1.
</event>
<event>
 7    1  0.5987893E-013  0.5930192E+02  0.7816164E-02  0.1266605E+00
        -11   -1    0    0    0    0  0.00000000000E+00  0.00000000000E+00  0.45593999997E+02  0.45594000000E+02  0.51100000000E-03 0.  1.
         11   -1    0    0    0    0 -0.00000000000E+00 -0.00000000000E+00 -0.45593999997E+02  0.45594000000E+02  0.51100000000E-03 0. -1.
    9900012    2    1    2    0    0 -0.21248955021E+01 -0.14145830685E+02 -0.28497413667E+02  0.59301916948E+02  0.49999950614E+02 0.  0.
        -12    1    1    2    0    0  0.21248955021E+01  0.14145830685E+02  0.28497413667E+02  0.31886083052E+02  0.00000000000E+00 0.  1.
         11    1    3    3    0    0  0.18933591939E+02 -0.22303652021E+00 -0.49632297483E+01  0.19574582979E+02  0.51100000000E-03 0. -1.
        -11    1    3    3    0    0 -0.23634439911E+02 -0.15945827440E+02 -0.22411957486E+02  0.36265024490E+02  0.51100000000E-03 0.  1.
        -12    1    3    3    0    0  0.25759524703E+01  0.20230332757E+01 -0.11222264328E+01  0.34623094792E+01  0.00000000000E+00 0.  1.
</event>
<event>
 7    1  0.5987893E-013  0.5930194E+02  0.7816164E-02  0.1266605E+00
        -11   -1    0    0    0    0  0.00000000000E+00  0.00000000000E+00  0.45593999997E+02  0.45594000000E+02  0.51100000000E-03 0.  1.
         11   -1    0    0    0    0 -0.00000000000E+00 -0.00000000000E+00 -0.45593999997E+02  0.45594000000E+02  0.51100000000E-03 0. -1.
    9900012    2    1    2    0    0 -0.37326250612E+01  0.30820263788E+02  0.72732182579E+01  0.59301939509E+02  0.49999991759E+02 0.  0.
        -12    1    1    2    0    0  0.37326250612E+01 -0.30820263788E+02 -0.72732182579E+01  0.31886060491E+02  0.00000000000E+00 0.  1.
         11    1    3    3    0    0 -0.12432681672E+02 -0.52782380532E+01  0.95439395782E+01  0.16538384245E+02  0.51100000000E-03 0. -1.
        -11    1    3    3    0    0  0.61155358627E+01  0.38580963089E+02 -0.26917638446E+01  0.39155281695E+02  0.51100000000E-03 0.  1.
        -12    1    3    3    0    0  0.25845207478E+01 -0.24824612477E+01  0.42104252423E+00  0.36082735691E+01  0.00000000000E+00 0.  1.
</event>
<event>
 7    1  0.5987893E-013  0.5930197E+02  0.7816164E-02  0.1266605E+00
        -11   -1    0    0    0    0  0.00000000000E+00  0.00000000000E+00  0.45593999997E+02  0.45594000000E+02  0.51100000000E-03 0.  1.
         11   -1    0    0    0    0 -0.00000000000E+00 -0.00000000000E+00 -0.45593999997E+02  0.45594000000E+02  0.51100000000E-03 0. -1.
    9900012    2    1    2    0    0 -0.65206646391E+00  0.29773312345E+02 -0.11394880631E+02  0.59301974483E+02  0.50000055544E+02 0.  0.
        -12    1    1    2    0    0  0.65206646391E+00 -0.29773312345E+02  0.11394880631E+02  0.31886025517E+02  0.00000000000E+00 0.  1.
         11    1    3    3    0    0 -0.18175784002E+02  0.19703431429E+02 -0.18913088803E+02  0.32806847799E+02  0.51100000000E-03 0. -1.
        -11    1    3    3    0    0  0.61782025478E+00 -0.17918485059E+01  0.54138849826E+01  0.57360765164E+01  0.51100000000E-03 0.  1.
         12    1    3    3    0    0  0.16905897283E+02  0.11861729421E+02  0.21043231888E+01  0.20759050168E+02  0.00000000000E+00 0. -1.
</event>
<event>
 7    1  0.5987893E-013  0.5930191E+02  0.7816164E-02  0.1266605E+00
        -11   -1    0    0    0    0  0.00000000000E+00  0.00000000000E+00  0.45593999997E+02  0.45594000000E+02  0.51100000000E-03 0.  1.
         11   -1    0    0    0    0 -0.00000000000E+00 -0.00000000000E+00 -0.45593999997E+02  0.45594000000E+02  0.51100000000E-03 0. -1.
    9900012    2    1    2    0    0 -0.19900802649E+01 -0.22598412497E+02 -0.22407013135E+02  0.59301907350E+02  0.49999933108E+02 0.  0.
        -12    1    1    2    0    0  0.19900802649E+01  0.22598412497E+02  0.22407013135E+02  0.31886092650E+02  0.00000000000E+00 0.  1.
         11    1    3    3    0    0 -0.11104491458E+02 -0.14741553918E+02 -0.30226415050E+02  0.35415523567E+02  0.51100000000E-03 0. -1.
        -11    1    3    3    0    0  0.12827609489E+01  0.11378635474E+01  0.11326054315E+02  0.11455117446E+02  0.51100000000E-03 0.  1.
         12    1    3    3    0    0  0.78316502445E+01 -0.89947221265E+01 -0.35066523998E+01  0.12431266337E+02  0.00000000000E+00 0. -1.
</event>
<event>
 7    1  0.5987893E-013  0.5930197E+02  0.7816164E-02  0.1266605E+00
        -11   -1    0    0    0    0  0.00000000000E+00  0.00000000000E+00  0.45593999997E+02  0.45594000000E+02  0.51100000000E-03 0. -1.
         11   -1    0    0    0    0 -0.00000000000E+00 -0.00000000000E+00 -0.45593999997E+02  0.45594000000E+02  0.51100000000E-03 0.  1.
    9900012    2    1    2    0    0  0.18655369538E+02  0.99207361328E+01  0.23880438826E+02  0.59301965808E+02  0.50000039721E+02 0.  0.
        -12    1    1    2    0    0 -0.18655369538E+02 -0.99207361328E+01 -0.23880438826E+02  0.31886034192E+02  0.00000000000E+00 0.  1.
         11    1    3    3    0    0  0.24599370215E+02  0.51315859255E+01  0.16043757449E+02  0.29813828041E+02  0.51100000000E-03 0. -1.
        -11    1    3    3    0    0 -0.11586647064E+02  0.68455086224E+01 -0.57489498446E+01  0.14634268108E+02  0.51100000000E-03 0.  1.
        -12    1    3    3    0    0  0.56426463868E+01 -0.20563584151E+01  0.13585631221E+02  0.14853869659E+02  0.00000000000E+00 0.  1.
</event>
<event>
 7    1  0.5987893E-013  0.5930196E+02  0.7816164E-02  0.1266605E+00
        -11   -1    0    0    0    0  0.00000000000E+00  0.00000000000E+00  0.45593999997E+02  0.45594000000E+02  0.51100000000E-03 0. -1.
         11   -1    0    0    0    0 -0.00000000000E+00 -0.00000000000E+00 -0.45593999997E+02  0.45594000000E+02  0.51100000000E-03 0.  1.
    9900012    2    1    2    0    0 -0.12353699999E+02  0.13684258282E+02  0.26016273984E+02  0.59301963238E+02  0.50000035034E+02 0.  0.
        -12    1    1    2    0    0  0.12353699999E+02 -0.13684258282E+02 -0.26016273984E+02  0.31886036762E+02  0.00000000000E+00 0.  1.
         11    1    3    3    0    0  0.10898868174E+02  0.20399513089E+02  0.93448815279E+01  0.24944984923E+02  0.51100000000E-03 0. -1.
        -11    1    3    3    0    0 -0.12294526480E+02 -0.11325878311E+02  0.44310615390E+01  0.17293501887E+02  0.51100000000E-03 0.  1.
         12    1    3    3    0    0 -0.10958041693E+02  0.46106235040E+01  0.12240330918E+02  0.17063476428E+02  0.00000000000E+00 0. -1.
</event>
<event>
 7    1  0.5987893E-013  0.5930195E+02  0.7816164E-02  0.1266605E+00
        -11   -1    0    0    0    0  0.00000000000E+00  0.00000000000E+00  0.45593999997E+02  0.45594000000E+02  0.51100000000E-03 0. -1.
         11   -1    0    0    0    0 -0.00000000000E+00 -0.00000000000E+00 -0.45593999997E+02  0.45594000000E+02  0.51100000000E-03 0.  1.
    9900012    2    1    2    0    0  0.11978581264E+02 -0.24859732991E+02  0.15975833970E+02  0.59301952823E+02  0.50000016041E+02 0.  0.
        -12    1    1    2    0    0 -0.11978581264E+02  0.24859732991E+02 -0.15975833970E+02  0.31886047177E+02  0.00000000000E+00 0.  1.
         11    1    3    3    0    0 -0.96686950388E+01 -0.66111217043E+01  0.22751511822E+02  0.25589487771E+02  0.51100000000E-03 0. -1.
        -11    1    3    3    0    0  0.22804605345E+02 -0.11977811674E+02 -0.84679754047E+01  0.27115025450E+02  0.51100000000E-03 0.  1.
        -12    1    3    3    0    0 -0.11573290417E+01 -0.62707996128E+01  0.16922975528E+01  0.65974396020E+01  0.00000000000E+00 0.  1.
</event>
<event>
 7    1  0.5987893E-013  0.5930196E+02  0.7816164E-02  0.1266605E+00
        -11   -1    0    0    0    0  0.00000000000E+00  0.00000000000E+00  0.45593999997E+02  0.45594000000E+02  0.51100000000E-03 0.  1.
         11   -1    0    0    0    0 -0.00000000000E+00 -0.00000000000E+00 -0.45593999997E+02  0.45594000000E+02  0.51100000000E-03 0. -1.
    9900012    2    1    2    0    0 -0.29608011534E+02  0.65727733707E+01 -0.98429740544E+01  0.59301955482E+02  0.50000020889E+02 0.  0.
        -12    1    1    2    0    0  0.29608011534E+02 -0.65727733707E+01  0.98429740544E+01  0.31886044518E+02  0.00000000000E+00 0.  1.
         11    1    3    3    0    0 -0.21928556072E+02 -0.16901934727E+01  0.73245571424E+01  0.23181187696E+02  0.51100000000E-03 0. -1.
        -11    1    3    3    0    0 -0.10330258844E+02  0.18372749244E+02 -0.13566119500E+02  0.25066147712E+02  0.51100000000E-03 0.  1.
        -12    1    3    3    0    0  0.26508033826E+01 -0.10109782401E+02 -0.36014116969E+01  0.11054620074E+02  0.00000000000E+00 0.  1.
</event>
<event>
 7    1  0.5987893E-013  0.5930194E+02  0.7816164E-02  0.1266605E+00
        -11   -1    0    0    0    0  0.00000000000E+00  0.00000000000E+00  0.45593999997E+02  0.45594000000E+02  0.51100000000E-03 0.  1.
         11   -1    0    0    0    0 -0.00000000000E+00 -0.00000000000E+00 -0.45593999997E+02  0.45594000000E+02  0.51100000000E-03 0. -1.
    9900012    2    1    2    0    0  0.31174314621E+01  0.14873975229E+02 -0.28031545257E+02  0.59301936469E+02  0.49999986214E+02 0.  0.
        -12    1    1    2    0    0 -0.31174314621E+01 -0.14873975229E+02  0.28031545257E+02  0.31886063531E+02  0.00000000000E+00 0.  1.
         11    1    3    3    0    0  0.12104808845E+02  0.24082578855E+02 -0.10656120824E+02  0.28983614556E+02  0.51100000000E-03 0. -1.
        -11    1    3    3    0    0 -0.13915538484E+02 -0.91690945518E+01 -0.56453754846E+01  0.17595021194E+02  0.51100000000E-03 0.  1.
         12    1    3    3    0    0  0.49281611019E+01 -0.39509074362E-01 -0.11730048949E+02  0.12723300718E+02  0.00000000000E+00 0. -1.
</event>
<event>
 7    1  0.5987893E-013  0.5930195E+02  0.7816164E-02  0.1266605E+00
        -11   -1    0    0    0    0  0.00000000000E+00  0.00000000000E+00  0.45593999997E+02  0.45594000000E+02  0.51100000000E-03 0. -1.
         11   -1    0    0    0    0 -0.00000000000E+00 -0.00000000000E+00 -0.45593999997E+02  0.45594000000E+02  0.51100000000E-03 0.  1.
    9900012    2    1    2    0    0 -0.15172192961E+02 -0.14363306056E+02  0.24087754504E+02  0.59301954194E+02  0.50000018541E+02 0.  0.
        -12    1    1    2    0    0  0.15172192961E+02  0.14363306056E+02 -0.24087754504E+02  0.31886045806E+02  0.00000000000E+00 0.  1.
         11    1    3    3    0    0 -0.20430588600E+02  0.91773982951E+01  0.25761507326E+02  0.34136327424E+02  0.51100000000E-03 0. -1.
        -11    1    3    3    0    0 -0.50938709094E+00 -0.10582273554E+02 -0.27351257703E+01  0.10941887498E+02  0.51100000000E-03 0.  1.
         12    1    3    3    0    0  0.57677827301E+01 -0.12958430797E+02  0.10613729481E+01  0.14223739272E+02  0.00000000000E+00 0. -1.
</event>
<event>
 7    1  0.5987893E-013  0.5930181E+02  0.7816164E-02  0.1266605E+00
        -11   -1    0    0    0    0  0.00000000000E+00  0.00000000000E+00  0.45593999997E+02  0.45594000000E+02  0.51100000000E-03 0.  1.
         11   -1    0    0    0    0 -0.00000000000E+00 -0.00000000000E+00 -0.45593999997E+02  0.45594000000E+02  0.51100000000E-03 0. -1.
    9900012    2    1    2    0    0  0.16851649474E+02  0.19651403074E+02 -0.18616474337E+02  0.59301814127E+02  0.49999763092E+02 0.  0.
        -12    1    1    2    0    0 -0.16851649474E+02 -0.19651403074E+02  0.18616474337E+02  0.31886185873E+02  0.00000000000E+00 0.  1.
         11    1    3    3    0    0  0.31837241021E+02  0.36071030123E+01 -0.13852098445E+02  0.34907044269E+02  0.51100000000E-03 0. -1.
        -11    1    3    3    0    0 -0.88356682070E+00  0.13375479922E+01  0.23225919591E+01  0.28220840929E+01  0.51100000000E-03 0.  1.
         12    1    3    3    0    0 -0.14102024726E+02  0.14706752070E+02 -0.70869678506E+01  0.21572685766E+02  0.00000000000E+00 0. -1.
</event>
<event>
 7    1  0.5987893E-013  0.5930188E+02  0.7816164E-02  0.1266605E+00
        -11   -1    0    0    0    0  0.00000000000E+00  0.00000000000E+00  0.45593999997E+02  0.45594000000E+02  0.51100000000E-03 0. -1.
         11   -1    0    0    0    0 -0.00000000000E+00 -0.00000000000E+00 -0.45593999997E+02  0.45594000000E+02  0.51100000000E-03 0.  1.
    9900012    2    1    2    0    0  0.13764767991E+02  0.18451900610E+02  0.22063158979E+02  0.59301882988E+02  0.49999888678E+02 0.  0.
        -12    1    1    2    0    0 -0.13764767991E+02 -0.18451900610E+02 -0.22063158979E+02  0.31886117012E+02  0.00000000000E+00 0.  1.
         11    1    3    3    0    0  0.79390651088E+01  0.11289794307E+02 -0.22737504509E+00  0.13803619451E+02  0.51100000000E-03 0. -1.
        -11    1    3    3    0    0 -0.14189998985E+02  0.36565645256E+01 -0.87955331525E+00  0.14679923352E+02  0.51100000000E-03 0.  1.
        -12    1    3    3    0    0  0.20015701868E+02  0.35055417777E+01  0.23170087339E+02  0.30818340184E+02  0.00000000000E+00 0.  1.
</event>
<event>
 7    1  0.5987893E-013  0.5930192E+02  0.7816164E-02  0.1266605E+00
        -11   -1    0    0    0    0  0.00000000000E+00  0.00000000000E+00  0.45593999997E+02  0.45594000000E+02  0.51100000000E-03 0.  1.
         11   -1    0    0    0    0 -0.00000000000E+00 -0.00000000000E+00 -0.45593999997E+02  0.45594000000E+02  0.51100000000E-03 0. -1.
    9900012    2    1    2    0    0  0.30213984218E+02  0.18056653163E+01 -0.10028795603E+02  0.59301921364E+02  0.49999958667E+02 0.  0.
        -12    1    1    2    0    0 -0.30213984218E+02 -0.18056653163E+01  0.10028795603E+02  0.31886078636E+02  0.00000000000E+00 0.  1.
         11    1    3    3    0    0  0.77195006689E+01  0.20122786060E+02 -0.11757316325E+02  0.24551001952E+02  0.51100000000E-03 0. -1.
        -11    1    3    3    0    0  0.98460184794E+01 -0.19645298133E+02  0.59708273123E+00  0.21982682427E+02  0.51100000000E-03 0.  1.
        -12    1    3    3    0    0  0.12648465069E+02  0.13281773893E+01  0.11314379910E+01  0.12768236985E+02  0.00000000000E+00 0.  1.
</event>
<event>
 7    1  0.5987893E-013  0.5930195E+02  0.7816164E-02  0.1266605E+00
        -11   -1    0    0    0    0  0.00000000000E+00  0.00000000000E+00  0.45593999997E+02  0.45594000000E+02  0.51100000000E-03 0.  1.
         11   -1    0    0    0    0 -0.00000000000E+00 -0.00000000000E+00 -0.45593999997E+02  0.45594000000E+02  0.51100000000E-03 0. -1.
    9900012    2    1    2    0    0 -0.57688170150E+01  0.31223659985E+02  0.29196379675E+01  0.59301945392E+02  0.50000002488E+02 0.  0.
        -12    1    1    2    0    0  0.57688170150E+01 -0.31223659985E+02 -0.29196379675E+01  0.31886054608E+02  0.00000000000E+00 0.  1.
         11    1    3    3    0    0 -0.16884559586E+02  0.13359600465E+02 -0.14743071977E+02  0.26094548254E+02  0.51100000000E-03 0. -1.
        -11    1    3    3    0    0  0.13805438368E+02  0.47822941043E+01  0.74854880503E+01  0.16416241867E+02  0.51100000000E-03 0.  1.
        -12    1    3    3    0    0 -0.26896957973E+01  0.13081765415E+02  0.10177221894E+02  0.16791155271E+02  0.00000000000E+00 0.  1.
</event>
<event>
 7    1  0.5987893E-013  0.5930194E+02  0.7816164E-02  0.1266605E+00
        -11   -1    0    0    0    0  0.00000000000E+00  0.00000000000E+00  0.45593999997E+02  0.45594000000E+02  0.51100000000E-03 0. -1.
         11   -1    0    0    0    0 -0.00000000000E+00 -0.00000000000E+00 -0.45593999997E+02  0.45594000000E+02  0.51100000000E-03 0.  1.
    9900012    2    1    2    0    0 -0.14038681118E+02 -0.16124473728E+02  0.23656661458E+02  0.59301939537E+02  0.49999991810E+02 0.  0.
        -12    1    1    2    0    0  0.14038681118E+02  0.16124473728E+02 -0.23656661458E+02  0.31886060463E+02  0.00000000000E+00 0.  1.
         11    1    3    3    0    0 -0.45063172211E+01 -0.28869839641E+00 -0.10474515463E+02  0.11406389267E+02  0.51100000000E-03 0.  1.
        -11    1    3    3    0    0 -0.11988236256E+02 -0.22971796595E+02  0.24507040521E+02  0.35665337272E+02  0.51100000000E-03 0. -1.
        -12    1    3    3    0    0  0.24558723599E+01  0.71360212641E+01  0.96241363998E+01  0.12230212998E+02  0.00000000000E+00 0.  1.
</event>
<event>
 7    1  0.5987893E-013  0.5930192E+02  0.7816164E-02  0.1266605E+00
        -11   -1    0    0    0    0  0.00000000000E+00  0.00000000000E+00  0.45593999997E+02  0.45594000000E+02  0.51100000000E-03 0.  1.
         11   -1    0    0    0    0 -0.00000000000E+00 -0.00000000000E+00 -0.45593999997E+02  0.45594000000E+02  0.51100000000E-03 0. -1.
    9900012    2    1    2    0    0 -0.14633077316E+02 -0.22269232850E+02  0.17512174648E+02  0.59301922405E+02  0.49999960566E+02 0.  0.
        -12    1    1    2    0    0  0.14633077316E+02  0.22269232850E+02 -0.17512174648E+02  0.31886077595E+02  0.00000000000E+00 0.  1.
         11    1    3    3    0    0 -0.72623276491E+01 -0.82974563585E+00 -0.13540338550E+02  0.15387353542E+02  0.51100000000E-03 0. -1.
        -11    1    3    3    0    0 -0.13491225828E+02 -0.18789261571E+02  0.28657403517E+02  0.36827928279E+02  0.51100000000E-03 0.  1.
        -12    1    3    3    0    0  0.61204761607E+01 -0.26502256431E+01  0.23951096809E+01  0.70866405847E+01  0.00000000000E+00 0.  1.
</event>
<event>
 7    1  0.5987893E-013  0.5930195E+02  0.7816164E-02  0.1266605E+00
        -11   -1    0    0    0    0  0.00000000000E+00  0.00000000000E+00  0.45593999997E+02  0.45594000000E+02  0.51100000000E-03 0.  1.
         11   -1    0    0    0    0 -0.00000000000E+00 -0.00000000000E+00 -0.45593999997E+02  0.45594000000E+02  0.51100000000E-03 0. -1.
    9900012    2    1    2    0    0 -0.26647030916E+02 -0.10720617986E+02 -0.13846446332E+02  0.59301953167E+02  0.50000016668E+02 0.  0.
        -12    1    1    2    0    0  0.26647030916E+02  0.10720617986E+02  0.13846446332E+02  0.31886046833E+02  0.00000000000E+00 0.  1.
         11    1    3    3    0    0 -0.28428429084E+01 -0.88840042755E+01 -0.25423097307E+02  0.27080272611E+02  0.51100000000E-03 0. -1.
        -11    1    3    3    0    0 -0.21099699823E+02  0.53056041580E+01  0.54446794055E+01  0.22427467583E+02  0.51100000000E-03 0.  1.
        -12    1    3    3    0    0 -0.27044881842E+01 -0.71422178681E+01  0.61319715698E+01  0.97942129723E+01  0.00000000000E+00 0.  1.
</event>
<event>
 7    1  0.5987893E-013  0.5930195E+02  0.7816164E-02  0.1266605E+00
        -11   -1    0    0    0    0  0.00000000000E+00  0.00000000000E+00  0.45593999997E+02  0.45594000000E+02  0.51100000000E-03 0. -1.
         11   -1    0    0    0    0 -0.00000000000E+00 -0.00000000000E+00 -0.45593999997E+02  0.45594000000E+02  0.51100000000E-03 0.  1.
    9900012    2    1    2    0    0 -0.38362148762E+01  0.30748951726E+02  0.75170364879E+01  0.59301946397E+02  0.50000004321E+02 0.  0.
        -12    1    1    2    0    0  0.38362148762E+01 -0.30748951726E+02 -0.75170364879E+01  0.31886053603E+02  0.00000000000E+00 0.  1.
         11    1    3    3    0    0 -0.13954340544E+02  0.32873346963E+02  0.15596310043E+02  0.38969545132E+02  0.51100000000E-03 0.  1.
        -11    1    3    3    0    0  0.11131366919E+02 -0.66621649293E+01 -0.27518817372E+01  0.13261396019E+02  0.51100000000E-03 0. -1.
        -12    1    3    3    0    0 -0.10132412507E+01  0.45377696919E+01 -0.53273918177E+01  0.70710052459E+01  0.00000000000E+00 0.  1.
</event>
<event>
 7    1  0.5987893E-013  0.5930195E+02  0.7816164E-02  0.1266605E+00
        -11   -1    0    0    0    0  0.00000000000E+00  0.00000000000E+00  0.45593999997E+02  0.45594000000E+02  0.51100000000E-03 0. -1.
         11   -1    0    0    0    0 -0.00000000000E+00 -0.00000000000E+00 -0.45593999997E+02  0.45594000000E+02  0.51100000000E-03 0.  1.
    9900012    2    1    2    0    0  0.18138914893E+02  0.14475053975E+02  0.21867164200E+02  0.59301948328E+02  0.50000007842E+02 0.  0.
        -12    1    1    2    0    0 -0.18138914893E+02 -0.14475053975E+02 -0.21867164200E+02  0.31886051672E+02  0.00000000000E+00 0.  1.
         11    1    3    3    0    0  0.89517318575E+01 -0.98181850228E+01  0.11832217738E+02  0.17791336017E+02  0.51100000000E-03 0. -1.
        -11    1    3    3    0    0  0.10786187276E+02  0.14995576328E+02 -0.87880031401E+01  0.20455760676E+02  0.51100000000E-03 0.  1.
         12    1    3    3    0    0 -0.15990042406E+01  0.92976626699E+01  0.18822949602E+02  0.21054851636E+02  0.00000000000E+00 0. -1.
</event>
<event>
 7    1  0.5987893E-013  0.5930194E+02  0.7816164E-02  0.1266605E+00
        -11   -1    0    0    0    0  0.00000000000E+00  0.00000000000E+00  0.45593999997E+02  0.45594000000E+02  0.51100000000E-03 0.  1.
         11   -1    0    0    0    0 -0.00000000000E+00 -0.00000000000E+00 -0.45593999997E+02  0.45594000000E+02  0.51100000000E-03 0. -1.
    9900012    2    1    2    0    0 -0.30804777018E+02 -0.34912808689E+01 -0.74563826827E+01  0.59301937654E+02  0.49999988375E+02 0.  0.
        -12    1    1    2    0    0  0.30804777018E+02  0.34912808689E+01  0.74563826827E+01  0.31886062346E+02  0.00000000000E+00 0.  1.
         11    1    3    3    0    0 -0.23303436722E+02  0.74693897654E+01 -0.47449282930E+01  0.24927019302E+02  0.51100000000E-03 0. -1.
        -11    1    3    3    0    0  0.20523642416E+01 -0.77482664155E+01  0.13256810060E+02  0.15491637895E+02  0.51100000000E-03 0.  1.
        -12    1    3    3    0    0 -0.95537045381E+01 -0.32124042188E+01 -0.15968264450E+02  0.18883280457E+02  0.00000000000E+00 0.  1.
</event>
<event>
 7    1  0.5987893E-013  0.5930196E+02  0.7816164E-02  0.1266605E+00
        -11   -1    0    0    0    0  0.00000000000E+00  0.00000000000E+00  0.45593999997E+02  0.45594000000E+02  0.51100000000E-03 0. -1.
         11   -1    0    0    0    0 -0.00000000000E+00 -0.00000000000E+00 -0.45593999997E+02  0.45594000000E+02  0.51100000000E-03 0.  1.
    9900012    2    1    2    0    0 -0.14706848565E+02 -0.78506409633E+00  0.28280945868E+02  0.59301958861E+02  0.50000027052E+02 0.  0.
        -12    1    1    2    0    0  0.14706848565E+02  0.78506409633E+00 -0.28280945868E+02  0.31886041139E+02  0.00000000000E+00 0.  1.
         11    1    3    3    0    0 -0.10732541847E+02  0.16372708474E+02  0.34540594933E+02  0.39702716983E+02  0.51100000000E-03 0. -1.
        -11    1    3    3    0    0 -0.40668539552E+01 -0.51690671346E+01 -0.24673625379E+01  0.70247017225E+01  0.51100000000E-03 0.  1.
         12    1    3    3    0    0  0.92547237224E-01 -0.11988705435E+02 -0.37922865277E+01  0.12574540155E+02  0.00000000000E+00 0. -1.
</event>
<event>
 7    1  0.5987893E-013  0.5930194E+02  0.7816164E-02  0.1266605E+00
        -11   -1    0    0    0    0  0.00000000000E+00  0.00000000000E+00  0.45593999997E+02  0.45594000000E+02  0.51100000000E-03 0.  1.
         11   -1    0    0    0    0 -0.00000000000E+00 -0.00000000000E+00 -0.45593999997E+02  0.45594000000E+02  0.51100000000E-03 0. -1.
    9900012    2    1    2    0    0 -0.46891034027E+01 -0.50786642007E+01 -0.31127802668E+02  0.59301943177E+02  0.49999998449E+02 0.  0.
        -12    1    1    2    0    0  0.46891034027E+01  0.50786642007E+01  0.31127802668E+02  0.31886056823E+02  0.00000000000E+00 0.  1.
         11    1    3    3    0    0 -0.24975149795E+02 -0.12789411572E+02 -0.18453787199E+02  0.33583767178E+02  0.51100000000E-03 0. -1.
        -11    1    3    3    0    0  0.14830417981E+01  0.89433928003E+00  0.45866567409E+00  0.17915440783E+01  0.51100000000E-03 0.  1.
         12    1    3    3    0    0  0.18803004594E+02  0.68164080912E+01 -0.13132681143E+02  0.23926631920E+02  0.00000000000E+00 0. -1.
</event>
<event>
 7    1  0.5987893E-013  0.5930191E+02  0.7816164E-02  0.1266605E+00
        -11   -1    0    0    0    0  0.00000000000E+00  0.00000000000E+00  0.45593999997E+02  0.45594000000E+02  0.51100000000E-03 0.  1.
         11   -1    0    0    0    0 -0.00000000000E+00 -0.00000000000E+00 -0.45593999997E+02  0.45594000000E+02  0.51100000000E-03 0. -1.
    9900012    2    1    2    0    0  0.23589586542E+02 -0.21428320402E+02 -0.10398512750E+01  0.59301909002E+02  0.49999936122E+02 0.  0.
        -12    1    1    2    0    0 -0.23589586542E+02  0.21428320402E+02  0.10398512750E+01  0.31886090998E+02  0.00000000000E+00 0.  1.
         11    1    3    3    0    0  0.14307931939E+02 -0.83640640334E+00  0.72214725824E+01  0.16048867828E+02  0.51100000000E-03 0. -1.
        -11    1    3    3    0    0  0.15826772977E+02 -0.22364068538E+02 -0.16961035932E+02  0.32222896279E+02  0.51100000000E-03 0.  1.
        -12    1    3    3    0    0 -0.65451183744E+01  0.17721545401E+01  0.86997120742E+01  0.11030144896E+02  0.00000000000E+00 0.  1.
</event>
<event>
 7    1  0.5987893E-013  0.5930187E+02  0.7816164E-02  0.1266605E+00
        -11   -1    0    0    0    0  0.00000000000E+00  0.00000000000E+00  0.45593999997E+02  0.45594000000E+02  0.51100000000E-03 0. -1.
         11   -1    0    0    0    0 -0.00000000000E+00 -0.00000000000E+00 -0.45593999997E+02  0.45594000000E+02  0.51100000000E-03 0.  1.
    9900012    2    1    2    0    0  0.30746351087E+02  0.54197942902E+01  0.64817651285E+01  0.59301865796E+02  0.49999857324E+02 0.  0.
        -12    1    1    2    0    0 -0.30746351087E+02 -0.54197942902E+01 -0.64817651285E+01  0.31886134204E+02  0.00000000000E+00 0.  1.
         11    1    3    3    0    0  0.57762425257E+01  0.12539633121E+02  0.14966193317E+01  0.13886945172E+02  0.51100000000E-03 0. -1.
        -11    1    3    3    0    0  0.20526307517E+02 -0.70281546316E+01  0.20151346219E+02  0.29610825934E+02  0.51100000000E-03 0.  1.
        -12    1    3    3    0    0  0.44438010439E+01 -0.91684199666E-01 -0.15166200422E+02  0.15804094689E+02  0.00000000000E+00 0.  1.
</event>
<event>
 7    1  0.5987893E-013  0.5930195E+02  0.7816164E-02  0.1266605E+00
        -11   -1    0    0    0    0  0.00000000000E+00  0.00000000000E+00  0.45593999997E+02  0.45594000000E+02  0.51100000000E-03 0.  1.
         11   -1    0    0    0    0 -0.00000000000E+00 -0.00000000000E+00 -0.45593999997E+02  0.45594000000E+02  0.51100000000E-03 0. -1.
    9900012    2    1    2    0    0  0.21990423238E+02  0.11367083925E+02 -0.20098032765E+02  0.59301949254E+02  0.50000009532E+02 0.  0.
        -12    1    1    2    0    0 -0.21990423238E+02 -0.11367083925E+02  0.20098032765E+02  0.31886050746E+02  0.00000000000E+00 0.  1.
         11    1    3    3    0    0 -0.12497614923E+01  0.18351100676E+02 -0.15795331898E+02  0.24244944005E+02  0.51100000000E-03 0.  1.
        -11    1    3    3    0    0  0.27070856670E+02 -0.97289920361E+01 -0.70293237312E+01  0.29612429135E+02  0.51100000000E-03 0. -1.
         12    1    3    3    0    0 -0.38306719397E+01  0.27449752847E+01  0.27266228636E+01  0.54445761142E+01  0.00000000000E+00 0. -1.
</event>
<event>
 7    1  0.5987893E-013  0.5930195E+02  0.7816164E-02  0.1266605E+00
        -11   -1    0    0    0    0  0.00000000000E+00  0.00000000000E+00  0.45593999997E+02  0.45594000000E+02  0.51100000000E-03 0. -1.
         11   -1    0    0    0    0 -0.00000000000E+00 -0.00000000000E+00 -0.45593999997E+02  0.45594000000E+02  0.51100000000E-03 0.  1.
    9900012    2    1    2    0    0  0.31510837125E+02 -0.19088584444E+01  0.44881288213E+01  0.59301954506E+02  0.50000019111E+02 0.  0.
        -12    1    1    2    0    0 -0.31510837125E+02  0.19088584444E+01 -0.44881288213E+01  0.31886045494E+02  0.00000000000E+00 0.  1.
         11    1    3    3    0    0  0.30387817779E+02  0.56021292598E+01  0.13963685826E+02  0.33908521697E+02  0.51100000000E-03 0. -1.
        -11    1    3    3    0    0  0.45327439718E+01 -0.64542229830E+01 -0.16066475897E+02  0.17897888430E+02  0.51100000000E-03 0.  1.
        -12    1    3    3    0    0 -0.34097246251E+01 -0.10567647212E+01  0.65909188927E+01  0.74955443796E+01  0.00000000000E+00 0.  1.
</event>
<event>
 7    1  0.5987893E-013  0.5930195E+02  0.7816164E-02  0.1266605E+00
        -11   -1    0    0    0    0  0.00000000000E+00  0.00000000000E+00  0.45593999997E+02  0.45594000000E+02  0.51100000000E-03 0.  1.
         11   -1    0    0    0    0 -0.00000000000E+00 -0.00000000000E+00 -0.45593999997E+02  0.45594000000E+02  0.51100000000E-03 0. -1.
    9900012    2    1    2    0    0  0.20711280006E+02  0.19097410198E+02 -0.14934935681E+02  0.59301945061E+02  0.50000001885E+02 0.  0.
        -12    1    1    2    0    0 -0.20711280006E+02 -0.19097410198E+02  0.14934935681E+02  0.31886054939E+02  0.00000000000E+00 0.  1.
         11    1    3    3    0    0  0.16830489656E+02 -0.33523730211E+01 -0.14749092046E+02  0.22628289891E+02  0.51100000000E-03 0. -1.
        -11    1    3    3    0    0 -0.17370375452E+01  0.17474831232E+01  0.11831826754E+02  0.12085657669E+02  0.51100000000E-03 0.  1.
         12    1    3    3    0    0  0.56178278949E+01  0.20702300096E+02 -0.12017670389E+02  0.24587997501E+02  0.00000000000E+00 0. -1.
</event>
<event>
 7    1  0.5987893E-013  0.5930193E+02  0.7816164E-02  0.1266605E+00
        -11   -1    0    0    0    0  0.00000000000E+00  0.00000000000E+00  0.45593999997E+02  0.45594000000E+02  0.51100000000E-03 0. -1.
         11   -1    0    0    0    0 -0.00000000000E+00 -0.00000000000E+00 -0.45593999997E+02  0.45594000000E+02  0.51100000000E-03 0.  1.
    9900012    2    1    2    0    0  0.16294403603E+02  0.10191326888E+02  0.25443092412E+02  0.59301926488E+02  0.49999968011E+02 0.  0.
        -12    1    1    2    0    0 -0.16294403603E+02 -0.10191326888E+02 -0.25443092412E+02  0.31886073512E+02  0.00000000000E+00 0.  1.
         11    1    3    3    0    0 -0.96737029845E+01  0.92325236973E+01 -0.47075896572E+01  0.14176791735E+02  0.51100000000E-03 0.  1.
        -11    1    3    3    0    0  0.74734118338E+01  0.89515072204E+01  0.18449776723E+02  0.21826030957E+02  0.51100000000E-03 0. -1.
         12    1    3    3    0    0  0.18494694754E+02 -0.79927040301E+01  0.11700905347E+02  0.23299103796E+02  0.00000000000E+00 0. -1.
</event>
<event>
 7    1  0.5987893E-013  0.5930188E+02  0.7816164E-02  0.1266605E+00
        -11   -1    0    0    0    0  0.00000000000E+00  0.00000000000E+00  0.45593999997E+02  0.45594000000E+02  0.51100000000E-03 0. -1.
         11   -1    0    0    0    0 -0.00000000000E+00 -0.00000000000E+00 -0.45593999997E+02  0.45594000000E+02  0.51100000000E-03 0.  1.
    9900012    2    1    2    0    0 -0.86384899858E+01 -0.30663688173E+02 -0.13561284990E+01  0.59301884430E+02  0.49999891308E+02 0.  0.
        -12    1    1    2    0    0  0.86384899858E+01  0.30663688173E+02  0.13561284990E+01  0.31886115570E+02  0.00000000000E+00 0.  1.
         11    1    3    3    0    0 -0.16310200974E+02  0.88429117291E+00  0.95433012980E+01  0.18917696123E+02  0.51100000000E-03 0. -1.
        -11    1    3    3    0    0  0.25439743030E+01 -0.16223133946E+02 -0.16502157375E+02  0.23280530032E+02  0.51100000000E-03 0.  1.
        -12    1    3    3    0    0  0.51277366852E+01 -0.15324845400E+02  0.56027275780E+01  0.17103658274E+02  0.00000000000E+00 0.  1.
</event>
<event>
 7    1  0.5987893E-013  0.5930198E+02  0.7816164E-02  0.1266605E+00
        -11   -1    0    0    0    0  0.00000000000E+00  0.00000000000E+00  0.45593999997E+02  0.45594000000E+02  0.51100000000E-03 0.  1.
         11   -1    0    0    0    0 -0.00000000000E+00 -0.00000000000E+00 -0.45593999997E+02  0.45594000000E+02  0.51100000000E-03 0. -1.
    9900012    2    1    2    0    0  0.20954327712E+02 -0.53263133957E+01 -0.23436404049E+02  0.59301976432E+02  0.50000059097E+02 0.  0.
        -12    1    1    2    0    0 -0.20954327712E+02  0.53263133957E+01  0.23436404049E+02  0.31886023568E+02  0.00000000000E+00 0.  1.
         11    1    3    3    0    0  0.31370882292E+02 -0.20440190389E+01 -0.15181174498E+02  0.34911005843E+02  0.51100000000E-03 0. -1.
        -11    1    3    3    0    0 -0.10962067578E+02  0.51482753886E+01 -0.10069534933E+02  0.15750149176E+02  0.51100000000E-03 0.  1.
        -12    1    3    3    0    0  0.54551299803E+00 -0.84305697454E+01  0.18143053817E+01  0.86408214124E+01  0.00000000000E+00 0.  1.
</event>
<event>
 7    1  0.5987893E-013  0.5930195E+02  0.7816164E-02  0.1266605E+00
        -11   -1    0    0    0    0  0.00000000000E+00  0.00000000000E+00  0.45593999997E+02  0.45594000000E+02  0.51100000000E-03 0.  1.
         11   -1    0    0    0    0 -0.00000000000E+00 -0.00000000000E+00 -0.45593999997E+02  0.45594000000E+02  0.51100000000E-03 0. -1.
    9900012    2    1    2    0    0 -0.21510642653E+02 -0.14658463605E+02 -0.18415806312E+02  0.59301949370E+02  0.50000009743E+02 0.  0.
        -12    1    1    2    0    0  0.21510642653E+02  0.14658463605E+02  0.18415806312E+02  0.31886050630E+02  0.00000000000E+00 0.  1.
         11    1    3    3    0    0 -0.21383559030E+02 -0.41780637391E+01 -0.15302581003E+02  0.26624834253E+02  0.51100000000E-03 0. -1.
        -11    1    3    3    0    0  0.12737145510E+02 -0.13650503029E+01 -0.92054890152E+01  0.15774639975E+02  0.51100000000E-03 0.  1.
        -12    1    3    3    0    0 -0.12864229134E+02 -0.91153495634E+01  0.60922637056E+01  0.16902475142E+02  0.00000000000E+00 0.  1.
</event>
<event>
 7    1  0.5987893E-013  0.5930195E+02  0.7816164E-02  0.1266605E+00
        -11   -1    0    0    0    0  0.00000000000E+00  0.00000000000E+00  0.45593999997E+02  0.45594000000E+02  0.51100000000E-03 0. -1.
         11   -1    0    0    0    0 -0.00000000000E+00 -0.00000000000E+00 -0.45593999997E+02  0.45594000000E+02  0.51100000000E-03 0.  1.
    9900012    2    1    2    0    0 -0.18646589352E+02 -0.17056343305E+02  0.19444953111E+02  0.59301947518E+02  0.50000006365E+02 0.  0.
        -12    1    1    2    0    0  0.18646589352E+02  0.17056343305E+02 -0.19444953111E+02  0.31886052482E+02  0.00000000000E+00 0.  1.
         11    1    3    3    0    0  0.84267485492E+01 -0.17351262226E+01  0.15239670306E+02  0.17500523004E+02  0.51100000000E-03 0. -1.
        -11    1    3    3    0    0 -0.30280638731E+02 -0.18021339653E+02 -0.83236642960E+00  0.35247391379E+02  0.51100000000E-03 0.  1.
        -12    1    3    3    0    0  0.32073008306E+01  0.27001225713E+01  0.50376492351E+01  0.65540331350E+01  0.00000000000E+00 0.  1.
</event>
<event>
 7    1  0.5987893E-013  0.5930194E+02  0.7816164E-02  0.1266605E+00
        -11   -1    0    0    0    0  0.00000000000E+00  0.00000000000E+00  0.45593999997E+02  0.45594000000E+02  0.51100000000E-03 0. -1.
         11   -1    0    0    0    0 -0.00000000000E+00 -0.00000000000E+00 -0.45593999997E+02  0.45594000000E+02  0.51100000000E-03 0.  1.
    9900012    2    1    2    0    0 -0.18375900632E+02 -0.12832720366E+02  0.22679691650E+02  0.59301939576E+02  0.49999991880E+02 0.  0.
        -12    1    1    2    0    0  0.18375900632E+02  0.12832720366E+02 -0.22679691650E+02  0.31886060424E+02  0.00000000000E+00 0.  1.
         11    1    3    3    0    0  0.14537004266E+01 -0.12850742661E+02  0.25891884269E+02  0.28942088783E+02  0.51100000000E-03 0. -1.
        -11    1    3    3    0    0 -0.68015524670E+01  0.11143059896E+02 -0.11822198789E+01  0.13108262429E+02  0.51100000000E-03 0.  1.
         12    1    3    3    0    0 -0.13028048592E+02 -0.11125037601E+02 -0.20299727399E+01  0.17251588363E+02  0.00000000000E+00 0. -1.
</event>
<event>
 7    1  0.5987893E-013  0.5930195E+02  0.7816164E-02  0.1266605E+00
        -11   -1    0    0    0    0  0.00000000000E+00  0.00000000000E+00  0.45593999997E+02  0.45594000000E+02  0.51100000000E-03 0. -1.
         11   -1    0    0    0    0 -0.00000000000E+00 -0.00000000000E+00 -0.45593999997E+02  0.45594000000E+02  0.51100000000E-03 0.  1.
    9900012    2    1    2    0    0  0.30094981411E+02  0.10521197607E+02 -0.56266907868E+00  0.59301951300E+02  0.50000013263E+02 0.  0.
        -12    1    1    2    0    0 -0.30094981411E+02 -0.10521197607E+02  0.56266907868E+00  0.31886048700E+02  0.00000000000E+00 0.  1.
         11    1    3    3    0    0  0.63407094881E+01 -0.23230830008E+01  0.75103474898E+01  0.10099833222E+02  0.51100000000E-03 0. -1.
        -11    1    3    3    0    0  0.23127450925E+02 -0.62947089570E+01 -0.15631097159E+02  0.28615267704E+02  0.51100000000E-03 0.  1.
        -12    1    3    3    0    0  0.62682099804E+00  0.19138989564E+02  0.75580805901E+01  0.20586850374E+02  0.00000000000E+00 0.  1.
</event>
<event>
 7    1  0.5987893E-013  0.5930193E+02  0.7816164E-02  0.1266605E+00
        -11   -1    0    0    0    0  0.00000000000E+00  0.00000000000E+00  0.45593999997E+02  0.45594000000E+02  0.51100000000E-03 0.  1.
         11   -1    0    0    0    0 -0.00000000000E+00 -0.00000000000E+00 -0.45593999997E+02  0.45594000000E+02  0.51100000000E-03 0. -1.
    9900012    2    1    2    0    0 -0.32277529327E+01 -0.19177132742E+02 -0.25269359847E+02  0.59301931627E+02  0.49999977384E+02 0.  0.
        -12    1    1    2    0    0  0.32277529327E+01  0.19177132742E+02  0.25269359847E+02  0.31886068373E+02  0.00000000000E+00 0.  1.
         11    1    3    3    0    0  0.20167752661E+02 -0.11212112262E+02 -0.80405018636E+01  0.24435617022E+02  0.51100000000E-03 0.  1.
        -11    1    3    3    0    0 -0.18801505508E+02 -0.11540082152E+02 -0.18634803171E+02  0.28877776835E+02  0.51100000000E-03 0. -1.
        -12    1    3    3    0    0 -0.45940000858E+01  0.35750616725E+01  0.14059451869E+01  0.59885377696E+01  0.00000000000E+00 0.  1.
</event>
<event>
 7    1  0.5987893E-013  0.5930195E+02  0.7816164E-02  0.1266605E+00
        -11   -1    0    0    0    0  0.00000000000E+00  0.00000000000E+00  0.45593999997E+02  0.45594000000E+02  0.51100000000E-03 0.  1.
         11   -1    0    0    0    0 -0.00000000000E+00 -0.00000000000E+00 -0.45593999997E+02  0.45594000000E+02  0.51100000000E-03 0. -1.
    9900012    2    1    2    0    0  0.67184264299E+00 -0.69374117857E+01 -0.31114969337E+02  0.59301947067E+02  0.50000005542E+02 0.  0.
        -12    1    1    2    0    0 -0.67184264299E+00  0.69374117857E+01  0.31114969337E+02  0.31886052933E+02  0.00000000000E+00 0.  1.
         11    1    3    3    0    0  0.15717609739E+02 -0.10778715555E+02 -0.27998099314E+02  0.33869123555E+02  0.51100000000E-03 0.  1.
        -11    1    3    3    0    0 -0.35448676729E+01 -0.19439307756E+01  0.76482589050E+01  0.86510587917E+01  0.51100000000E-03 0. -1.
         12    1    3    3    0    0 -0.11500899423E+02  0.57852345451E+01 -0.10765128928E+02  0.16781764720E+02  0.00000000000E+00 0. -1.
</event>
<event>
 7    1  0.5987893E-013  0.5930194E+02  0.7816164E-02  0.1266605E+00
        -11   -1    0    0    0    0  0.00000000000E+00  0.00000000000E+00  0.45593999997E+02  0.45594000000E+02  0.51100000000E-03 0. -1.
         11   -1    0    0    0    0 -0.00000000000E+00 -0.00000000000E+00 -0.45593999997E+02  0.45594000000E+02  0.51100000000E-03 0.  1.
    9900012    2    1    2    0    0 -0.10638940374E+02 -0.28555044345E+02  0.93884778039E+01  0.59301935249E+02  0.49999983990E+02 0.  0.
        -12    1    1    2    0    0  0.10638940374E+02  0.28555044345E+02 -0.93884778039E+01  0.31886064751E+02  0.00000000000E+00 0.  1.
         11    1    3    3    0    0 -0.10939603974E+02 -0.19290688247E+02  0.24520295019E+02  0.33061313589E+02  0.51100000000E-03 0. -1.
        -11    1    3    3    0    0 -0.57380525371E+01  0.35782638813E+01 -0.76047305421E+01  0.10176499703E+02  0.51100000000E-03 0.  1.
         12    1    3    3    0    0  0.60387161364E+01 -0.12842619979E+02 -0.75270866728E+01  0.16064121958E+02  0.00000000000E+00 0. -1.
</event>
<event>
 7    1  0.5987893E-013  0.5930193E+02  0.7816164E-02  0.1266605E+00
        -11   -1    0    0    0    0  0.00000000000E+00  0.00000000000E+00  0.45593999997E+02  0.45594000000E+02  0.51100000000E-03 0.  1.
         11   -1    0    0    0    0 -0.00000000000E+00 -0.00000000000E+00 -0.45593999997E+02  0.45594000000E+02  0.51100000000E-03 0. -1.
    9900012    2    1    2    0    0  0.76338926807E+01 -0.19145194923E+02 -0.24329130092E+02  0.59301931300E+02  0.49999976788E+02 0.  0.
        -12    1    1    2    0    0 -0.76338926807E+01  0.19145194923E+02  0.24329130092E+02  0.31886068700E+02  0.00000000000E+00 0.  1.
         11    1    3    3    0    0  0.98254051820E+01 -0.26711982200E+01 -0.26685342117E+02  0.28561886686E+02  0.51100000000E-03 0. -1.
        -11    1    3    3    0    0 -0.12967861202E+02 -0.30314695299E+01  0.22790529262E+01  0.13511081162E+02  0.51100000000E-03 0.  1.
        -12    1    3    3    0    0  0.10776348700E+02 -0.13442527173E+02  0.77159098798E-01  0.17228963452E+02  0.00000000000E+00 0.  1.
</event>
<event>
 7    1  0.5987893E-013  0.5930203E+02  0.7816164E-02  0.1266604E+00
        -11   -1    0    0    0    0  0.00000000000E+00  0.00000000000E+00  0.45593999997E+02  0.45594000000E+02  0.51100000000E-03 0. -1.
         11   -1    0    0    0    0 -0.00000000000E+00 -0.00000000000E+00 -0.45593999997E+02  0.45594000000E+02  0.51100000000E-03 0.  1.
    9900012    2    1    2    0    0 -0.23341144296E+02 -0.12215161521E+02  0.17963744632E+02  0.59302026450E+02  0.50000150318E+02 0.  0.
        -12    1    1    2    0    0  0.23341144296E+02  0.12215161521E+02 -0.17963744632E+02  0.31885973550E+02  0.00000000000E+00 0.  1.
         11    1    3    3    0    0 -0.12467108913E+02  0.54020122570E+01  0.26339196250E+02  0.29637202979E+02  0.51100000000E-03 0. -1.
        -11    1    3    3    0    0  0.46354757004E+01  0.38257104202E+00 -0.75078219258E+00  0.47114403035E+01  0.51100000000E-03 0.  1.
         12    1    3    3    0    0 -0.15509511084E+02 -0.17999744820E+02 -0.76246694253E+01  0.24953383168E+02  0.00000000000E+00 0. -1.
</event>
<event>
 7    1  0.5987893E-013  0.5930195E+02  0.7816164E-02  0.1266605E+00
        -11   -1    0    0    0    0  0.00000000000E+00  0.00000000000E+00  0.45593999997E+02  0.45594000000E+02  0.51100000000E-03 0.  1.
         11   -1    0    0    0    0 -0.00000000000E+00 -0.00000000000E+00 -0.45593999997E+02  0.45594000000E+02  0.51100000000E-03 0. -1.
    9900012    2    1    2    0    0  0.14561685916E+02 -0.43669849122E+01 -0.28028675562E+02  0.59301954342E+02  0.50000018810E+02 0.  0.
        -12    1    1    2    0    0 -0.14561685916E+02  0.43669849122E+01  0.28028675562E+02  0.31886045658E+02  0.00000000000E+00 0.  1.
         11    1    3    3    0    0  0.42052830202E+01  0.15404218480E+02 -0.78886835628E+01  0.17810268972E+02  0.51100000000E-03 0. -1.
        -11    1    3    3    0    0  0.99567334399E+01 -0.12917524426E+02 -0.27154910742E+02  0.31676302748E+02  0.51100000000E-03 0.  1.
        -12    1    3    3    0    0  0.39966945616E+00 -0.68536789658E+01  0.70149187428E+01  0.98153826216E+01  0.00000000000E+00 0.  1.
</event>
<event>
 7    1  0.5987893E-013  0.5930196E+02  0.7816164E-02  0.1266605E+00
        -11   -1    0    0    0    0  0.00000000000E+00  0.00000000000E+00  0.45593999997E+02  0.45594000000E+02  0.51100000000E-03 0. -1.
         11   -1    0    0    0    0 -0.00000000000E+00 -0.00000000000E+00 -0.45593999997E+02  0.45594000000E+02  0.51100000000E-03 0.  1.
    9900012    2    1    2    0    0  0.26367548161E+02  0.13041634807E+02  0.12303983395E+02  0.59301955375E+02  0.50000020694E+02 0.  0.
        -12    1    1    2    0    0 -0.26367548161E+02 -0.13041634807E+02 -0.12303983395E+02  0.31886044625E+02  0.00000000000E+00 0.  1.
         11    1    3    3    0    0  0.15883510770E+02 -0.83402446897E+01  0.13557687571E+02  0.22486806986E+02  0.51100000000E-03 0. -1.
        -11    1    3    3    0    0  0.11497086122E+00  0.86862707035E+01 -0.13707873429E+02  0.16228687909E+02  0.51100000000E-03 0.  1.
         12    1    3    3    0    0  0.10369066530E+02  0.12695608793E+02  0.12454169253E+02  0.20586460480E+02  0.00000000000E+00 0. -1.
</event>
<event>
 7    1  0.5987893E-013  0.5930195E+02  0.7816164E-02  0.1266605E+00
        -11   -1    0    0    0    0  0.00000000000E+00  0.00000000000E+00  0.45593999997E+02  0.45594000000E+02  0.51100000000E-03 0. -1.
         11   -1    0    0    0    0 -0.00000000000E+00 -0.00000000000E+00 -0.45593999997E+02  0.45594000000E+02  0.51100000000E-03 0.  1.
    9900012    2    1    2    0    0 -0.24901403240E+02 -0.17931299370E+02  0.86665405056E+01  0.59301948116E+02  0.50000007456E+02 0.  0.
        -12    1    1    2    0    0  0.24901403240E+02  0.17931299370E+02 -0.86665405056E+01  0.31886051884E+02  0.00000000000E+00 0.  1.
         11    1    3    3    0    0 -0.10881877923E+02  0.30441519657E+01  0.10764716726E+02  0.15606449141E+02  0.51100000000E-03 0. -1.
        -11    1    3    3    0    0 -0.32341742375E+01 -0.29625405570E+02 -0.84684396340E+00  0.29813448026E+02  0.51100000000E-03 0.  1.
        -12    1    3    3    0    0 -0.10785351079E+02  0.86499542347E+01 -0.12513322570E+01  0.13882050950E+02  0.00000000000E+00 0.  1.
</event>
<event>
 7    1  0.5987893E-013  0.5930189E+02  0.7816164E-02  0.1266605E+00
        -11   -1    0    0    0    0  0.00000000000E+00  0.00000000000E+00  0.45593999997E+02  0.45594000000E+02  0.51100000000E-03 0. -1.
         11   -1    0    0    0    0 -0.00000000000E+00 -0.00000000000E+00 -0.45593999997E+02  0.45594000000E+02  0.51100000000E-03 0.  1.
    9900012    2    1    2    0    0 -0.31064451208E+01  0.91361362768E+00  0.31721277648E+02  0.59301887870E+02  0.49999897582E+02 0.  0.
        -12    1    1    2    0    0  0.31064451208E+01 -0.91361362768E+00 -0.31721277648E+02  0.31886112130E+02  0.00000000000E+00 0.  1.
         11    1    3    3    0    0  0.17644693584E+02 -0.65968915463E+01  0.22549070012E+02  0.29382218236E+02  0.51100000000E-03 0.  1.
        -11    1    3    3    0    0 -0.21837755357E+02  0.80613361841E+01  0.12467317549E+02  0.26406565609E+02  0.51100000000E-03 0. -1.
         12    1    3    3    0    0  0.10866166525E+01 -0.55083101005E+00 -0.32951099138E+01  0.35131040257E+01  0.00000000000E+00 0. -1.
</event>
<event>
 7    1  0.5987893E-013  0.5930196E+02  0.7816164E-02  0.1266605E+00
        -11   -1    0    0    0    0  0.00000000000E+00  0.00000000000E+00  0.45593999997E+02  0.45594000000E+02  0.51100000000E-03 0.  1.
         11   -1    0    0    0    0 -0.00000000000E+00 -0.00000000000E+00 -0.45593999997E+02  0.45594000000E+02  0.51100000000E-03 0. -1.
    9900012    2    1    2    0    0  0.42390427688E+01  0.41971436822E+01 -0.31323061334E+02  0.59301958069E+02  0.50000025608E+02 0.  0.
        -12    1    1    2    0    0 -0.42390427688E+01 -0.41971436822E+01  0.31323061334E+02  0.31886041931E+02  0.00000000000E+00 0.  1.
         11    1    3    3    0    0 -0.10879898188E+02  0.18517183732E+02 -0.29513586272E+02  0.36500822632E+02  0.51100000000E-03 0. -1.
        -11    1    3    3    0    0  0.48672827822E+01 -0.39660419982E+00  0.16757954946E+01  0.51629475471E+01  0.51100000000E-03 0.  1.
         12    1    3    3    0    0  0.10251658175E+02 -0.13923435850E+02 -0.34852705570E+01  0.17638187890E+02  0.00000000000E+00 0. -1.
</event>
<event>
 7    1  0.5987893E-013  0.5930194E+02  0.7816164E-02  0.1266605E+00
        -11   -1    0    0    0    0  0.00000000000E+00  0.00000000000E+00  0.45593999997E+02  0.45594000000E+02  0.51100000000E-03 0.  1.
         11   -1    0    0    0    0 -0.00000000000E+00 -0.00000000000E+00 -0.45593999997E+02  0.45594000000E+02  0.51100000000E-03 0. -1.
    9900012    2    1    2    0    0 -0.25842467129E+02 -0.57376931040E+00 -0.18669714464E+02  0.59301944165E+02  0.50000000250E+02 0.  0.
        -12    1    1    2    0    0  0.25842467129E+02  0.57376931040E+00  0.18669714464E+02  0.31886055835E+02  0.00000000000E+00 0.  1.
         11    1    3    3    0    0 -0.28461341187E+02  0.11222924327E+02 -0.23081571828E+02  0.38324416903E+02  0.51100000000E-03 0. -1.
        -11    1    3    3    0    0 -0.35071724516E+01 -0.76028821119E+01 -0.43972338635E+01  0.94572586369E+01  0.51100000000E-03 0.  1.
         12    1    3    3    0    0  0.61260465101E+01 -0.41938115251E+01  0.88090912271E+01  0.11520268625E+02  0.00000000000E+00 0. -1.
</event>
<event>
 7    1  0.5987893E-013  0.5930196E+02  0.7816164E-02  0.1266605E+00
        -11   -1    0    0    0    0  0.00000000000E+00  0.00000000000E+00  0.45593999997E+02  0.45594000000E+02  0.51100000000E-03 0.  1.
         11   -1    0    0    0    0 -0.00000000000E+00 -0.00000000000E+00 -0.45593999997E+02  0.45594000000E+02  0.51100000000E-03 0. -1.
    9900012    2    1    2    0    0 -0.78973191647E+01 -0.15349381737E+02 -0.26809484951E+02  0.59301958336E+02  0.50000026094E+02 0.  0.
        -12    1    1    2    0    0  0.78973191647E+01  0.15349381737E+02  0.26809484951E+02  0.31886041664E+02  0.00000000000E+00 0.  1.
         11    1    3    3    0    0 -0.17028522996E+02 -0.25742920335E+02 -0.15502361351E+02  0.34539712659E+02  0.51100000000E-03 0. -1.
        -11    1    3    3    0    0 -0.17884595395E+00  0.79357234192E+01  0.21418265094E+01  0.82216247250E+01  0.51100000000E-03 0.  1.
         12    1    3    3    0    0  0.93100497851E+01  0.24578151794E+01 -0.13448950109E+02  0.16540620952E+02  0.00000000000E+00 0. -1.
</event>
<event>
 7    1  0.5987893E-013  0.5930195E+02  0.7816164E-02  0.1266605E+00
        -11   -1    0    0    0    0  0.00000000000E+00  0.00000000000E+00  0.45593999997E+02  0.45594000000E+02  0.51100000000E-03 0.  1.
         11   -1    0    0    0    0 -0.00000000000E+00 -0.00000000000E+00 -0.45593999997E+02  0.45594000000E+02  0.51100000000E-03 0. -1.
    9900012    2    1    2    0    0  0.29443760113E+02  0.11765127532E+02  0.33714852595E+01  0.59301950570E+02  0.50000011931E+02 0.  0.
        -12    1    1    2    0    0 -0.29443760113E+02 -0.11765127532E+02 -0.33714852595E+01  0.31886049430E+02  0.00000000000E+00 0.  1.
         11    1    3    3    0    0  0.36379020023E+01 -0.99715214820E+01  0.10168652604E+02  0.14699219969E+02  0.51100000000E-03 0. -1.
        -11    1    3    3    0    0  0.23275698953E+02  0.17910941762E+02  0.68906353883E+01  0.30166883380E+02  0.51100000000E-03 0.  1.
        -12    1    3    3    0    0  0.25301591577E+01  0.38257072515E+01 -0.13687802733E+02  0.14435847221E+02  0.00000000000E+00 0.  1.
</event>
<event>
 7    1  0.5987893E-013  0.5930192E+02  0.7816164E-02  0.1266605E+00
        -11   -1    0    0    0    0  0.00000000000E+00  0.00000000000E+00  0.45593999997E+02  0.45594000000E+02  0.51100000000E-03 0.  1.
         11   -1    0    0    0    0 -0.00000000000E+00 -0.00000000000E+00 -0.45593999997E+02  0.45594000000E+02  0.51100000000E-03 0. -1.
    9900012    2    1    2    0    0  0.14458695534E+02  0.18649484883E+02  0.21444461588E+02  0.59301920032E+02  0.49999956237E+02 0.  0.
        -12    1    1    2    0    0 -0.14458695534E+02 -0.18649484883E+02 -0.21444461588E+02  0.31886079968E+02  0.00000000000E+00 0.  1.
         11    1    3    3    0    0  0.95667632839E+01 -0.30255763527E+00 -0.96792906045E+01  0.13612610614E+02  0.51100000000E-03 0. -1.
        -11    1    3    3    0    0  0.63712864595E+01 -0.15439354173E+01  0.22444461727E+02  0.23382277268E+02  0.51100000000E-03 0.  1.
         12    1    3    3    0    0 -0.14793542092E+01  0.20495977935E+02  0.86792904649E+01  0.22307032151E+02  0.00000000000E+00 0. -1.
</event>
<event>
 7    1  0.5987893E-013  0.5930196E+02  0.7816164E-02  0.1266605E+00
        -11   -1    0    0    0    0  0.00000000000E+00  0.00000000000E+00  0.45593999997E+02  0.45594000000E+02  0.51100000000E-03 0.  1.
         11   -1    0    0    0    0 -0.00000000000E+00 -0.00000000000E+00 -0.45593999997E+02  0.45594000000E+02  0.51100000000E-03 0. -1.
    9900012    2    1    2    0    0  0.25639515812E+02 -0.31394190614E-01 -0.18956105358E+02  0.59301957803E+02  0.50000025123E+02 0.  0.
        -12    1    1    2    0    0 -0.25639515812E+02  0.31394190614E-01  0.18956105358E+02  0.31886042197E+02  0.00000000000E+00 0.  1.
         11    1    3    3    0    0  0.30561415058E+02  0.95039256397E+01 -0.53617199889E+00  0.32009563783E+02  0.51100000000E-03 0. -1.
        -11    1    3    3    0    0  0.53768988433E+01 -0.48652702220E+01 -0.23111432921E+01  0.76107344640E+01  0.51100000000E-03 0.  1.
         12    1    3    3    0    0 -0.10298798090E+02 -0.46700496083E+01 -0.16108790067E+02  0.19681659555E+02  0.00000000000E+00 0. -1.
</event>
<event>
 7    1  0.5987893E-013  0.5930192E+02  0.7816164E-02  0.1266605E+00
        -11   -1    0    0    0    0  0.00000000000E+00  0.00000000000E+00  0.45593999997E+02  0.45594000000E+02  0.51100000000E-03 0. -1.
         11   -1    0    0    0    0 -0.00000000000E+00 -0.00000000000E+00 -0.45593999997E+02  0.45594000000E+02  0.51100000000E-03 0.  1.
    9900012    2    1    2    0    0 -0.12784148996E+02 -0.14134336721E+01  0.29176867174E+02  0.59301924068E+02  0.49999963597E+02 0.  0.
        -12    1    1    2    0    0  0.12784148996E+02  0.14134336721E+01 -0.29176867174E+02  0.31886075932E+02  0.00000000000E+00 0.  1.
         11    1    3    3    0    0 -0.35951464856E+00  0.16971913461E+02  0.29568823510E+01  0.17231315992E+02  0.51100000000E-03 0. -1.
        -11    1    3    3    0    0  0.90334486601E+00 -0.76358361664E+01 -0.29588977988E+01  0.82387561168E+01  0.51100000000E-03 0.  1.
         12    1    3    3    0    0 -0.13327979213E+02 -0.10749510967E+02  0.29178882622E+02  0.33831851959E+02  0.00000000000E+00 0. -1.
</event>
<event>
 7    1  0.5987893E-013  0.5930196E+02  0.7816164E-02  0.1266605E+00
        -11   -1    0    0    0    0  0.00000000000E+00  0.00000000000E+00  0.45593999997E+02  0.45594000000E+02  0.51100000000E-03 0.  1.
         11   -1    0    0    0    0 -0.00000000000E+00 -0.00000000000E+00 -0.45593999997E+02  0.45594000000E+02  0.51100000000E-03 0. -1.
    9900012    2    1    2    0    0 -0.19103338415E+02  0.21261788351E+02 -0.14132166918E+02  0.59301963491E+02  0.50000035496E+02 0.  0.
        -12    1    1    2    0    0  0.19103338415E+02 -0.21261788351E+02  0.14132166918E+02  0.31886036509E+02  0.00000000000E+00 0.  1.
         11    1    3    3    0    0 -0.26959620033E+02  0.13677145635E+02 -0.21666951769E+02  0.37193308864E+02  0.51100000000E-03 0. -1.
        -11    1    3    3    0    0  0.99264804171E+01  0.10417862929E+02  0.67754711277E+00  0.14405761064E+02  0.51100000000E-03 0.  1.
         12    1    3    3    0    0 -0.20701987988E+01 -0.28332202130E+01  0.68572377381E+01  0.77028935627E+01  0.00000000000E+00 0. -1.
</event>
<event>
 7    1  0.5987893E-013  0.5930200E+02  0.7816164E-02  0.1266605E+00
        -11   -1    0    0    0    0  0.00000000000E+00  0.00000000000E+00  0.45593999997E+02  0.45594000000E+02  0.51100000000E-03 0.  1.
         11   -1    0    0    0    0 -0.00000000000E+00 -0.00000000000E+00 -0.45593999997E+02  0.45594000000E+02  0.51100000000E-03 0. -1.
    9900012    2    1    2    0    0  0.68653388540E+01  0.28174366615E+02 -0.13258552424E+02  0.59301999559E+02  0.50000101276E+02 0.  0.
        -12    1    1    2    0    0 -0.68653388540E+01 -0.28174366615E+02  0.13258552424E+02  0.31886000441E+02  0.00000000000E+00 0.  1.
         11    1    3    3    0    0 -0.78613310381E+01  0.15557293548E+02 -0.21722054474E+01  0.17565545394E+02  0.51100000000E-03 0. -1.
        -11    1    3    3    0    0 -0.38718318686E+01 -0.88330748029E+01 -0.91272156258E+01  0.13278567612E+02  0.51100000000E-03 0.  1.
        -12    1    3    3    0    0  0.18598501761E+02  0.21450147870E+02 -0.19591313512E+01  0.28457886552E+02  0.00000000000E+00 0.  1.
</event>
<event>
 7    1  0.5987893E-013  0.5930201E+02  0.7816164E-02  0.1266605E+00
        -11   -1    0    0    0    0  0.00000000000E+00  0.00000000000E+00  0.45593999997E+02  0.45594000000E+02  0.51100000000E-03 0. -1.
         11   -1    0    0    0    0 -0.00000000000E+00 -0.00000000000E+00 -0.45593999997E+02  0.45594000000E+02  0.51100000000E-03 0.  1.
    9900012    2    1    2    0    0 -0.10014664701E+02 -0.26800036583E+02  0.14077674405E+02  0.59302009556E+02  0.50000119508E+02 0.  0.
        -12    1    1    2    0    0  0.10014664701E+02  0.26800036583E+02 -0.14077674405E+02  0.31885990444E+02  0.00000000000E+00 0.  1.
         11    1    3    3    0    0 -0.19547120080E+02 -0.10292998114E+02  0.21202196117E+02  0.30619745820E+02  0.51100000000E-03 0. -1.
        -11    1    3    3    0    0  0.75768149340E+00 -0.11312455806E+02 -0.12729255000E+02  0.17046397588E+02  0.51100000000E-03 0.  1.
        -12    1    3    3    0    0  0.87747738860E+01 -0.51945826639E+01  0.56047332874E+01  0.11635866148E+02  0.00000000000E+00 0.  1.
</event>
<event>
 7    1  0.5987893E-013  0.5930194E+02  0.7816164E-02  0.1266605E+00
        -11   -1    0    0    0    0  0.00000000000E+00  0.00000000000E+00  0.45593999997E+02  0.45594000000E+02  0.51100000000E-03 0.  1.
         11   -1    0    0    0    0 -0.00000000000E+00 -0.00000000000E+00 -0.45593999997E+02  0.45594000000E+02  0.51100000000E-03 0. -1.
    9900012    2    1    2    0    0 -0.16109550457E+02  0.25918491774E+02 -0.92430884064E+01  0.59301944818E+02  0.50000001441E+02 0.  0.
        -12    1    1    2    0    0  0.16109550457E+02 -0.25918491774E+02  0.92430884064E+01  0.31886055182E+02  0.00000000000E+00 0.  1.
         11    1    3    3    0    0 -0.72043126242E+01  0.16292951240E+02 -0.23271729392E+02  0.29307606003E+02  0.51100000000E-03 0. -1.
        -11    1    3    3    0    0 -0.64896681357E+01  0.16109635717E+02  0.40202450514E+01  0.17826904554E+02  0.51100000000E-03 0.  1.
         12    1    3    3    0    0 -0.24155696974E+01 -0.64840951835E+01  0.10008395934E+02  0.12167434260E+02  0.00000000000E+00 0. -1.
</event>
<event>
 7    1  0.5987893E-013  0.5930196E+02  0.7816164E-02  0.1266605E+00
        -11   -1    0    0    0    0  0.00000000000E+00  0.00000000000E+00  0.45593999997E+02  0.45594000000E+02  0.51100000000E-03 0. -1.
         11   -1    0    0    0    0 -0.00000000000E+00 -0.00000000000E+00 -0.45593999997E+02  0.45594000000E+02  0.51100000000E-03 0.  1.
    9900012    2    1    2    0    0 -0.12439396302E+02  0.24206027781E+02  0.16614736266E+02  0.59301955678E+02  0.50000021247E+02 0.  0.
        -12    1    1    2    0    0  0.12439396302E+02 -0.24206027781E+02 -0.16614736266E+02  0.31886044322E+02  0.00000000000E+00 0.  1.
         11    1    3    3    0    0 -0.29921576732E+02  0.15273420925E+02  0.74789904036E+00  0.33602641178E+02  0.51100000000E-03 0. -1.
        -11    1    3    3    0    0  0.14383285794E+02  0.91263726929E+01  0.14190783420E+02  0.22170880070E+02  0.51100000000E-03 0.  1.
         12    1    3    3    0    0  0.30988946358E+01 -0.19376583641E+00  0.16760538063E+01  0.35284344297E+01  0.00000000000E+00 0. -1.
</event>
<event>
 7    1  0.5987893E-013  0.5930197E+02  0.7816164E-02  0.1266605E+00
        -11   -1    0    0    0    0  0.00000000000E+00  0.00000000000E+00  0.45593999997E+02  0.45594000000E+02  0.51100000000E-03 0. -1.
         11   -1    0    0    0    0 -0.00000000000E+00 -0.00000000000E+00 -0.45593999997E+02  0.45594000000E+02  0.51100000000E-03 0.  1.
    9900012    2    1    2    0    0  0.25983615205E+02  0.64468805325E+01  0.17320752309E+02  0.59301968759E+02  0.50000045104E+02 0.  0.
        -12    1    1    2    0    0 -0.25983615205E+02 -0.64468805325E+01 -0.17320752309E+02  0.31886031241E+02  0.00000000000E+00 0.  1.
         11    1    3    3    0    0 -0.43367205810E+01  0.10911051131E+02  0.89426654036E+01  0.14759046276E+02  0.51100000000E-03 0. -1.
        -11    1    3    3    0    0  0.14248697859E+02 -0.13753446839E+02  0.14990347225E+02  0.24837334817E+02  0.51100000000E-03 0.  1.
        -12    1    3    3    0    0  0.16071637927E+02  0.92892762404E+01 -0.66122603197E+01  0.19705587666E+02  0.00000000000E+00 0.  1.
</event>
<event>
 7    1  0.5987893E-013  0.5930194E+02  0.7816164E-02  0.1266605E+00
        -11   -1    0    0    0    0  0.00000000000E+00  0.00000000000E+00  0.45593999997E+02  0.45594000000E+02  0.51100000000E-03 0.  1.
         11   -1    0    0    0    0 -0.00000000000E+00 -0.00000000000E+00 -0.45593999997E+02  0.45594000000E+02  0.51100000000E-03 0. -1.
    9900012    2    1    2    0    0  0.16842422186E+02 -0.29307284345E+01 -0.26915881903E+02  0.59301936385E+02  0.49999986061E+02 0.  0.
        -12    1    1    2    0    0 -0.16842422186E+02  0.29307284345E+01  0.26915881903E+02  0.31886063615E+02  0.00000000000E+00 0.  1.
         11    1    3    3    0    0  0.23131949190E+02 -0.37948071739E+01 -0.27788526587E+02  0.36355052536E+02  0.51100000000E-03 0. -1.
        -11    1    3    3    0    0 -0.10866807209E+02 -0.74692770706E+01 -0.11161096647E+01  0.13233416034E+02  0.51100000000E-03 0.  1.
        -12    1    3    3    0    0  0.45772802051E+01  0.83333558100E+01  0.19887543481E+01  0.97134678148E+01  0.00000000000E+00 0.  1.
</event>
<event>
 7    1  0.5987893E-013  0.5930194E+02  0.7816164E-02  0.1266605E+00
        -11   -1    0    0    0    0  0.00000000000E+00  0.00000000000E+00  0.45593999997E+02  0.45594000000E+02  0.51100000000E-03 0.  1.
         11   -1    0    0    0    0 -0.00000000000E+00 -0.00000000000E+00 -0.45593999997E+02  0.45594000000E+02  0.51100000000E-03 0. -1.
    9900012    2    1    2    0    0  0.10878105849E+02  0.67521642009E+01 -0.29202666457E+02  0.59301942915E+02  0.49999997970E+02 0.  0.
        -12    1    1    2    0    0 -0.10878105849E+02 -0.67521642009E+01  0.29202666457E+02  0.31886057085E+02  0.00000000000E+00 0.  1.
         11    1    3    3    0    0  0.13267281022E+02 -0.10927621382E+02 -0.86546626329E+01  0.19244137817E+02  0.51100000000E-03 0. -1.
        -11    1    3    3    0    0 -0.15911332605E+02  0.90866427740E+01 -0.11941556820E+02  0.21870947893E+02  0.51100000000E-03 0.  1.
         12    1    3    3    0    0  0.13522157432E+02  0.85931428087E+01 -0.86064470036E+01  0.18186857205E+02  0.00000000000E+00 0. -1.
</event>
<event>
 7    1  0.5987893E-013  0.5930194E+02  0.7816164E-02  0.1266605E+00
        -11   -1    0    0    0    0  0.00000000000E+00  0.00000000000E+00  0.45593999997E+02  0.45594000000E+02  0.51100000000E-03 0.  1.
         11   -1    0    0    0    0 -0.00000000000E+00 -0.00000000000E+00 -0.45593999997E+02  0.45594000000E+02  0.51100000000E-03 0. -1.
    9900012    2    1    2    0    0 -0.22070931337E+01 -0.12253379919E+02 -0.29354798648E+02  0.59301940613E+02  0.49999993772E+02 0.  0.
        -12    1    1    2    0    0  0.22070931337E+01  0.12253379919E+02  0.29354798648E+02  0.31886059387E+02  0.00000000000E+00 0.  1.
         11    1    3    3    0    0 -0.14777891107E+02  0.11244523456E+02 -0.15697344676E+02  0.24315262768E+02  0.51100000000E-03 0. -1.
        -11    1    3    3    0    0  0.61515183617E+01 -0.23816539327E+02 -0.14421880072E+02  0.28514195565E+02  0.51100000000E-03 0.  1.
         12    1    3    3    0    0  0.64192796120E+01  0.31863595102E+00  0.76442609917E+00  0.64724822802E+01  0.00000000000E+00 0. -1.
</event>
<event>
 7    1  0.5987893E-013  0.5930194E+02  0.7816164E-02  0.1266605E+00
        -11   -1    0    0    0    0  0.00000000000E+00  0.00000000000E+00  0.45593999997E+02  0.45594000000E+02  0.51100000000E-03 0. -1.
         11   -1    0    0    0    0 -0.00000000000E+00 -0.00000000000E+00 -0.45593999997E+02  0.45594000000E+02  0.51100000000E-03 0.  1.
    9900012    2    1    2    0    0  0.29930479043E+02 -0.29592211954E+01  0.10589146175E+02  0.59301943760E+02  0.49999999512E+02 0.  0.
        -12    1    1    2    0    0 -0.29930479043E+02  0.29592211954E+01 -0.10589146175E+02  0.31886056240E+02  0.00000000000E+00 0.  1.
         11    1    3    3    0    0  0.10432172809E+02  0.25797195868E+01  0.16592945161E+01  0.10873750099E+02  0.51100000000E-03 0. -1.
        -11    1    3    3    0    0  0.25179881130E+01 -0.21695634441E+02 -0.31375808771E+01  0.22065476019E+02  0.51100000000E-03 0.  1.
        -12    1    3    3    0    0  0.16980318120E+02  0.16156693658E+02  0.12067432537E+02  0.26362717642E+02  0.00000000000E+00 0.  1.
</event>
<event>
 7    1  0.5987893E-013  0.5930203E+02  0.7816164E-02  0.1266604E+00
        -11   -1    0    0    0    0  0.00000000000E+00  0.00000000000E+00  0.45593999997E+02  0.45594000000E+02  0.51100000000E-03 0. -1.
         11   -1    0    0    0    0 -0.00000000000E+00 -0.00000000000E+00 -0.45593999997E+02  0.45594000000E+02  0.51100000000E-03 0.  1.
    9900012    2    1    2    0    0 -0.30257257302E+02  0.98094095764E+01 -0.22336235672E+01  0.59302028007E+02  0.50000153158E+02 0.  0.
        -12    1    1    2    0    0  0.30257257302E+02 -0.98094095764E+01  0.22336235672E+01  0.31885971993E+02  0.00000000000E+00 0.  1.
         11    1    3    3    0    0 -0.13688558324E+02  0.40173485760E+01 -0.15623973574E+02  0.21157132818E+02  0.51100000000E-03 0. -1.
        -11    1    3    3    0    0 -0.19210503357E+02 -0.73513090808E+01  0.13736615772E+02  0.24734182775E+02  0.51100000000E-03 0.  1.
         12    1    3    3    0    0  0.26418043792E+01  0.13143370081E+02 -0.34626576520E+00  0.13410712414E+02  0.00000000000E+00 0. -1.
</event>
<event>
 7    1  0.5987893E-013  0.5930196E+02  0.7816164E-02  0.1266605E+00
        -11   -1    0    0    0    0  0.00000000000E+00  0.00000000000E+00  0.45593999997E+02  0.45594000000E+02  0.51100000000E-03 0.  1.
         11   -1    0    0    0    0 -0.00000000000E+00 -0.00000000000E+00 -0.45593999997E+02  0.45594000000E+02  0.51100000000E-03 0. -1.
    9900012    2    1    2    0    0  0.23980307203E+01 -0.23309238397E+02 -0.21625178478E+02  0.59301960889E+02  0.50000030750E+02 0.  0.
        -12    1    1    2    0    0 -0.23980307203E+01  0.23309238397E+02  0.21625178478E+02  0.31886039111E+02  0.00000000000E+00 0.  1.
         11    1    3    3    0    0 -0.86118233992E+01 -0.11747940121E+02 -0.32282721198E+02  0.35416827745E+02  0.51100000000E-03 0. -1.
        -11    1    3    3    0    0  0.11877819780E+02 -0.13595675076E+02  0.11623475458E+02  0.21471613016E+02  0.51100000000E-03 0.  1.
        -12    1    3    3    0    0 -0.86796566079E+00  0.20343767996E+01 -0.96593273882E+00  0.24135201277E+01  0.00000000000E+00 0.  1.
</event>
<event>
 7    1  0.5987893E-013  0.5930194E+02  0.7816164E-02  0.1266605E+00
        -11   -1    0    0    0    0  0.00000000000E+00  0.00000000000E+00  0.45593999997E+02  0.45594000000E+02  0.51100000000E-03 0. -1.
         11   -1    0    0    0    0 -0.00000000000E+00 -0.00000000000E+00 -0.45593999997E+02  0.45594000000E+02  0.51100000000E-03 0.  1.
    9900012    2    1    2    0    0 -0.43848801324E-01 -0.24904886348E+02  0.19911446867E+02  0.59301937166E+02  0.49999987486E+02 0.  0.
        -12    1    1    2    0    0  0.43848801324E-01  0.24904886348E+02 -0.19911446867E+02  0.31886062834E+02  0.00000000000E+00 0.  1.
         11    1    3    3    0    0  0.87506454386E+01 -0.22505507192E+01  0.13180298184E+00  0.90363790547E+01  0.51100000000E-03 0. -1.
        -11    1    3    3    0    0 -0.19382475686E+00 -0.14980731164E+02  0.30842800451E+02  0.34289039271E+02  0.51100000000E-03 0.  1.
        -12    1    3    3    0    0 -0.86006694831E+01 -0.76736044651E+01 -0.11063156566E+02  0.15976518840E+02  0.00000000000E+00 0.  1.
</event>
<event>
 7    1  0.5987893E-013  0.5930193E+02  0.7816164E-02  0.1266605E+00
        -11   -1    0    0    0    0  0.00000000000E+00  0.00000000000E+00  0.45593999997E+02  0.45594000000E+02  0.51100000000E-03 0.  1.
         11   -1    0    0    0    0 -0.00000000000E+00 -0.00000000000E+00 -0.45593999997E+02  0.45594000000E+02  0.51100000000E-03 0. -1.
    9900012    2    1    2    0    0  0.16884468767E+02 -0.17939182064E+02 -0.20244065452E+02  0.59301925851E+02  0.49999966850E+02 0.  0.
        -12    1    1    2    0    0 -0.16884468767E+02  0.17939182064E+02  0.20244065452E+02  0.31886074149E+02  0.00000000000E+00 0.  1.
         11    1    3    3    0    0  0.99311240636E+01 -0.18030575223E+02  0.10141154004E+02  0.22947153916E+02  0.51100000000E-03 0.  1.
        -11    1    3    3    0    0 -0.26088922773E+01  0.11886233060E+01 -0.25313468072E+02  0.25475298043E+02  0.51100000000E-03 0. -1.
         12    1    3    3    0    0  0.95622369803E+01 -0.10972301469E+01 -0.50717513837E+01  0.10879473892E+02  0.00000000000E+00 0. -1.
</event>
<event>
 7    1  0.5987893E-013  0.5930194E+02  0.7816164E-02  0.1266605E+00
        -11   -1    0    0    0    0  0.00000000000E+00  0.00000000000E+00  0.45593999997E+02  0.45594000000E+02  0.51100000000E-03 0. -1.
         11   -1    0    0    0    0 -0.00000000000E+00 -0.00000000000E+00 -0.45593999997E+02  0.45594000000E+02  0.51100000000E-03 0.  1.
    9900012    2    1    2    0    0 -0.18745548539E+02  0.18968687244E+02 -0.17478964449E+02  0.59301939033E+02  0.49999990891E+02 0.  0.
        -12    1    1    2    0    0  0.18745548539E+02 -0.18968687244E+02  0.17478964449E+02  0.31886060967E+02  0.00000000000E+00 0.  1.
         11    1    3    3    0    0 -0.24901369148E+02  0.23121586380E+02  0.27898272233E+01  0.34095000782E+02  0.51100000000E-03 0. -1.
        -11    1    3    3    0    0  0.21303438979E+00 -0.47881046609E+01 -0.18295648400E+02  0.18913013523E+02  0.51100000000E-03 0.  1.
         12    1    3    3    0    0  0.59427862190E+01  0.63520552519E+00 -0.19731432728E+01  0.62939247278E+01  0.00000000000E+00 0. -1.
</event>
<event>
 7    1  0.5987893E-013  0.5930198E+02  0.7816164E-02  0.1266605E+00
        -11   -1    0    0    0    0  0.00000000000E+00  0.00000000000E+00  0.45593999997E+02  0.45594000000E+02  0.51100000000E-03 0. -1.
         11   -1    0    0    0    0 -0.00000000000E+00 -0.00000000000E+00 -0.45593999997E+02  0.45594000000E+02  0.51100000000E-03 0.  1.
    9900012    2    1    2    0    0 -0.45621339807E+01 -0.20884111957E+02  0.23659224604E+02  0.59301982570E+02  0.50000070292E+02 0.  0.
        -12    1    1    2    0    0  0.45621339807E+01  0.20884111957E+02 -0.23659224604E+02  0.31886017430E+02  0.00000000000E+00 0.  1.
         11    1    3    3    0    0 -0.11721347557E+02 -0.33048113704E+02  0.25946529937E+02  0.43620983758E+02  0.51100000000E-03 0. -1.
        -11    1    3    3    0    0  0.27469082139E+01  0.77309339175E+01  0.15407884600E+01  0.83478663928E+01  0.51100000000E-03 0.  1.
        -12    1    3    3    0    0  0.44123053623E+01  0.44330678295E+01 -0.38280937933E+01  0.73331324194E+01  0.00000000000E+00 0.  1.
</event>
<event>
 7    1  0.5987893E-013  0.5930198E+02  0.7816164E-02  0.1266605E+00
        -11   -1    0    0    0    0  0.00000000000E+00  0.00000000000E+00  0.45593999997E+02  0.45594000000E+02  0.51100000000E-03 0.  1.
         11   -1    0    0    0    0 -0.00000000000E+00 -0.00000000000E+00 -0.45593999997E+02  0.45594000000E+02  0.51100000000E-03 0. -1.
    9900012    2    1    2    0    0  0.12538269665E+02  0.12172413009E+02 -0.26671002097E+02  0.59301981159E+02  0.50000067718E+02 0.  0.
        -12    1    1    2    0    0 -0.12538269665E+02 -0.12172413009E+02  0.26671002097E+02  0.31886018841E+02  0.00000000000E+00 0.  1.
         11    1    3    3    0    0  0.12188220000E+02  0.38382085080E+01 -0.18525891588E+02  0.22505404033E+02  0.51100000000E-03 0. -1.
        -11    1    3    3    0    0 -0.56284139287E+01  0.55460975174E+01  0.12686148853E+02  0.14945789173E+02  0.51100000000E-03 0.  1.
        -12    1    3    3    0    0  0.59784635944E+01  0.27881069842E+01 -0.20831259363E+02  0.21850787953E+02  0.00000000000E+00 0.  1.
</event>
<event>
 7    1  0.5987893E-013  0.5930194E+02  0.7816164E-02  0.1266605E+00
        -11   -1    0    0    0    0  0.00000000000E+00  0.00000000000E+00  0.45593999997E+02  0.45594000000E+02  0.51100000000E-03 0.  1.
         11   -1    0    0    0    0 -0.00000000000E+00 -0.00000000000E+00 -0.45593999997E+02  0.45594000000E+02  0.51100000000E-03 0. -1.
    9900012    2    1    2    0    0  0.12220607212E+02 -0.90791073470E+01 -0.28016907064E+02  0.59301944862E+02  0.50000001522E+02 0.  0.
        -12    1    1    2    0    0 -0.12220607212E+02  0.90791073470E+01  0.28016907064E+02  0.31886055138E+02  0.00000000000E+00 0.  1.
         11    1    3    3    0    0 -0.18185736275E+01  0.20533470759E+01 -0.36558373008E+01  0.45704037988E+01  0.51100000000E-03 0. -1.
        -11    1    3    3    0    0  0.81961210000E+01 -0.10630687120E+02  0.11936679862E+02  0.17963079761E+02  0.51100000000E-03 0.  1.
        -12    1    3    3    0    0  0.58430598395E+01 -0.50176730312E+00 -0.36297749625E+02  0.36768461303E+02  0.00000000000E+00 0.  1.
</event>
<event>
 7    1  0.5987893E-013  0.5930201E+02  0.7816164E-02  0.1266605E+00
        -11   -1    0    0    0    0  0.00000000000E+00  0.00000000000E+00  0.45593999997E+02  0.45594000000E+02  0.51100000000E-03 0.  1.
         11   -1    0    0    0    0 -0.00000000000E+00 -0.00000000000E+00 -0.45593999997E+02  0.45594000000E+02  0.51100000000E-03 0. -1.
    9900012    2    1    2    0    0 -0.17979530142E+02  0.36425643814E+01 -0.26080349198E+02  0.59302009445E+02  0.50000119305E+02 0.  0.
        -12    1    1    2    0    0  0.17979530142E+02 -0.36425643814E+01  0.26080349198E+02  0.31885990555E+02  0.00000000000E+00 0.  1.
         11    1    3    3    0    0  0.49217309691E+01 -0.18561021107E+02 -0.15767173793E+02  0.24846301736E+02  0.51100000000E-03 0. -1.
        -11    1    3    3    0    0 -0.56598614685E+01  0.10611743270E+02 -0.48965010239E+01  0.12985332095E+02  0.51100000000E-03 0.  1.
         12    1    3    3    0    0 -0.17241399643E+02  0.11591842219E+02 -0.54166743816E+01  0.21470375614E+02  0.00000000000E+00 0. -1.
</event>
<event>
 7    1  0.5987893E-013  0.5930195E+02  0.7816164E-02  0.1266605E+00
        -11   -1    0    0    0    0  0.00000000000E+00  0.00000000000E+00  0.45593999997E+02  0.45594000000E+02  0.51100000000E-03 0.  1.
         11   -1    0    0    0    0 -0.00000000000E+00 -0.00000000000E+00 -0.45593999997E+02  0.45594000000E+02  0.51100000000E-03 0. -1.
    9900012    2    1    2    0    0  0.29603861190E+02  0.47184875232E+01  0.10865882039E+02  0.59301951102E+02  0.50000012902E+02 0.  0.
        -12    1    1    2    0    0 -0.29603861190E+02 -0.47184875232E+01 -0.10865882039E+02  0.31886048898E+02  0.00000000000E+00 0.  1.
         11    1    3    3    0    0  0.19552593100E+02 -0.14140260745E+02 -0.91932012981E+01  0.25821809023E+02  0.51100000000E-03 0. -1.
        -11    1    3    3    0    0  0.69931127055E+01  0.89679163960E+01  0.20137826429E+02  0.23127023227E+02  0.51100000000E-03 0.  1.
        -12    1    3    3    0    0  0.30581553842E+01  0.98908318721E+01 -0.78743092258E-01  0.10353118851E+02  0.00000000000E+00 0.  1.
</event>
<event>
 7    1  0.5987893E-013  0.5930195E+02  0.7816164E-02  0.1266605E+00
        -11   -1    0    0    0    0  0.00000000000E+00  0.00000000000E+00  0.45593999997E+02  0.45594000000E+02  0.51100000000E-03 0. -1.
         11   -1    0    0    0    0 -0.00000000000E+00 -0.00000000000E+00 -0.45593999997E+02  0.45594000000E+02  0.51100000000E-03 0.  1.
    9900012    2    1    2    0    0  0.74106032332E+01  0.30508900450E+02  0.55686920913E+01  0.59301946959E+02  0.50000005345E+02 0.  0.
        -12    1    1    2    0    0 -0.74106032332E+01 -0.30508900450E+02 -0.55686920913E+01  0.31886053041E+02  0.00000000000E+00 0.  1.
         11    1    3    3    0    0  0.90402609945E+01 -0.34755018565E+01  0.10196372682E+01  0.97388445117E+01  0.51100000000E-03 0.  1.
        -11    1    3    3    0    0 -0.84093103390E+01  0.19508017784E+02  0.18633988641E+02  0.28257827078E+02  0.51100000000E-03 0. -1.
        -12    1    3    3    0    0  0.67796525777E+01  0.14476384523E+02 -0.14084933817E+02  0.21305275369E+02  0.00000000000E+00 0.  1.
</event>
<event>
 7    1  0.5987893E-013  0.5930195E+02  0.7816164E-02  0.1266605E+00
        -11   -1    0    0    0    0  0.00000000000E+00  0.00000000000E+00  0.45593999997E+02  0.45594000000E+02  0.51100000000E-03 0. -1.
         11   -1    0    0    0    0 -0.00000000000E+00 -0.00000000000E+00 -0.45593999997E+02  0.45594000000E+02  0.51100000000E-03 0.  1.
    9900012    2    1    2    0    0 -0.21950108655E+01 -0.22642832892E+02  0.22342879887E+02  0.59301949199E+02  0.50000009431E+02 0.  0.
        -12    1    1    2    0    0  0.21950108655E+01  0.22642832892E+02 -0.22342879887E+02  0.31886050801E+02  0.00000000000E+00 0.  1.
         11    1    3    3    0    0  0.19839837915E+01  0.16769064689E+01  0.66766782282E+01  0.71642333445E+01  0.51100000000E-03 0. -1.
        -11    1    3    3    0    0  0.53838665074E+01 -0.17350513991E+02 -0.12186620837E+02  0.21875559010E+02  0.51100000000E-03 0.  1.
        -12    1    3    3    0    0 -0.95628611644E+01 -0.69692253694E+01  0.27852822495E+02  0.30262156844E+02  0.00000000000E+00 0.  1.
</event>
<event>
 7    1  0.5987893E-013  0.5930204E+02  0.7816164E-02  0.1266604E+00
        -11   -1    0    0    0    0  0.00000000000E+00  0.00000000000E+00  0.45593999997E+02  0.45594000000E+02  0.51100000000E-03 0.  1.
         11   -1    0    0    0    0 -0.00000000000E+00 -0.00000000000E+00 -0.45593999997E+02  0.45594000000E+02  0.51100000000E-03 0. -1.
    9900012    2    1    2    0    0 -0.19280706266E+02 -0.13746320859E+02 -0.21354328905E+02  0.59302041738E+02  0.50000178200E+02 0.  0.
        -12    1    1    2    0    0  0.19280706266E+02  0.13746320859E+02  0.21354328905E+02  0.31885958262E+02  0.00000000000E+00 0.  1.
         11    1    3    3    0    0 -0.41971250572E+01  0.93173026368E+01 -0.15095448888E+01  0.10329894153E+02  0.51100000000E-03 0.  1.
        -11    1    3    3    0    0 -0.46285819045E+01 -0.30181356764E+02 -0.19673049585E+02  0.36323091096E+02  0.51100000000E-03 0. -1.
         12    1    3    3    0    0 -0.10454999305E+02  0.71177332689E+01 -0.17173443200E+00  0.12649056489E+02  0.00000000000E+00 0. -1.
</event>
<event>
 7    1  0.5987893E-013  0.5930196E+02  0.7816164E-02  0.1266605E+00
        -11   -1    0    0    0    0  0.00000000000E+00  0.00000000000E+00  0.45593999997E+02  0.45594000000E+02  0.51100000000E-03 0. -1.
         11   -1    0    0    0    0 -0.00000000000E+00 -0.00000000000E+00 -0.45593999997E+02  0.45594000000E+02  0.51100000000E-03 0.  1.
    9900012    2    1    2    0    0  0.31607074553E+02  0.34249945464E+01 -0.24458195259E+01  0.59301956304E+02  0.50000022388E+02 0.  0.
        -12    1    1    2    0    0 -0.31607074553E+02 -0.34249945464E+01  0.24458195259E+01  0.31886043696E+02  0.00000000000E+00 0.  1.
         11    1    3    3    0    0  0.45690280468E+01 -0.76196595024E+01 -0.15849011653E+02  0.18169380806E+02  0.51100000000E-03 0. -1.
        -11    1    3    3    0    0  0.12667450093E+02 -0.34315545642E+01  0.15861507402E+02  0.20587065744E+02  0.51100000000E-03 0.  1.
         12    1    3    3    0    0  0.14370596413E+02  0.14476208613E+02 -0.24583152754E+01  0.20545509754E+02  0.00000000000E+00 0. -1.
</event>
<event>
 7    1  0.5987893E-013  0.5930198E+02  0.7816164E-02  0.1266605E+00
        -11   -1    0    0    0    0  0.00000000000E+00  0.00000000000E+00  0.45593999997E+02  0.45594000000E+02  0.51100000000E-03 0. -1.
         11   -1    0    0    0    0 -0.00000000000E+00 -0.00000000000E+00 -0.45593999997E+02  0.45594000000E+02  0.51100000000E-03 0.  1.
    9900012    2    1    2    0    0 -0.56253331634E+01 -0.22064781702E+02  0.22320831261E+02  0.59301976840E+02  0.50000059842E+02 0.  0.
        -12    1    1    2    0    0  0.56253331634E+01  0.22064781702E+02 -0.22320831261E+02  0.31886023160E+02  0.00000000000E+00 0.  1.
         11    1    3    3    0    0  0.89617170472E+01 -0.10472328324E+02 -0.92059614318E+01  0.16575034212E+02  0.51100000000E-03 0. -1.
        -11    1    3    3    0    0 -0.11630072396E+02 -0.50605427414E+01  0.26290500836E+01  0.12952975773E+02  0.51100000000E-03 0.  1.
         12    1    3    3    0    0 -0.29569778141E+01 -0.65319106366E+01  0.28897742609E+02  0.29773966855E+02  0.00000000000E+00 0. -1.
</event>
<event>
 7    1  0.5987893E-013  0.5930195E+02  0.7816164E-02  0.1266605E+00
        -11   -1    0    0    0    0  0.00000000000E+00  0.00000000000E+00  0.45593999997E+02  0.45594000000E+02  0.51100000000E-03 0.  1.
         11   -1    0    0    0    0 -0.00000000000E+00 -0.00000000000E+00 -0.45593999997E+02  0.45594000000E+02  0.51100000000E-03 0. -1.
    9900012    2    1    2    0    0 -0.21488306229E+02  0.42230222362E+01 -0.23176264566E+02  0.59301945671E+02  0.50000002998E+02 0.  0.
        -12    1    1    2    0    0  0.21488306229E+02 -0.42230222362E+01  0.23176264566E+02  0.31886054329E+02  0.00000000000E+00 0.  1.
         11    1    3    3    0    0  0.37450307749E+01 -0.15867480849E+01 -0.25707846353E+02  0.26027608214E+02  0.51100000000E-03 0. -1.
        -11    1    3    3    0    0 -0.11800665395E+02 -0.75809426923E+01  0.28130372035E+01  0.14305228919E+02  0.51100000000E-03 0.  1.
         12    1    3    3    0    0 -0.13432671609E+02  0.13390713013E+02 -0.28145541682E+00  0.18969108538E+02  0.00000000000E+00 0. -1.
</event>
<event>
 7    1  0.5987893E-013  0.5930198E+02  0.7816164E-02  0.1266605E+00
        -11   -1    0    0    0    0  0.00000000000E+00  0.00000000000E+00  0.45593999997E+02  0.45594000000E+02  0.51100000000E-03 0.  1.
         11   -1    0    0    0    0 -0.00000000000E+00 -0.00000000000E+00 -0.45593999997E+02  0.45594000000E+02  0.51100000000E-03 0. -1.
    9900012    2    1    2    0    0  0.29856698308E+02 -0.20332686684E+01 -0.11007332904E+02  0.59301984367E+02  0.50000073569E+02 0.  0.
        -12    1    1    2    0    0 -0.29856698308E+02  0.20332686684E+01  0.11007332904E+02  0.31886015633E+02  0.00000000000E+00 0.  1.
         11    1    3    3    0    0  0.46222005617E+01 -0.19279264408E+01 -0.10209713462E+02  0.11371890240E+02  0.51100000000E-03 0. -1.
        -11    1    3    3    0    0  0.16116102605E+02 -0.12907343253E+02  0.15095778496E+02  0.25577544872E+02  0.51100000000E-03 0.  1.
        -12    1    3    3    0    0  0.91183951412E+01  0.12802001025E+02 -0.15893397938E+02  0.22352549255E+02  0.00000000000E+00 0.  1.
</event>
<event>
 7    1  0.5987893E-013  0.5930194E+02  0.7816164E-02  0.1266605E+00
        -11   -1    0    0    0    0  0.00000000000E+00  0.00000000000E+00  0.45593999997E+02  0.45594000000E+02  0.51100000000E-03 0. -1.
         11   -1    0    0    0    0 -0.00000000000E+00 -0.00000000000E+00 -0.45593999997E+02  0.45594000000E+02  0.51100000000E-03 0.  1.
    9900012    2    1    2    0    0  0.21752880884E+02 -0.47935822571E+01  0.22815660160E+02  0.59301943390E+02  0.49999998837E+02 0.  0.
        -12    1    1    2    0    0 -0.21752880884E+02  0.47935822571E+01 -0.22815660160E+02  0.31886056610E+02  0.00000000000E+00 0.  1.
         11    1    3    3    0    0  0.10938731899E+02  0.37557613471E+01  0.15603053256E+02  0.19422071723E+02  0.51100000000E-03 0. -1.
        -11    1    3    3    0    0  0.62127681891E+01  0.59846482378E+01 -0.12358782306E+02  0.15071629091E+02  0.51100000000E-03 0.  1.
        -12    1    3    3    0    0  0.46013807955E+01 -0.14533991842E+02  0.19571389210E+02  0.24808242576E+02  0.00000000000E+00 0.  1.
</event>
<event>
 7    1  0.5987893E-013  0.5930192E+02  0.7816164E-02  0.1266605E+00
        -11   -1    0    0    0    0  0.00000000000E+00  0.00000000000E+00  0.45593999997E+02  0.45594000000E+02  0.51100000000E-03 0.  1.
         11   -1    0    0    0    0 -0.00000000000E+00 -0.00000000000E+00 -0.45593999997E+02  0.45594000000E+02  0.51100000000E-03 0. -1.
    9900012    2    1    2    0    0  0.26502383101E+02 -0.17277815821E+02 -0.39777621479E+01  0.59301924336E+02  0.49999964087E+02 0.  0.
        -12    1    1    2    0    0 -0.26502383101E+02  0.17277815821E+02  0.39777621479E+01  0.31886075664E+02  0.00000000000E+00 0.  1.
         11    1    3    3    0    0  0.43279953673E+01 -0.24576313496E+01  0.62763882370E+01  0.80102774804E+01  0.51100000000E-03 0.  1.
        -11    1    3    3    0    0  0.19407400912E+02 -0.21251840696E+02 -0.22938614902E+02  0.36803097655E+02  0.51100000000E-03 0. -1.
        -12    1    3    3    0    0  0.27669868217E+01  0.64316562245E+01  0.12684464517E+02  0.14488549201E+02  0.00000000000E+00 0.  1.
</event>
<event>
 7    1  0.5987893E-013  0.5930197E+02  0.7816164E-02  0.1266605E+00
        -11   -1    0    0    0    0  0.00000000000E+00  0.00000000000E+00  0.45593999997E+02  0.45594000000E+02  0.51100000000E-03 0.  1.
         11   -1    0    0    0    0 -0.00000000000E+00 -0.00000000000E+00 -0.45593999997E+02  0.45594000000E+02  0.51100000000E-03 0. -1.
    9900012    2    1    2    0    0 -0.12912470465E+01 -0.30824837821E+02 -0.80548716040E+01  0.59301970109E+02  0.50000047567E+02 0.  0.
        -12    1    1    2    0    0  0.12912470465E+01  0.30824837821E+02  0.80548716040E+01  0.31886029891E+02  0.00000000000E+00 0.  1.
         11    1    3    3    0    0 -0.61582159832E+01  0.31807355881E+01 -0.18033739727E+02  0.19319846577E+02  0.51100000000E-03 0. -1.
        -11    1    3    3    0    0  0.55228038847E+01 -0.35755206162E+02  0.76201695956E+01  0.36973005225E+02  0.51100000000E-03 0.  1.
         12    1    3    3    0    0 -0.65583494793E+00  0.17496327526E+01  0.23586985271E+01  0.30091183077E+01  0.00000000000E+00 0. -1.
</event>
<event>
 7    1  0.5987893E-013  0.5930192E+02  0.7816164E-02  0.1266605E+00
        -11   -1    0    0    0    0  0.00000000000E+00  0.00000000000E+00  0.45593999997E+02  0.45594000000E+02  0.51100000000E-03 0. -1.
         11   -1    0    0    0    0 -0.00000000000E+00 -0.00000000000E+00 -0.45593999997E+02  0.45594000000E+02  0.51100000000E-03 0.  1.
    9900012    2    1    2    0    0 -0.30671305275E+02 -0.86199154468E+01 -0.13001230351E+01  0.59301917935E+02  0.49999952412E+02 0.  0.
        -12    1    1    2    0    0  0.30671305275E+02  0.86199154468E+01  0.13001230351E+01  0.31886082065E+02  0.00000000000E+00 0.  1.
         11    1    3    3    0    0  0.91432433902E+01  0.46816449314E+01  0.43199209712E+01  0.11143536980E+02  0.51100000000E-03 0. -1.
        -11    1    3    3    0    0 -0.21513906890E+02  0.36358993053E+01  0.24337255678E+01  0.21954292834E+02  0.51100000000E-03 0.  1.
         12    1    3    3    0    0 -0.18300641775E+02 -0.16937459684E+02 -0.80537695741E+01  0.26204088121E+02  0.00000000000E+00 0. -1.
</event>
<event>
 7    1  0.5987893E-013  0.5930192E+02  0.7816164E-02  0.1266605E+00
        -11   -1    0    0    0    0  0.00000000000E+00  0.00000000000E+00  0.45593999997E+02  0.45594000000E+02  0.51100000000E-03 0.  1.
         11   -1    0    0    0    0 -0.00000000000E+00 -0.00000000000E+00 -0.45593999997E+02  0.45594000000E+02  0.51100000000E-03 0. -1.
    9900012    2    1    2    0    0  0.16024101579E+02  0.23269601254E+02 -0.14780939717E+02  0.59301916000E+02  0.49999948885E+02 0.  0.
        -12    1    1    2    0    0 -0.16024101579E+02 -0.23269601254E+02  0.14780939717E+02  0.31886084000E+02  0.00000000000E+00 0.  1.
         11    1    3    3    0    0  0.16780020306E+02  0.20281980692E+02 -0.80957322974E+01  0.27540310527E+02  0.51100000000E-03 0. -1.
        -11    1    3    3    0    0  0.51565353581E+01 -0.75273120804E+01 -0.14683696256E+02  0.17287603074E+02  0.51100000000E-03 0.  1.
        -12    1    3    3    0    0 -0.59124540850E+01  0.10514932642E+02  0.79984888365E+01  0.14474002399E+02  0.00000000000E+00 0.  1.
</event>
<event>
 7    1  0.5987893E-013  0.5930192E+02  0.7816164E-02  0.1266605E+00
        -11   -1    0    0    0    0  0.00000000000E+00  0.00000000000E+00  0.45593999997E+02  0.45594000000E+02  0.51100000000E-03 0. -1.
         11   -1    0    0    0    0 -0.00000000000E+00 -0.00000000000E+00 -0.45593999997E+02  0.45594000000E+02  0.51100000000E-03 0.  1.
    9900012    2    1    2    0    0 -0.23979728612E+02  0.18541031787E+02 -0.98956862216E+01  0.59301923887E+02  0.49999963269E+02 0.  0.
        -12    1    1    2    0    0  0.23979728612E+02 -0.18541031787E+02  0.98956862216E+01  0.31886076113E+02  0.00000000000E+00 0.  1.
         11    1    3    3    0    0 -0.10331000904E+02  0.26306374872E+02 -0.95827130695E+01  0.29842642789E+02  0.51100000000E-03 0. -1.
        -11    1    3    3    0    0 -0.10969136556E+02 -0.53441502341E+01  0.11706311503E+02  0.16909158104E+02  0.51100000000E-03 0.  1.
         12    1    3    3    0    0 -0.26795911518E+01 -0.24211928506E+01 -0.12019284655E+02  0.12550122995E+02  0.00000000000E+00 0. -1.
</event>
<event>
 7    1  0.5987893E-013  0.5930200E+02  0.7816164E-02  0.1266605E+00
        -11   -1    0    0    0    0  0.00000000000E+00  0.00000000000E+00  0.45593999997E+02  0.45594000000E+02  0.51100000000E-03 0. -1.
         11   -1    0    0    0    0 -0.00000000000E+00 -0.00000000000E+00 -0.45593999997E+02  0.45594000000E+02  0.51100000000E-03 0.  1.
    9900012    2    1    2    0    0  0.22821552816E+02  0.21194761474E+02  0.68319658325E+01  0.59302000815E+02  0.50000103567E+02 0.  0.
        -12    1    1    2    0    0 -0.22821552816E+02 -0.21194761474E+02 -0.68319658325E+01  0.31885999185E+02  0.00000000000E+00 0.  1.
         11    1    3    3    0    0 -0.78984556014E+01  0.88207408201E+00 -0.31945541068E+01  0.85655607975E+01  0.51100000000E-03 0. -1.
        -11    1    3    3    0    0  0.24896676300E+02  0.29494409186E+02  0.56188267902E+01  0.39004305900E+02  0.51100000000E-03 0.  1.
         12    1    3    3    0    0  0.58233321178E+01 -0.91817217941E+01  0.44076931491E+01  0.11732134118E+02  0.00000000000E+00 0. -1.
</event>
<event>
 7    1  0.5987893E-013  0.5930193E+02  0.7816164E-02  0.1266605E+00
        -11   -1    0    0    0    0  0.00000000000E+00  0.00000000000E+00  0.45593999997E+02  0.45594000000E+02  0.51100000000E-03 0. -1.
         11   -1    0    0    0    0 -0.00000000000E+00 -0.00000000000E+00 -0.45593999997E+02  0.45594000000E+02  0.51100000000E-03 0.  1.
    9900012    2    1    2    0    0 -0.20903067422E+02  0.19626124684E+02 -0.13949852258E+02  0.59301931322E+02  0.49999976828E+02 0.  0.
        -12    1    1    2    0    0  0.20903067422E+02 -0.19626124684E+02  0.13949852258E+02  0.31886068678E+02  0.00000000000E+00 0.  1.
         11    1    3    3    0    0 -0.64109515037E+01  0.21947575065E+02  0.68817150361E+01  0.23877905112E+02  0.51100000000E-03 0. -1.
        -11    1    3    3    0    0 -0.11261556555E+02 -0.28451882683E+01 -0.26469009527E+02  0.28905470380E+02  0.51100000000E-03 0.  1.
         12    1    3    3    0    0 -0.32305593632E+01  0.52373788671E+00  0.56374422332E+01  0.65185558298E+01  0.00000000000E+00 0. -1.
</event>
<event>
 7    1  0.5987893E-013  0.5930197E+02  0.7816164E-02  0.1266605E+00
        -11   -1    0    0    0    0  0.00000000000E+00  0.00000000000E+00  0.45593999997E+02  0.45594000000E+02  0.51100000000E-03 0.  1.
         11   -1    0    0    0    0 -0.00000000000E+00 -0.00000000000E+00 -0.45593999997E+02  0.45594000000E+02  0.51100000000E-03 0. -1.
    9900012    2    1    2    0    0  0.32176208766E+00  0.11099241633E+02 -0.29890166527E+02  0.59301972485E+02  0.50000051899E+02 0.  0.
        -12    1    1    2    0    0 -0.32176208766E+00 -0.11099241633E+02  0.29890166527E+02  0.31886027515E+02  0.00000000000E+00 0.  1.
         11    1    3    3    0    0 -0.13553141029E+01  0.82092510515E+01 -0.88257830173E+01  0.12129432191E+02  0.51100000000E-03 0. -1.
        -11    1    3    3    0    0  0.90136927582E+01  0.35728543824E+01  0.10772915856E+02  0.14493711115E+02  0.51100000000E-03 0.  1.
        -12    1    3    3    0    0 -0.73366165676E+01 -0.68286380098E+00 -0.31837299366E+02  0.32678829179E+02  0.00000000000E+00 0.  1.
</event>
<event>
 7    1  0.5987893E-013  0.5930194E+02  0.7816164E-02  0.1266605E+00
        -11   -1    0    0    0    0  0.00000000000E+00  0.00000000000E+00  0.45593999997E+02  0.45594000000E+02  0.51100000000E-03 0.  1.
         11   -1    0    0    0    0 -0.00000000000E+00 -0.00000000000E+00 -0.45593999997E+02  0.45594000000E+02  0.51100000000E-03 0. -1.
    9900012    2    1    2    0    0  0.61928995072E+01 -0.27965693245E+02 -0.14010300581E+02  0.59301944657E+02  0.50000001147E+02 0.  0.
        -12    1    1    2    0    0 -0.61928995072E+01  0.27965693245E+02  0.14010300581E+02  0.31886055343E+02  0.00000000000E+00 0.  1.
         11    1    3    3    0    0 -0.18614410286E+02 -0.21897772271E+02 -0.15903398619E+01  0.28784333966E+02  0.51100000000E-03 0. -1.
        -11    1    3    3    0    0  0.19901513984E+02 -0.36762922274E+01 -0.42296744554E+01  0.20675481365E+02  0.51100000000E-03 0.  1.
         12    1    3    3    0    0  0.49057958087E+01 -0.23916287465E+01 -0.81902862637E+01  0.98421293254E+01  0.00000000000E+00 0. -1.
</event>
<event>
 7    1  0.5987893E-013  0.5930192E+02  0.7816164E-02  0.1266605E+00
        -11   -1    0    0    0    0  0.00000000000E+00  0.00000000000E+00  0.45593999997E+02  0.45594000000E+02  0.51100000000E-03 0. -1.
         11   -1    0    0    0    0 -0.00000000000E+00 -0.00000000000E+00 -0.45593999997E+02  0.45594000000E+02  0.51100000000E-03 0.  1.
    9900012    2    1    2    0    0  0.19012289863E+02 -0.23595756497E+01  0.25488959846E+02  0.59301924087E+02  0.49999963633E+02 0.  0.
        -12    1    1    2    0    0 -0.19012289863E+02  0.23595756497E+01 -0.25488959846E+02  0.31886075913E+02  0.00000000000E+00 0.  1.
         11    1    3    3    0    0  0.15095903926E+02 -0.22469094843E+02  0.16093608262E+02  0.31492074647E+02  0.51100000000E-03 0. -1.
        -11    1    3    3    0    0 -0.29608092190E+01  0.12995900817E+02  0.11603491875E+02  0.17672035911E+02  0.51100000000E-03 0.  1.
         12    1    3    3    0    0  0.68771951560E+01  0.71136183763E+01 -0.22081402908E+01  0.10137813530E+02  0.00000000000E+00 0. -1.
</event>
<event>
 7    1  0.5987893E-013  0.5930194E+02  0.7816164E-02  0.1266605E+00
        -11   -1    0    0    0    0  0.00000000000E+00  0.00000000000E+00  0.45593999997E+02  0.45594000000E+02  0.51100000000E-03 0. -1.
         11   -1    0    0    0    0 -0.00000000000E+00 -0.00000000000E+00 -0.45593999997E+02  0.45594000000E+02  0.51100000000E-03 0.  1.
    9900012    2    1    2    0    0  0.10315146624E+02  0.18773167489E+02  0.23619623169E+02  0.59301942450E+02  0.49999997122E+02 0.  0.
        -12    1    1    2    0    0 -0.10315146624E+02 -0.18773167489E+02 -0.23619623169E+02  0.31886057550E+02  0.00000000000E+00 0.  1.
         11    1    3    3    0    0  0.86611249915E+01  0.25913425735E+02  0.31528928749E+01  0.27503844335E+02  0.51100000000E-03 0. -1.
        -11    1    3    3    0    0 -0.71666645108E+01 -0.12161331304E+02  0.10705445388E+02  0.17716253004E+02  0.51100000000E-03 0.  1.
         12    1    3    3    0    0  0.88206861434E+01  0.50210730587E+01  0.97612849062E+01  0.14081845111E+02  0.00000000000E+00 0. -1.
</event>
<event>
 7    1  0.5987893E-013  0.5930196E+02  0.7816164E-02  0.1266605E+00
        -11   -1    0    0    0    0  0.00000000000E+00  0.00000000000E+00  0.45593999997E+02  0.45594000000E+02  0.51100000000E-03 0. -1.
         11   -1    0    0    0    0 -0.00000000000E+00 -0.00000000000E+00 -0.45593999997E+02  0.45594000000E+02  0.51100000000E-03 0.  1.
    9900012    2    1    2    0    0 -0.24698873362E+02 -0.93911925861E+01  0.17846314887E+02  0.59301956053E+02  0.50000021932E+02 0.  0.
        -12    1    1    2    0    0  0.24698873362E+02  0.93911925861E+01 -0.17846314887E+02  0.31886043947E+02  0.00000000000E+00 0.  1.
         11    1    3    3    0    0  0.18303051547E+01  0.41379646771E+01  0.21052866264E+02  0.21533600414E+02  0.51100000000E-03 0. -1.
        -11    1    3    3    0    0 -0.11958661948E+02 -0.18667376307E+02 -0.14073220855E+01  0.22213984097E+02  0.51100000000E-03 0.  1.
        -12    1    3    3    0    0 -0.14570516568E+02  0.51382190435E+01 -0.17992292916E+01  0.15554371541E+02  0.00000000000E+00 0.  1.
</event>
<event>
 7    1  0.5987893E-013  0.5930196E+02  0.7816164E-02  0.1266605E+00
        -11   -1    0    0    0    0  0.00000000000E+00  0.00000000000E+00  0.45593999997E+02  0.45594000000E+02  0.51100000000E-03 0. -1.
         11   -1    0    0    0    0 -0.00000000000E+00 -0.00000000000E+00 -0.45593999997E+02  0.45594000000E+02  0.51100000000E-03 0.  1.
    9900012    2    1    2    0    0 -0.23960791209E+02  0.20996228987E+02 -0.13260973568E+01  0.59301957893E+02  0.50000025287E+02 0.  0.
        -12    1    1    2    0    0  0.23960791209E+02 -0.20996228987E+02  0.13260973568E+01  0.31886042107E+02  0.00000000000E+00 0.  1.
         11    1    3    3    0    0 -0.99344597665E+01  0.11428647728E+02  0.91276703010E+01  0.17681115494E+02  0.51100000000E-03 0. -1.
        -11    1    3    3    0    0  0.11368053069E+02  0.47532279483E+01 -0.98369258142E+01  0.15766766195E+02  0.51100000000E-03 0.  1.
        -12    1    3    3    0    0 -0.25394384511E+02  0.48143533110E+01 -0.61684184358E+00  0.25854076204E+02  0.00000000000E+00 0.  1.
</event>
<event>
 7    1  0.5987893E-013  0.5930199E+02  0.7816164E-02  0.1266605E+00
        -11   -1    0    0    0    0  0.00000000000E+00  0.00000000000E+00  0.45593999997E+02  0.45594000000E+02  0.51100000000E-03 0. -1.
         11   -1    0    0    0    0 -0.00000000000E+00 -0.00000000000E+00 -0.45593999997E+02  0.45594000000E+02  0.51100000000E-03 0.  1.
    9900012    2    1    2    0    0 -0.31582176777E+02  0.24758525993E+01 -0.36268262182E+01  0.59301990459E+02  0.50000084679E+02 0.  0.
        -12    1    1    2    0    0  0.31582176777E+02 -0.24758525993E+01  0.36268262182E+01  0.31886009541E+02  0.00000000000E+00 0.  1.
         11    1    3    3    0    0 -0.11383375655E+02  0.12248869010E+02  0.94932036913E+01  0.19228545184E+02  0.51100000000E-03 0. -1.
        -11    1    3    3    0    0 -0.23550071013E+02 -0.33663753667E+01 -0.19243793274E+02  0.30598397143E+02  0.51100000000E-03 0.  1.
        -12    1    3    3    0    0  0.33512698916E+01 -0.64066410439E+01  0.61237633648E+01  0.94750481318E+01  0.00000000000E+00 0.  1.
</event>
<event>
 7    1  0.5987893E-013  0.5930198E+02  0.7816164E-02  0.1266605E+00
        -11   -1    0    0    0    0  0.00000000000E+00  0.00000000000E+00  0.45593999997E+02  0.45594000000E+02  0.51100000000E-03 0.  1.
         11   -1    0    0    0    0 -0.00000000000E+00 -0.00000000000E+00 -0.45593999997E+02  0.45594000000E+02  0.51100000000E-03 0. -1.
    9900012    2    1    2    0    0  0.24802880269E+02  0.13647003060E+02 -0.14672915554E+02  0.59301984052E+02  0.50000072995E+02 0.  0.
        -12    1    1    2    0    0 -0.24802880269E+02 -0.13647003060E+02  0.14672915554E+02  0.31886015948E+02  0.00000000000E+00 0.  1.
         11    1    3    3    0    0  0.38585125404E+02  0.25753824338E+01 -0.60556429762E+01  0.39142244561E+02  0.51100000000E-03 0.  1.
        -11    1    3    3    0    0 -0.82607634287E+01  0.76201752014E+01 -0.31888443102E+01  0.11682294758E+02  0.51100000000E-03 0. -1.
        -12    1    3    3    0    0 -0.55214817064E+01  0.34514454249E+01 -0.54284282672E+01  0.84774447333E+01  0.00000000000E+00 0.  1.
</event>
<event>
 7    1  0.5987893E-013  0.5930181E+02  0.7816164E-02  0.1266605E+00
        -11   -1    0    0    0    0  0.00000000000E+00  0.00000000000E+00  0.45593999997E+02  0.45594000000E+02  0.51100000000E-03 0.  1.
         11   -1    0    0    0    0 -0.00000000000E+00 -0.00000000000E+00 -0.45593999997E+02  0.45594000000E+02  0.51100000000E-03 0. -1.
    9900012    2    1    2    0    0 -0.26887672104E+02  0.14630267224E+02  0.89295927203E+01  0.59301807747E+02  0.49999751456E+02 0.  0.
        -12    1    1    2    0    0  0.26887672104E+02 -0.14630267224E+02 -0.89295927203E+01  0.31886192253E+02  0.00000000000E+00 0.  1.
         11    1    3    3    0    0 -0.19348621727E+01  0.17305374949E+02 -0.14403983252E+02  0.22598549235E+02  0.51100000000E-03 0. -1.
        -11    1    3    3    0    0 -0.15387320739E+02  0.12410605843E+01  0.21073703637E+02  0.26122994778E+02  0.51100000000E-03 0.  1.
         12    1    3    3    0    0 -0.95654891922E+01 -0.39161683096E+01  0.22598723349E+01  0.10580263734E+02  0.00000000000E+00 0. -1.
</event>
<event>
 7    1  0.5987893E-013  0.5930201E+02  0.7816164E-02  0.1266605E+00
        -11   -1    0    0    0    0  0.00000000000E+00  0.00000000000E+00  0.45593999997E+02  0.45594000000E+02  0.51100000000E-03 0.  1.
         11   -1    0    0    0    0 -0.00000000000E+00 -0.00000000000E+00 -0.45593999997E+02  0.45594000000E+02  0.51100000000E-03 0. -1.
    9900012    2    1    2    0    0  0.58853320798E+01  0.92170884197E+01 -0.29952037994E+02  0.59302008834E+02  0.50000118191E+02 0.  0.
        -12    1    1    2    0    0 -0.58853320798E+01 -0.92170884197E+01  0.29952037994E+02  0.31885991166E+02  0.00000000000E+00 0.  1.
         11    1    3    3    0    0 -0.11813610937E+02  0.59371154848E+01 -0.28514495851E+02  0.31430673196E+02  0.51100000000E-03 0. -1.
        -11    1    3    3    0    0  0.84388633479E+00 -0.76154591410E+01  0.66848440732E+00  0.76911789563E+01  0.51100000000E-03 0.  1.
         12    1    3    3    0    0  0.16855056682E+02  0.10895432076E+02 -0.21060265504E+01  0.20180156682E+02  0.00000000000E+00 0. -1.
</event>
<event>
 7    1  0.5987893E-013  0.5930194E+02  0.7816164E-02  0.1266605E+00
        -11   -1    0    0    0    0  0.00000000000E+00  0.00000000000E+00  0.45593999997E+02  0.45594000000E+02  0.51100000000E-03 0.  1.
         11   -1    0    0    0    0 -0.00000000000E+00 -0.00000000000E+00 -0.45593999997E+02  0.45594000000E+02  0.51100000000E-03 0. -1.
    9900012    2    1    2    0    0  0.77051783188E+00  0.15431449564E+02 -0.27892610124E+02  0.59301936698E+02  0.49999986632E+02 0.  0.
        -12    1    1    2    0    0 -0.77051783188E+00 -0.15431449564E+02  0.27892610124E+02  0.31886063302E+02  0.00000000000E+00 0.  1.
         11    1    3    3    0    0  0.54338808941E+01 -0.70826175013E+01 -0.18723942910E+02  0.20743108991E+02  0.51100000000E-03 0. -1.
        -11    1    3    3    0    0  0.30316169990E+01  0.12094359804E+02  0.96127192992E+01  0.15743843663E+02  0.51100000000E-03 0.  1.
        -12    1    3    3    0    0 -0.76949800612E+01  0.10419707261E+02 -0.18781386513E+02  0.22814984044E+02  0.00000000000E+00 0.  1.
</event>
<event>
 7    1  0.5987893E-013  0.5930195E+02  0.7816164E-02  0.1266605E+00
        -11   -1    0    0    0    0  0.00000000000E+00  0.00000000000E+00  0.45593999997E+02  0.45594000000E+02  0.51100000000E-03 0.  1.
         11   -1    0    0    0    0 -0.00000000000E+00 -0.00000000000E+00 -0.45593999997E+02  0.45594000000E+02  0.51100000000E-03 0. -1.
    9900012    2    1    2    0    0 -0.14835791035E+02 -0.15066187402E+02 -0.23866913951E+02  0.59301948504E+02  0.50000008163E+02 0.  0.
        -12    1    1    2    0    0  0.14835791035E+02  0.15066187402E+02  0.23866913951E+02  0.31886051496E+02  0.00000000000E+00 0.  1.
         11    1    3    3    0    0 -0.82788130181E+00 -0.93514218794E+01  0.84582638870E+01  0.12636324895E+02  0.51100000000E-03 0.  1.
        -11    1    3    3    0    0 -0.36692745539E+01 -0.71033422775E+01 -0.34996019191E+02  0.35897665756E+02  0.51100000000E-03 0. -1.
         12    1    3    3    0    0 -0.10338635179E+02  0.13885767551E+01  0.26708413525E+01  0.10767957852E+02  0.00000000000E+00 0. -1.
</event>
<event>
 7    1  0.5987893E-013  0.5930198E+02  0.7816164E-02  0.1266605E+00
        -11   -1    0    0    0    0  0.00000000000E+00  0.00000000000E+00  0.45593999997E+02  0.45594000000E+02  0.51100000000E-03 0.  1.
         11   -1    0    0    0    0 -0.00000000000E+00 -0.00000000000E+00 -0.45593999997E+02  0.45594000000E+02  0.51100000000E-03 0. -1.
    9900012    2    1    2    0    0  0.24924039713E+02  0.15864180902E+02 -0.11993247789E+02  0.59301984510E+02  0.50000073829E+02 0.  0.
        -12    1    1    2    0    0 -0.24924039713E+02 -0.15864180902E+02  0.11993247789E+02  0.31886015490E+02  0.00000000000E+00 0.  1.
         11    1    3    3    0    0 -0.94208861019E+01  0.16619170848E+02 -0.14923384528E+02  0.24241644760E+02  0.51100000000E-03 0. -1.
        -11    1    3    3    0    0  0.50204347391E+01  0.99801273815E+00 -0.15400677541E+01  0.53453347270E+01  0.51100000000E-03 0.  1.
         12    1    3    3    0    0  0.29324491076E+02 -0.17530026846E+01  0.44702044931E+01  0.29715005023E+02  0.00000000000E+00 0. -1.
</event>
<event>
 7    1  0.5987893E-013  0.5930194E+02  0.7816164E-02  0.1266605E+00
        -11   -1    0    0    0    0  0.00000000000E+00  0.00000000000E+00  0.45593999997E+02  0.45594000000E+02  0.51100000000E-03 0.  1.
         11   -1    0    0    0    0 -0.00000000000E+00 -0.00000000000E+00 -0.45593999997E+02  0.45594000000E+02  0.51100000000E-03 0. -1.
    9900012    2    1    2    0    0 -0.14681439381E+02 -0.18772349500E+02 -0.21184311166E+02  0.59301940230E+02  0.49999993075E+02 0.  0.
        -12    1    1    2    0    0  0.14681439381E+02  0.18772349500E+02  0.21184311166E+02  0.31886059770E+02  0.00000000000E+00 0.  1.
         11    1    3    3    0    0 -0.43217539283E+01  0.35532018349E+00 -0.22719268648E+01  0.48954531343E+01  0.51100000000E-03 0. -1.
        -11    1    3    3    0    0  0.33162391262E+01 -0.26484370713E+02 -0.26067213768E+02  0.37308430253E+02  0.51100000000E-03 0.  1.
        -12    1    3    3    0    0 -0.13675924579E+02  0.73567010294E+01  0.71548294671E+01  0.17098056843E+02  0.00000000000E+00 0.  1.
</event>
<event>
 7    1  0.5987893E-013  0.5930194E+02  0.7816164E-02  0.1266605E+00
        -11   -1    0    0    0    0  0.00000000000E+00  0.00000000000E+00  0.45593999997E+02  0.45594000000E+02  0.51100000000E-03 0.  1.
         11   -1    0    0    0    0 -0.00000000000E+00 -0.00000000000E+00 -0.45593999997E+02  0.45594000000E+02  0.51100000000E-03 0. -1.
    9900012    2    1    2    0    0 -0.21690494223E+02 -0.12578155933E+02 -0.19698552350E+02  0.59301944882E+02  0.50000001557E+02 0.  0.
        -12    1    1    2    0    0  0.21690494223E+02  0.12578155933E+02  0.19698552350E+02  0.31886055118E+02  0.00000000000E+00 0.  1.
         11    1    3    3    0    0 -0.79871711914E+01 -0.85377172361E+01 -0.12996901854E+02  0.17481618269E+02  0.51100000000E-03 0. -1.
        -11    1    3    3    0    0  0.44227337513E+01  0.13410721834E+02  0.36933628164E+01  0.14596196871E+02  0.51100000000E-03 0.  1.
        -12    1    3    3    0    0 -0.18126056783E+02 -0.17451160531E+02 -0.10395013312E+02  0.27224129741E+02  0.00000000000E+00 0.  1.
</event>
<event>
 7    1  0.5987893E-013  0.5930191E+02  0.7816164E-02  0.1266605E+00
        -11   -1    0    0    0    0  0.00000000000E+00  0.00000000000E+00  0.45593999997E+02  0.45594000000E+02  0.51100000000E-03 0. -1.
         11   -1    0    0    0    0 -0.00000000000E+00 -0.00000000000E+00 -0.45593999997E+02  0.45594000000E+02  0.51100000000E-03 0.  1.
    9900012    2    1    2    0    0 -0.87679155656E+01  0.75122116511E+01  0.29722261491E+02  0.59301913765E+02  0.49999944807E+02 0.  0.
        -12    1    1    2    0    0  0.87679155656E+01 -0.75122116511E+01 -0.29722261491E+02  0.31886086235E+02  0.00000000000E+00 0.  1.
         11    1    3    3    0    0  0.89403466605E+01 -0.11861511811E+02  0.17358369563E+02  0.22845968025E+02  0.51100000000E-03 0. -1.
        -11    1    3    3    0    0 -0.10770176082E+02  0.12031935238E+02 -0.45307374329E+01  0.16771754242E+02  0.51100000000E-03 0.  1.
         12    1    3    3    0    0 -0.69380861442E+01  0.73417882239E+01  0.16894629361E+02  0.19684191497E+02  0.00000000000E+00 0. -1.
</event>
<event>
 7    1  0.5987893E-013  0.5930191E+02  0.7816164E-02  0.1266605E+00
        -11   -1    0    0    0    0  0.00000000000E+00  0.00000000000E+00  0.45593999997E+02  0.45594000000E+02  0.51100000000E-03 0. -1.
         11   -1    0    0    0    0 -0.00000000000E+00 -0.00000000000E+00 -0.45593999997E+02  0.45594000000E+02  0.51100000000E-03 0.  1.
    9900012    2    1    2    0    0 -0.22325109562E+02  0.34279076753E+01  0.22506923910E+02  0.59301910684E+02  0.49999939188E+02 0.  0.
        -12    1    1    2    0    0  0.22325109562E+02 -0.34279076753E+01 -0.22506923910E+02  0.31886089316E+02  0.00000000000E+00 0.  1.
         11    1    3    3    0    0  0.51700575562E+01 -0.17396830193E+02  0.51535474353E+01  0.18866325750E+02  0.51100000000E-03 0. -1.
        -11    1    3    3    0    0 -0.57699626723E+00  0.55303882143E+01  0.28099703362E+01  0.62300924587E+01  0.51100000000E-03 0.  1.
         12    1    3    3    0    0 -0.26918170851E+02  0.15294349654E+02  0.14543406139E+02  0.34205492475E+02  0.00000000000E+00 0. -1.
</event>
<event>
 7    1  0.5987893E-013  0.5930196E+02  0.7816164E-02  0.1266605E+00
        -11   -1    0    0    0    0  0.00000000000E+00  0.00000000000E+00  0.45593999997E+02  0.45594000000E+02  0.51100000000E-03 0.  1.
         11   -1    0    0    0    0 -0.00000000000E+00 -0.00000000000E+00 -0.45593999997E+02  0.45594000000E+02  0.51100000000E-03 0. -1.
    9900012    2    1    2    0    0  0.25737650057E+02 -0.18050976285E+02 -0.53343385314E+01  0.59301960063E+02  0.50000029245E+02 0.  0.
        -12    1    1    2    0    0 -0.25737650057E+02  0.18050976285E+02  0.53343385314E+01  0.31886039937E+02  0.00000000000E+00 0.  1.
         11    1    3    3    0    0  0.16893774886E+02 -0.10421742447E+02  0.14902561015E+02  0.24821334988E+02  0.51100000000E-03 0. -1.
        -11    1    3    3    0    0 -0.86953853458E+01 -0.22892160981E+00 -0.82238885966E+01  0.11970567043E+02  0.51100000000E-03 0.  1.
         12    1    3    3    0    0  0.17539260516E+02 -0.74003122280E+01 -0.12013010950E+02  0.22510058032E+02  0.00000000000E+00 0. -1.
</event>
<event>
 7    1  0.5987893E-013  0.5930195E+02  0.7816164E-02  0.1266605E+00
        -11   -1    0    0    0    0  0.00000000000E+00  0.00000000000E+00  0.45593999997E+02  0.45594000000E+02  0.51100000000E-03 0.  1.
         11   -1    0    0    0    0 -0.00000000000E+00 -0.00000000000E+00 -0.45593999997E+02  0.45594000000E+02  0.51100000000E-03 0. -1.
    9900012    2    1    2    0    0 -0.15477819148E+02 -0.11517674650E+02 -0.25387014837E+02  0.59301949174E+02  0.50000009385E+02 0.  0.
        -12    1    1    2    0    0  0.15477819148E+02  0.11517674650E+02  0.25387014837E+02  0.31886050826E+02  0.00000000000E+00 0.  1.
         11    1    3    3    0    0  0.27966932312E+01  0.17877633458E+01 -0.25939952276E+02  0.26151457228E+02  0.51100000000E-03 0. -1.
        -11    1    3    3    0    0 -0.12877483443E+02 -0.13984348090E+02  0.10570403251E+02  0.21751436653E+02  0.51100000000E-03 0.  1.
        -12    1    3    3    0    0 -0.53970289362E+01  0.67891009333E+00 -0.10017465813E+02  0.11399055292E+02  0.00000000000E+00 0.  1.
</event>
<event>
 7    1  0.5987893E-013  0.5930195E+02  0.7816164E-02  0.1266605E+00
        -11   -1    0    0    0    0  0.00000000000E+00  0.00000000000E+00  0.45593999997E+02  0.45594000000E+02  0.51100000000E-03 0. -1.
         11   -1    0    0    0    0 -0.00000000000E+00 -0.00000000000E+00 -0.45593999997E+02  0.45594000000E+02  0.51100000000E-03 0.  1.
    9900012    2    1    2    0    0 -0.42898318559E+01  0.27205101048E+02  0.16068608156E+02  0.59301947431E+02  0.50000006206E+02 0.  0.
        -12    1    1    2    0    0  0.42898318559E+01 -0.27205101048E+02 -0.16068608156E+02  0.31886052569E+02  0.00000000000E+00 0.  1.
         11    1    3    3    0    0 -0.26321782592E+01  0.84983292648E+01  0.14783095707E+02  0.17253691826E+02  0.51100000000E-03 0. -1.
        -11    1    3    3    0    0 -0.16917159108E+02  0.19639045187E+02 -0.31959891886E+01  0.26116981359E+02  0.51100000000E-03 0.  1.
        -12    1    3    3    0    0  0.15259505511E+02 -0.93227340415E+00  0.44815016377E+01  0.15931274245E+02  0.00000000000E+00 0.  1.
</event>
<event>
 7    1  0.5987893E-013  0.5930197E+02  0.7816164E-02  0.1266605E+00
        -11   -1    0    0    0    0  0.00000000000E+00  0.00000000000E+00  0.45593999997E+02  0.45594000000E+02  0.51100000000E-03 0.  1.
         11   -1    0    0    0    0 -0.00000000000E+00 -0.00000000000E+00 -0.45593999997E+02  0.45594000000E+02  0.51100000000E-03 0. -1.
    9900012    2    1    2    0    0  0.14835548126E+02 -0.27957724341E+02 -0.38718368545E+01  0.59301969216E+02  0.50000045936E+02 0.  0.
        -12    1    1    2    0    0 -0.14835548126E+02  0.27957724341E+02  0.38718368545E+01  0.31886030784E+02  0.00000000000E+00 0.  1.
         11    1    3    3    0    0 -0.43148773573E+01 -0.22536547972E+02 -0.44797311224E+00  0.22950268872E+02  0.51100000000E-03 0. -1.
        -11    1    3    3    0    0  0.29919909591E+01  0.62873376114E+01 -0.12594194277E+02  0.14390842710E+02  0.51100000000E-03 0.  1.
        -12    1    3    3    0    0  0.16158434524E+02 -0.11708513981E+02  0.91703305349E+01  0.21960857634E+02  0.00000000000E+00 0.  1.
</event>
<event>
 7    1  0.5987893E-013  0.5930230E+02  0.7816164E-02  0.1266604E+00
        -11   -1    0    0    0    0  0.00000000000E+00  0.00000000000E+00  0.45593999997E+02  0.45594000000E+02  0.51100000000E-03 0. -1.
         11   -1    0    0    0    0 -0.00000000000E+00 -0.00000000000E+00 -0.45593999997E+02  0.45594000000E+02  0.51100000000E-03 0.  1.
    9900012    2    1    2    0    0 -0.27380438108E+02  0.96850283849E+00 -0.16311704003E+02  0.59302296680E+02  0.50000643149E+02 0.  0.
        -12    1    1    2    0    0  0.27380438108E+02 -0.96850283849E+00  0.16311704003E+02  0.31885703320E+02  0.00000000000E+00 0.  1.
         11    1    3    3    0    0 -0.22839836334E+02 -0.18189574429E+01 -0.12479886473E+02  0.26090502038E+02  0.51100000000E-03 0. -1.
        -11    1    3    3    0    0  0.67244104753E+01  0.14957068745E+02 -0.22651794849E+01  0.16554837360E+02  0.51100000000E-03 0.  1.
        -12    1    3    3    0    0 -0.11265012249E+02 -0.12169608463E+02 -0.15666380450E+01  0.16656957282E+02  0.00000000000E+00 0.  1.
</event>
<event>
 7    1  0.5987893E-013  0.5930199E+02  0.7816164E-02  0.1266605E+00
        -11   -1    0    0    0    0  0.00000000000E+00  0.00000000000E+00  0.45593999997E+02  0.45594000000E+02  0.51100000000E-03 0.  1.
         11   -1    0    0    0    0 -0.00000000000E+00 -0.00000000000E+00 -0.45593999997E+02  0.45594000000E+02  0.51100000000E-03 0. -1.
    9900012    2    1    2    0    0 -0.27266843050E+02 -0.15308900896E+02  0.62349588875E+01  0.59301985999E+02  0.50000076546E+02 0.  0.
        -12    1    1    2    0    0  0.27266843050E+02  0.15308900896E+02 -0.62349588875E+01  0.31886014001E+02  0.00000000000E+00 0.  1.
         11    1    3    3    0    0  0.33116302466E+01  0.36689815817E+01 -0.33316380348E+01  0.59605480447E+01  0.51100000000E-03 0. -1.
        -11    1    3    3    0    0 -0.14559611461E+02 -0.20933201658E+02  0.21433416364E+02  0.33310246995E+02  0.51100000000E-03 0.  1.
        -12    1    3    3    0    0 -0.16018861836E+02  0.19553191801E+01 -0.11866819442E+02  0.20031190960E+02  0.00000000000E+00 0.  1.
</event>
<event>
 7    1  0.5987893E-013  0.5930191E+02  0.7816164E-02  0.1266605E+00
        -11   -1    0    0    0    0  0.00000000000E+00  0.00000000000E+00  0.45593999997E+02  0.45594000000E+02  0.51100000000E-03 0.  1.
         11   -1    0    0    0    0 -0.00000000000E+00 -0.00000000000E+00 -0.45593999997E+02  0.45594000000E+02  0.51100000000E-03 0. -1.
    9900012    2    1    2    0    0 -0.17729609658E+02 -0.14257123476E+01 -0.26464150827E+02  0.59301905957E+02  0.49999930569E+02 0.  0.
        -12    1    1    2    0    0  0.17729609658E+02  0.14257123476E+01  0.26464150827E+02  0.31886094043E+02  0.00000000000E+00 0.  1.
         11    1    3    3    0    0 -0.12610129442E+02 -0.57576007835E+00 -0.12870027449E+02  0.18027325676E+02  0.51100000000E-03 0. -1.
        -11    1    3    3    0    0  0.92602308553E+01 -0.60417762751E+01 -0.21415766061E+02  0.24101659119E+02  0.51100000000E-03 0.  1.
        -12    1    3    3    0    0 -0.14379711071E+02  0.51918240058E+01  0.78216426834E+01  0.17172921162E+02  0.00000000000E+00 0.  1.
</event>
<event>
 7    1  0.5987893E-013  0.5930202E+02  0.7816164E-02  0.1266604E+00
        -11   -1    0    0    0    0  0.00000000000E+00  0.00000000000E+00  0.45593999997E+02  0.45594000000E+02  0.51100000000E-03 0.  1.
         11   -1    0    0    0    0 -0.00000000000E+00 -0.00000000000E+00 -0.45593999997E+02  0.45594000000E+02  0.51100000000E-03 0. -1.
    9900012    2    1    2    0    0  0.15313791744E+02 -0.24911755409E+02 -0.12712499608E+02  0.59302024691E+02  0.50000147110E+02 0.  0.
        -12    1    1    2    0    0 -0.15313791744E+02  0.24911755409E+02  0.12712499608E+02  0.31885975309E+02  0.00000000000E+00 0.  1.
         11    1    3    3    0    0 -0.96627610446E+01 -0.10864347718E+02 -0.18630472571E+01  0.14658579320E+02  0.51100000000E-03 0. -1.
        -11    1    3    3    0    0  0.31815177729E+02 -0.15885159748E+02 -0.11869614633E+02  0.37489086225E+02  0.51100000000E-03 0.  1.
        -12    1    3    3    0    0 -0.68386249410E+01  0.18377520565E+01  0.10201622827E+01  0.71543591459E+01  0.00000000000E+00 0.  1.
</event>
<event>
 7    1  0.5987893E-013  0.5930192E+02  0.7816164E-02  0.1266605E+00
        -11   -1    0    0    0    0  0.00000000000E+00  0.00000000000E+00  0.45593999997E+02  0.45594000000E+02  0.51100000000E-03 0. -1.
         11   -1    0    0    0    0 -0.00000000000E+00 -0.00000000000E+00 -0.45593999997E+02  0.45594000000E+02  0.51100000000E-03 0.  1.
    9900012    2    1    2    0    0 -0.27418206752E+02 -0.14098540776E+02  0.81360427148E+01  0.59301919893E+02  0.49999955985E+02 0.  0.
        -12    1    1    2    0    0  0.27418206752E+02  0.14098540776E+02 -0.81360427148E+01  0.31886080107E+02  0.00000000000E+00 0.  1.
         11    1    3    3    0    0 -0.18682875878E+02 -0.14802324711E+02  0.18802444677E+02  0.30359357602E+02  0.51100000000E-03 0. -1.
        -11    1    3    3    0    0 -0.14941284403E+02 -0.51556058783E+01 -0.12573711605E+02  0.20197041253E+02  0.51100000000E-03 0.  1.
        -12    1    3    3    0    0  0.62059535286E+01  0.58593898125E+01  0.19073096432E+01  0.87455210393E+01  0.00000000000E+00 0.  1.
</event>
<event>
 7    1  0.5987893E-013  0.5930195E+02  0.7816164E-02  0.1266605E+00
        -11   -1    0    0    0    0  0.00000000000E+00  0.00000000000E+00  0.45593999997E+02  0.45594000000E+02  0.51100000000E-03 0. -1.
         11   -1    0    0    0    0 -0.00000000000E+00 -0.00000000000E+00 -0.45593999997E+02  0.45594000000E+02  0.51100000000E-03 0.  1.
    9900012    2    1    2    0    0  0.26517146101E+02  0.14896809995E+02 -0.95731934548E+01  0.59301952608E+02  0.50000015649E+02 0.  0.
        -12    1    1    2    0    0 -0.26517146101E+02 -0.14896809995E+02  0.95731934548E+01  0.31886047392E+02  0.00000000000E+00 0.  1.
         11    1    3    3    0    0  0.25789789081E+02  0.10781149451E+02 -0.12602231407E+02  0.30662071701E+02  0.51100000000E-03 0. -1.
        -11    1    3    3    0    0 -0.36244891750E+01 -0.96341441351E+01 -0.57156353647E+01  0.11773790506E+02  0.51100000000E-03 0.  1.
         12    1    3    3    0    0  0.43518461948E+01  0.13749804679E+02  0.87446733164E+01  0.16866090401E+02  0.00000000000E+00 0. -1.
</event>
<event>
 7    1  0.5987893E-013  0.5930205E+02  0.7816164E-02  0.1266604E+00
        -11   -1    0    0    0    0  0.00000000000E+00  0.00000000000E+00  0.45593999997E+02  0.45594000000E+02  0.51100000000E-03 0. -1.
         11   -1    0    0    0    0 -0.00000000000E+00 -0.00000000000E+00 -0.45593999997E+02  0.45594000000E+02  0.51100000000E-03 0.  1.
    9900012    2    1    2    0    0 -0.72915821301E+01  0.26079871614E+01  0.30931296691E+02  0.59302048830E+02  0.50000191135E+02 0.  0.
        -12    1    1    2    0    0  0.72915821301E+01 -0.26079871614E+01 -0.30931296691E+02  0.31885951170E+02  0.00000000000E+00 0.  1.
         11    1    3    3    0    0 -0.73604818425E+01  0.13560552261E+02  0.36916891134E+01  0.15864861782E+02  0.51100000000E-03 0. -1.
        -11    1    3    3    0    0  0.25794157106E+01 -0.57076732346E+00  0.31737840279E+02  0.31847600641E+02  0.51100000000E-03 0.  1.
        -12    1    3    3    0    0 -0.25105159982E+01 -0.10381797777E+02 -0.44982327018E+01  0.11589586407E+02  0.00000000000E+00 0.  1.
</event>
<event>
 7    1  0.5987893E-013  0.5930194E+02  0.7816164E-02  0.1266605E+00
        -11   -1    0    0    0    0  0.00000000000E+00  0.00000000000E+00  0.45593999997E+02  0.45594000000E+02  0.51100000000E-03 0.  1.
         11   -1    0    0    0    0 -0.00000000000E+00 -0.00000000000E+00 -0.45593999997E+02  0.45594000000E+02  0.51100000000E-03 0. -1.
    9900012    2    1    2    0    0  0.28499000436E+02  0.82213792805E+01  0.11701983954E+02  0.59301944559E+02  0.50000000968E+02 0.  0.
        -12    1    1    2    0    0 -0.28499000436E+02 -0.82213792805E+01 -0.11701983954E+02  0.31886055441E+02  0.00000000000E+00 0.  1.
         11    1    3    3    0    0  0.36686296420E+01 -0.31388034843E+01 -0.42842737271E+01  0.64549153669E+01  0.51100000000E-03 0. -1.
        -11    1    3    3    0    0  0.33623651331E+00  0.37014964690E+00  0.24636195183E+02  0.24641269835E+02  0.51100000000E-03 0.  1.
        -12    1    3    3    0    0  0.24494134281E+02  0.10990033118E+02 -0.86499375015E+01  0.28205759357E+02  0.00000000000E+00 0.  1.
</event>
<event>
 7    1  0.5987893E-013  0.5930194E+02  0.7816164E-02  0.1266605E+00
        -11   -1    0    0    0    0  0.00000000000E+00  0.00000000000E+00  0.45593999997E+02  0.45594000000E+02  0.51100000000E-03 0.  1.
         11   -1    0    0    0    0 -0.00000000000E+00 -0.00000000000E+00 -0.45593999997E+02  0.45594000000E+02  0.51100000000E-03 0. -1.
    9900012    2    1    2    0    0 -0.70143957783E+00  0.13450832425E+02 -0.28901624696E+02  0.59301940029E+02  0.49999992707E+02 0.  0.
        -12    1    1    2    0    0  0.70143957783E+00 -0.13450832425E+02  0.28901624696E+02  0.31886059971E+02  0.00000000000E+00 0.  1.
         11    1    3    3    0    0 -0.17499177769E+02 -0.52761994548E+01 -0.17881252866E+02  0.25569487824E+02  0.51100000000E-03 0. -1.
        -11    1    3    3    0    0  0.18831255727E+01  0.16538676245E+02 -0.74746234037E+01  0.18246752290E+02  0.51100000000E-03 0.  1.
         12    1    3    3    0    0  0.14914612618E+02  0.21883556355E+01 -0.35457484265E+01  0.15485699915E+02  0.00000000000E+00 0. -1.
</event>
<event>
 7    1  0.5987893E-013  0.5930196E+02  0.7816164E-02  0.1266605E+00
        -11   -1    0    0    0    0  0.00000000000E+00  0.00000000000E+00  0.45593999997E+02  0.45594000000E+02  0.51100000000E-03 0. -1.
         11   -1    0    0    0    0 -0.00000000000E+00 -0.00000000000E+00 -0.45593999997E+02  0.45594000000E+02  0.51100000000E-03 0.  1.
    9900012    2    1    2    0    0 -0.15735373873E+02 -0.20062664292E+02  0.19146983784E+02  0.59301961089E+02  0.50000031115E+02 0.  0.
        -12    1    1    2    0    0  0.15735373873E+02  0.20062664292E+02 -0.19146983784E+02  0.31886038911E+02  0.00000000000E+00 0.  1.
         11    1    3    3    0    0 -0.12583679531E+02  0.96075722446E+01 -0.56113540128E+01  0.16797075016E+02  0.51100000000E-03 0. -1.
        -11    1    3    3    0    0 -0.56888988677E-01 -0.26350400817E+02  0.11982787331E+02  0.28947090562E+02  0.51100000000E-03 0.  1.
         12    1    3    3    0    0 -0.30948053535E+01 -0.33198357199E+01  0.12775550467E+02  0.13557795511E+02  0.00000000000E+00 0. -1.
</event>
<event>
 7    1  0.5987893E-013  0.5930194E+02  0.7816164E-02  0.1266605E+00
        -11   -1    0    0    0    0  0.00000000000E+00  0.00000000000E+00  0.45593999997E+02  0.45594000000E+02  0.51100000000E-03 0.  1.
         11   -1    0    0    0    0 -0.00000000000E+00 -0.00000000000E+00 -0.45593999997E+02  0.45594000000E+02  0.51100000000E-03 0. -1.
    9900012    2    1    2    0    0  0.14331084896E+02  0.25631255954E+02  0.12424943967E+02  0.59301944918E+02  0.50000001624E+02 0.  0.
        -12    1    1    2    0    0 -0.14331084896E+02 -0.25631255954E+02 -0.12424943967E+02  0.31886055082E+02  0.00000000000E+00 0.  1.
         11    1    3    3    0    0  0.41415832713E+01 -0.22312437696E+00 -0.47143523560E-02  0.41475919479E+01  0.51100000000E-03 0. -1.
        -11    1    3    3    0    0 -0.11889757772E+02 -0.43077935354E+00  0.16760899537E+02  0.20554310115E+02  0.51100000000E-03 0.  1.
        -12    1    3    3    0    0  0.22079259396E+02  0.26285159685E+02 -0.43312412179E+01  0.34600042856E+02  0.00000000000E+00 0.  1.
</event>
<event>
 7    1  0.5987893E-013  0.5930196E+02  0.7816164E-02  0.1266605E+00
        -11   -1    0    0    0    0  0.00000000000E+00  0.00000000000E+00  0.45593999997E+02  0.45594000000E+02  0.51100000000E-03 0.  1.
         11   -1    0    0    0    0 -0.00000000000E+00 -0.00000000000E+00 -0.45593999997E+02  0.45594000000E+02  0.51100000000E-03 0. -1.
    9900012    2    1    2    0    0 -0.19928254189E+02  0.15036740671E+02 -0.19836348991E+02  0.59301958754E+02  0.50000026857E+02 0.  0.
        -12    1    1    2    0    0  0.19928254189E+02 -0.15036740671E+02  0.19836348991E+02  0.31886041246E+02  0.00000000000E+00 0.  1.
         11    1    3    3    0    0 -0.31144369988E+01 -0.32197741838E+01 -0.69024136191E+01  0.82286072724E+01  0.51100000000E-03 0. -1.
        -11    1    3    3    0    0 -0.25337750798E+02  0.27114669191E+02 -0.94168139421E+01  0.38286855263E+02  0.51100000000E-03 0.  1.
        -12    1    3    3    0    0  0.85239336075E+01 -0.88581543361E+01 -0.35171214302E+01  0.12786496218E+02  0.00000000000E+00 0.  1.
</event>
<event>
 7    1  0.5987893E-013  0.5930190E+02  0.7816164E-02  0.1266605E+00
        -11   -1    0    0    0    0  0.00000000000E+00  0.00000000000E+00  0.45593999997E+02  0.45594000000E+02  0.51100000000E-03 0. -1.
         11   -1    0    0    0    0 -0.00000000000E+00 -0.00000000000E+00 -0.45593999997E+02  0.45594000000E+02  0.51100000000E-03 0.  1.
    9900012    2    1    2    0    0  0.12213838803E+02  0.23992610953E+02  0.17085079751E+02  0.59301902893E+02  0.49999924980E+02 0.  0.
        -12    1    1    2    0    0 -0.12213838803E+02 -0.23992610953E+02 -0.17085079751E+02  0.31886097107E+02  0.00000000000E+00 0.  1.
         11    1    3    3    0    0  0.10594320077E+02  0.36705389832E+02  0.90612813151E+01  0.39263622858E+02  0.51100000000E-03 0. -1.
        -11    1    3    3    0    0  0.65287889706E+01 -0.90231078854E+01  0.17769235956E+01  0.11278254256E+02  0.51100000000E-03 0.  1.
        -12    1    3    3    0    0 -0.49092702451E+01 -0.36896709938E+01  0.62468748399E+01  0.87600257789E+01  0.00000000000E+00 0.  1.
</event>
<event>
 7    1  0.5987893E-013  0.5930193E+02  0.7816164E-02  0.1266605E+00
        -11   -1    0    0    0    0  0.00000000000E+00  0.00000000000E+00  0.45593999997E+02  0.45594000000E+02  0.51100000000E-03 0. -1.
         11   -1    0    0    0    0 -0.00000000000E+00 -0.00000000000E+00 -0.45593999997E+02  0.45594000000E+02  0.51100000000E-03 0.  1.
    9900012    2    1    2    0    0 -0.28867797662E+01  0.39620962629E+01  0.31506975312E+02  0.59301934117E+02  0.49999981924E+02 0.  0.
        -12    1    1    2    0    0  0.28867797662E+01 -0.39620962629E+01 -0.31506975312E+02  0.31886065883E+02  0.00000000000E+00 0.  1.
         11    1    3    3    0    0  0.58552519868E+01 -0.61329593363E+01  0.13126691379E+01  0.85802253221E+01  0.51100000000E-03 0. -1.
        -11    1    3    3    0    0 -0.10952185686E+02  0.64473610906E+01  0.38956214699E+02  0.40976889831E+02  0.51100000000E-03 0.  1.
        -12    1    3    3    0    0  0.22101539332E+01  0.36476945086E+01 -0.87619085244E+01  0.97448189633E+01  0.00000000000E+00 0.  1.
</event>
<event>
 7    1  0.5987893E-013  0.5930196E+02  0.7816164E-02  0.1266605E+00
        -11   -1    0    0    0    0  0.00000000000E+00  0.00000000000E+00  0.45593999997E+02  0.45594000000E+02  0.51100000000E-03 0.  1.
         11   -1    0    0    0    0 -0.00000000000E+00 -0.00000000000E+00 -0.45593999997E+02  0.45594000000E+02  0.51100000000E-03 0. -1.
    9900012    2    1    2    0    0 -0.19055766386E+02  0.13716316778E+02 -0.21574521264E+02  0.59301960010E+02  0.50000029147E+02 0.  0.
        -12    1    1    2    0    0  0.19055766386E+02 -0.13716316778E+02  0.21574521264E+02  0.31886039990E+02  0.00000000000E+00 0.  1.
         11    1    3    3    0    0 -0.53389020731E+01  0.21259268268E+02  0.97671645106E+01  0.23997038681E+02  0.51100000000E-03 0. -1.
        -11    1    3    3    0    0 -0.92526606261E+01 -0.28060576088E+01 -0.17048093607E+02  0.19599060790E+02  0.51100000000E-03 0.  1.
         12    1    3    3    0    0 -0.44642036867E+01 -0.47368938812E+01 -0.14293592168E+02  0.15705860539E+02  0.00000000000E+00 0. -1.
</event>
<event>
 7    1  0.5987893E-013  0.5930194E+02  0.7816164E-02  0.1266605E+00
        -11   -1    0    0    0    0  0.00000000000E+00  0.00000000000E+00  0.45593999997E+02  0.45594000000E+02  0.51100000000E-03 0. -1.
         11   -1    0    0    0    0 -0.00000000000E+00 -0.00000000000E+00 -0.45593999997E+02  0.45594000000E+02  0.51100000000E-03 0.  1.
    9900012    2    1    2    0    0 -0.28779908891E+02 -0.13725152218E+02  0.24042114549E+00  0.59301940954E+02  0.49999994394E+02 0.  0.
        -12    1    1    2    0    0  0.28779908891E+02  0.13725152218E+02 -0.24042114549E+00  0.31886059046E+02  0.00000000000E+00 0.  1.
         11    1    3    3    0    0 -0.34455284560E+02 -0.19763534185E+02  0.11880141151E+02  0.41459639068E+02  0.51100000000E-03 0. -1.
        -11    1    3    3    0    0  0.52408010266E+01  0.79541432511E+01 -0.12484932693E+02  0.15703755439E+02  0.51100000000E-03 0.  1.
        -12    1    3    3    0    0  0.43457464285E+00 -0.19157612841E+01  0.84521268837E+00  0.21385464471E+01  0.00000000000E+00 0.  1.
</event>
<event>
 7    1  0.5987893E-013  0.5930193E+02  0.7816164E-02  0.1266605E+00
        -11   -1    0    0    0    0  0.00000000000E+00  0.00000000000E+00  0.45593999997E+02  0.45594000000E+02  0.51100000000E-03 0.  1.
         11   -1    0    0    0    0 -0.00000000000E+00 -0.00000000000E+00 -0.45593999997E+02  0.45594000000E+02  0.51100000000E-03 0. -1.
    9900012    2    1    2    0    0 -0.11335920729E+02  0.18481089218E+01 -0.29745632086E+02  0.59301933552E+02  0.49999980894E+02 0.  0.
        -12    1    1    2    0    0  0.11335920729E+02 -0.18481089218E+01  0.29745632086E+02  0.31886066448E+02  0.00000000000E+00 0.  1.
         11    1    3    3    0    0  0.17525909749E+02  0.48347495330E+01 -0.18022675352E+02  0.25599787942E+02  0.51100000000E-03 0. -1.
        -11    1    3    3    0    0 -0.65743896784E+01 -0.57767086389E+01 -0.98813067633E+00  0.88073472077E+01  0.51100000000E-03 0.  1.
         12    1    3    3    0    0 -0.22287440799E+02  0.27900680277E+01 -0.10734826057E+02  0.24894798402E+02  0.00000000000E+00 0. -1.
</event>
<event>
 7    1  0.5987893E-013  0.5930188E+02  0.7816164E-02  0.1266605E+00
        -11   -1    0    0    0    0  0.00000000000E+00  0.00000000000E+00  0.45593999997E+02  0.45594000000E+02  0.51100000000E-03 0. -1.
         11   -1    0    0    0    0 -0.00000000000E+00 -0.00000000000E+00 -0.45593999997E+02  0.45594000000E+02  0.51100000000E-03 0.  1.
    9900012    2    1    2    0    0  0.91494486726E+01  0.10839889440E+02  0.28557122163E+02  0.59301876995E+02  0.49999877748E+02 0.  0.
        -12    1    1    2    0    0 -0.91494486726E+01 -0.10839889440E+02 -0.28557122163E+02  0.31886123005E+02  0.00000000000E+00 0.  1.
         11    1    3    3    0    0  0.11815650223E+02  0.10433970105E+02  0.13466400826E+02  0.20732131435E+02  0.51100000000E-03 0. -1.
        -11    1    3    3    0    0 -0.93878554805E+01  0.82193335122E+01 -0.69181234896E+01  0.14267084733E+02  0.51100000000E-03 0.  1.
        -12    1    3    3    0    0  0.67216539296E+01 -0.78134141777E+01  0.22008844826E+02  0.24302660826E+02  0.00000000000E+00 0.  1.
</event>
<event>
 7    1  0.5987893E-013  0.5930196E+02  0.7816164E-02  0.1266605E+00
        -11   -1    0    0    0    0  0.00000000000E+00  0.00000000000E+00  0.45593999997E+02  0.45594000000E+02  0.51100000000E-03 0.  1.
         11   -1    0    0    0    0 -0.00000000000E+00 -0.00000000000E+00 -0.45593999997E+02  0.45594000000E+02  0.51100000000E-03 0. -1.
    9900012    2    1    2    0    0 -0.31230144510E+02 -0.53509835596E+01 -0.35727362734E+01  0.59301962371E+02  0.50000033455E+02 0.  0.
        -12    1    1    2    0    0  0.31230144510E+02  0.53509835596E+01  0.35727362734E+01  0.31886037629E+02  0.00000000000E+00 0.  1.
         11    1    3    3    0    0 -0.33303373723E+02 -0.44074761469E+01  0.11967115922E+02  0.35661637807E+02  0.51100000000E-03 0. -1.
        -11    1    3    3    0    0  0.13514107009E+01 -0.84575784539E+01 -0.13203912282E+02  0.15738495608E+02  0.51100000000E-03 0.  1.
         12    1    3    3    0    0  0.72181851238E+00  0.75140710412E+01 -0.23359399127E+01  0.79018289562E+01  0.00000000000E+00 0. -1.
</event>
<event>
 7    1  0.5987893E-013  0.5930192E+02  0.7816164E-02  0.1266605E+00
        -11   -1    0    0    0    0  0.00000000000E+00  0.00000000000E+00  0.45593999997E+02  0.45594000000E+02  0.51100000000E-03 0.  1.
         11   -1    0    0    0    0 -0.00000000000E+00 -0.00000000000E+00 -0.45593999997E+02  0.45594000000E+02  0.51100000000E-03 0. -1.
    9900012    2    1    2    0    0 -0.14943600598E+02  0.25759688814E+02 -0.11395136063E+02  0.59301923219E+02  0.49999962049E+02 0.  0.
        -12    1    1    2    0    0  0.14943600598E+02 -0.25759688814E+02  0.11395136063E+02  0.31886076781E+02  0.00000000000E+00 0.  1.
         11    1    3    3    0    0 -0.78568623153E+01  0.38707203957E+02 -0.14173612432E+02  0.41962712177E+02  0.51100000000E-03 0. -1.
        -11    1    3    3    0    0 -0.29266443449E+01  0.30770618790E+00 -0.68465420890E+00  0.30213708588E+01  0.51100000000E-03 0.  1.
         12    1    3    3    0    0 -0.41600939378E+01 -0.13255221331E+02  0.34631305776E+01  0.14317840183E+02  0.00000000000E+00 0. -1.
</event>
<event>
 7    1  0.5987893E-013  0.5930194E+02  0.7816164E-02  0.1266605E+00
        -11   -1    0    0    0    0  0.00000000000E+00  0.00000000000E+00  0.45593999997E+02  0.45594000000E+02  0.51100000000E-03 0. -1.
         11   -1    0    0    0    0 -0.00000000000E+00 -0.00000000000E+00 -0.45593999997E+02  0.45594000000E+02  0.51100000000E-03 0.  1.
    9900012    2    1    2    0    0 -0.10276708661E+02  0.28211812935E+02 -0.10733285095E+02  0.59301944444E+02  0.50000000760E+02 0.  0.
        -12    1    1    2    0    0  0.10276708661E+02 -0.28211812935E+02  0.10733285095E+02  0.31886055556E+02  0.00000000000E+00 0.  1.
         11    1    3    3    0    0  0.46018832148E+01 -0.14050725377E+01 -0.18919741338E+02  0.19521991971E+02  0.51100000000E-03 0.  1.
        -11    1    3    3    0    0  0.14112434210E+00  0.22074866913E+02  0.36866805216E+01  0.22381047313E+02  0.51100000000E-03 0. -1.
        -12    1    3    3    0    0 -0.15019716218E+02  0.75420185597E+01  0.44997757216E+01  0.17398905160E+02  0.00000000000E+00 0.  1.
</event>
<event>
 7    1  0.5987893E-013  0.5930196E+02  0.7816164E-02  0.1266605E+00
        -11   -1    0    0    0    0  0.00000000000E+00  0.00000000000E+00  0.45593999997E+02  0.45594000000E+02  0.51100000000E-03 0. -1.
         11   -1    0    0    0    0 -0.00000000000E+00 -0.00000000000E+00 -0.45593999997E+02  0.45594000000E+02  0.51100000000E-03 0.  1.
    9900012    2    1    2    0    0 -0.13723802765E+01 -0.20581534077E+02  0.24315355397E+02  0.59301961038E+02  0.50000031023E+02 0.  0.
        -12    1    1    2    0    0  0.13723802765E+01  0.20581534077E+02 -0.24315355397E+02  0.31886038962E+02  0.00000000000E+00 0.  1.
         11    1    3    3    0    0  0.72528390744E+01 -0.92183320411E+01  0.36003107998E+02  0.37865619050E+02  0.51100000000E-03 0. -1.
        -11    1    3    3    0    0 -0.34029144145E+01 -0.27008566026E+01 -0.10360926866E+02  0.11234912491E+02  0.51100000000E-03 0.  1.
         12    1    3    3    0    0 -0.52223049364E+01 -0.86623454337E+01 -0.13268257348E+01  0.10201429497E+02  0.00000000000E+00 0. -1.
</event>
<event>
 7    1  0.5987893E-013  0.5930192E+02  0.7816164E-02  0.1266605E+00
        -11   -1    0    0    0    0  0.00000000000E+00  0.00000000000E+00  0.45593999997E+02  0.45594000000E+02  0.51100000000E-03 0. -1.
         11   -1    0    0    0    0 -0.00000000000E+00 -0.00000000000E+00 -0.45593999997E+02  0.45594000000E+02  0.51100000000E-03 0.  1.
    9900012    2    1    2    0    0 -0.65487688712E+01  0.25959621258E+02  0.17318596623E+02  0.59301919987E+02  0.49999956155E+02 0.  0.
        -12    1    1    2    0    0  0.65487688712E+01 -0.25959621258E+02 -0.17318596623E+02  0.31886080013E+02  0.00000000000E+00 0.  1.
         11    1    3    3    0    0 -0.20087563416E+02  0.19802900628E+02  0.43088631178E+01  0.28534739860E+02  0.51100000000E-03 0. -1.
        -11    1    3    3    0    0  0.12221597761E+02  0.78462085104E+01 -0.28186916289E+01  0.14794440259E+02  0.51100000000E-03 0.  1.
         12    1    3    3    0    0  0.13171967845E+01 -0.16894878795E+01  0.15828425134E+02  0.15972739868E+02  0.00000000000E+00 0. -1.
</event>
<event>
 7    1  0.5987893E-013  0.5930202E+02  0.7816164E-02  0.1266605E+00
        -11   -1    0    0    0    0  0.00000000000E+00  0.00000000000E+00  0.45593999997E+02  0.45594000000E+02  0.51100000000E-03 0.  1.
         11   -1    0    0    0    0 -0.00000000000E+00 -0.00000000000E+00 -0.45593999997E+02  0.45594000000E+02  0.51100000000E-03 0. -1.
    9900012    2    1    2    0    0  0.21073739084E+02  0.21932254581E+02 -0.95702484723E+01  0.59302016781E+02  0.50000132685E+02 0.  0.
        -12    1    1    2    0    0 -0.21073739084E+02 -0.21932254581E+02  0.95702484723E+01  0.31885983219E+02  0.00000000000E+00 0.  1.
         11    1    3    3    0    0 -0.14441862580E+02  0.11279324226E+02 -0.88765851062E+01  0.20361343600E+02  0.51100000000E-03 0. -1.
        -11    1    3    3    0    0  0.27896053013E+02  0.28830936038E+01 -0.15910432971E+00  0.28045094347E+02  0.51100000000E-03 0.  1.
         12    1    3    3    0    0  0.76195486509E+01  0.77698367517E+01 -0.53455903643E+00  0.10895578835E+02  0.00000000000E+00 0. -1.
</event>
<event>
 7    1  0.5987893E-013  0.5930209E+02  0.7816164E-02  0.1266604E+00
        -11   -1    0    0    0    0  0.00000000000E+00  0.00000000000E+00  0.45593999997E+02  0.45594000000E+02  0.51100000000E-03 0. -1.
         11   -1    0    0    0    0 -0.00000000000E+00 -0.00000000000E+00 -0.45593999997E+02  0.45594000000E+02  0.51100000000E-03 0.  1.
    9900012    2    1    2    0    0  0.18773297912E+02  0.11109487769E+02  0.23256267503E+02  0.59302087575E+02  0.50000261796E+02 0.  0.
        -12    1    1    2    0    0 -0.18773297912E+02 -0.11109487769E+02 -0.23256267503E+02  0.31885912425E+02  0.00000000000E+00 0.  1.
         11    1    3    3    0    0  0.12154927378E+02 -0.22182208632E+01 -0.10219113514E+02  0.16034121261E+02  0.51100000000E-03 0. -1.
        -11    1    3    3    0    0 -0.47728283406E+01  0.82399682382E+01  0.28125015539E+02  0.29693323598E+02  0.51100000000E-03 0.  1.
        -12    1    3    3    0    0  0.11391198875E+02  0.50877403942E+01  0.53503654774E+01  0.13574642716E+02  0.00000000000E+00 0.  1.
</event>
<event>
 7    1  0.5987893E-013  0.5930201E+02  0.7816164E-02  0.1266605E+00
        -11   -1    0    0    0    0  0.00000000000E+00  0.00000000000E+00  0.45593999997E+02  0.45594000000E+02  0.51100000000E-03 0.  1.
         11   -1    0    0    0    0 -0.00000000000E+00 -0.00000000000E+00 -0.45593999997E+02  0.45594000000E+02  0.51100000000E-03 0. -1.
    9900012    2    1    2    0    0 -0.69953390333E+01  0.57358031907E+01 -0.30575846769E+02  0.59302006020E+02  0.50000113059E+02 0.  0.
        -12    1    1    2    0    0  0.69953390333E+01 -0.57358031907E+01  0.30575846769E+02  0.31885993980E+02  0.00000000000E+00 0.  1.
         11    1    3    3    0    0 -0.12365900047E+02  0.32539837337E+01  0.10011719842E+02  0.16240025510E+02  0.51100000000E-03 0.  1.
        -11    1    3    3    0    0  0.39827165995E+00  0.56731156932E+01 -0.72982798950E+01  0.92524457129E+01  0.51100000000E-03 0. -1.
         12    1    3    3    0    0  0.49722893538E+01 -0.31912962362E+01 -0.33289286717E+02  0.33809534797E+02  0.00000000000E+00 0. -1.
</event>
<event>
 7    1  0.5987893E-013  0.5930198E+02  0.7816164E-02  0.1266605E+00
        -11   -1    0    0    0    0  0.00000000000E+00  0.00000000000E+00  0.45593999997E+02  0.45594000000E+02  0.51100000000E-03 0. -1.
         11   -1    0    0    0    0 -0.00000000000E+00 -0.00000000000E+00 -0.45593999997E+02  0.45594000000E+02  0.51100000000E-03 0.  1.
    9900012    2    1    2    0    0 -0.29937261201E+02  0.10041700835E+02 -0.44320663479E+01  0.59301975225E+02  0.50000056896E+02 0.  0.
        -12    1    1    2    0    0  0.29937261201E+02 -0.10041700835E+02  0.44320663479E+01  0.31886024775E+02  0.00000000000E+00 0.  1.
         11    1    3    3    0    0 -0.36739031643E+02 -0.47461146898E+00 -0.17540839753E+02  0.40714404842E+02  0.51100000000E-03 0. -1.
        -11    1    3    3    0    0  0.16514008642E+01  0.63114176419E+01  0.62318653487E+01  0.90220431970E+01  0.51100000000E-03 0.  1.
         12    1    3    3    0    0  0.51503695784E+01  0.42048946622E+01  0.68769080569E+01  0.95655271856E+01  0.00000000000E+00 0. -1.
</event>
<event>
 7    1  0.5987893E-013  0.5930196E+02  0.7816164E-02  0.1266605E+00
        -11   -1    0    0    0    0  0.00000000000E+00  0.00000000000E+00  0.45593999997E+02  0.45594000000E+02  0.51100000000E-03 0.  1.
         11   -1    0    0    0    0 -0.00000000000E+00 -0.00000000000E+00 -0.45593999997E+02  0.45594000000E+02  0.51100000000E-03 0. -1.
    9900012    2    1    2    0    0 -0.20123523781E+02 -0.15811064709E+02 -0.19020341701E+02  0.59301962695E+02  0.50000034045E+02 0.  0.
        -12    1    1    2    0    0  0.20123523781E+02  0.15811064709E+02  0.19020341701E+02  0.31886037305E+02  0.00000000000E+00 0.  1.
         11    1    3    3    0    0  0.12367997578E+02 -0.11407125487E+02 -0.19777871805E+02  0.25966403089E+02  0.51100000000E-03 0. -1.
        -11    1    3    3    0    0 -0.81577630803E+01  0.14207408165E+01  0.74935643345E+00  0.83143934396E+01  0.51100000000E-03 0.  1.
         12    1    3    3    0    0 -0.24333758279E+02 -0.58246800389E+01  0.81736713732E-02  0.25021166167E+02  0.00000000000E+00 0. -1.
</event>
<event>
 7    1  0.5987893E-013  0.5930194E+02  0.7816164E-02  0.1266605E+00
        -11   -1    0    0    0    0  0.00000000000E+00  0.00000000000E+00  0.45593999997E+02  0.45594000000E+02  0.51100000000E-03 0. -1.
         11   -1    0    0    0    0 -0.00000000000E+00 -0.00000000000E+00 -0.45593999997E+02  0.45594000000E+02  0.51100000000E-03 0.  1.
    9900012    2    1    2    0    0  0.24647669427E+02 -0.59681765217E+01  0.19328584477E+02  0.59301938514E+02  0.49999989944E+02 0.  0.
        -12    1    1    2    0    0 -0.24647669427E+02  0.59681765217E+01 -0.19328584477E+02  0.31886061486E+02  0.00000000000E+00 0.  1.
         11    1    3    3    0    0 -0.67241781546E+01  0.30229945867E+01 -0.35082342872E+01  0.81646050854E+01  0.51100000000E-03 0. -1.
        -11    1    3    3    0    0  0.94795531526E+01 -0.18339599222E+02  0.46027421382E+01  0.21151549897E+02  0.51100000000E-03 0.  1.
         12    1    3    3    0    0  0.21892294429E+02  0.93484281140E+01  0.18234076626E+02  0.29985783531E+02  0.00000000000E+00 0. -1.
</event>
<event>
 7    1  0.5987893E-013  0.5930192E+02  0.7816164E-02  0.1266605E+00
        -11   -1    0    0    0    0  0.00000000000E+00  0.00000000000E+00  0.45593999997E+02  0.45594000000E+02  0.51100000000E-03 0.  1.
         11   -1    0    0    0    0 -0.00000000000E+00 -0.00000000000E+00 -0.45593999997E+02  0.45594000000E+02  0.51100000000E-03 0. -1.
    9900012    2    1    2    0    0 -0.27228258832E+02 -0.10915217347E+02  0.12498087425E+02  0.59301917800E+02  0.49999952167E+02 0.  0.
        -12    1    1    2    0    0  0.27228258832E+02  0.10915217347E+02 -0.12498087425E+02  0.31886082200E+02  0.00000000000E+00 0.  1.
         11    1    3    3    0    0 -0.19089593199E+02 -0.53837176064E+00 -0.13954350677E+02  0.23652194734E+02  0.51100000000E-03 0. -1.
        -11    1    3    3    0    0 -0.10736875949E+02 -0.11753352147E+02  0.28087676420E+02  0.32285280838E+02  0.51100000000E-03 0.  1.
        -12    1    3    3    0    0  0.25982103155E+01  0.13765065609E+01 -0.16352383177E+01  0.33644422289E+01  0.00000000000E+00 0.  1.
</event>
<event>
 7    1  0.5987893E-013  0.5930194E+02  0.7816164E-02  0.1266605E+00
        -11   -1    0    0    0    0  0.00000000000E+00  0.00000000000E+00  0.45593999997E+02  0.45594000000E+02  0.51100000000E-03 0.  1.
         11   -1    0    0    0    0 -0.00000000000E+00 -0.00000000000E+00 -0.45593999997E+02  0.45594000000E+02  0.51100000000E-03 0. -1.
    9900012    2    1    2    0    0  0.96879819933E+01  0.94487652879E+01 -0.28871866430E+02  0.59301939853E+02  0.49999992386E+02 0.  0.
        -12    1    1    2    0    0 -0.96879819933E+01 -0.94487652879E+01  0.28871866430E+02  0.31886060147E+02  0.00000000000E+00 0.  1.
         11    1    3    3    0    0  0.44167618116E+01 -0.17372373462E+02 -0.23268304587E+02  0.29372115062E+02  0.51100000000E-03 0.  1.
        -11    1    3    3    0    0  0.73433895299E+01  0.26231270590E+02 -0.53537463525E+01  0.27760899244E+02  0.51100000000E-03 0. -1.
        -12    1    3    3    0    0 -0.20721693481E+01  0.58986815976E+00 -0.24981549018E+00  0.21689255479E+01  0.00000000000E+00 0.  1.
</event>
<event>
 7    1  0.5987893E-013  0.5930195E+02  0.7816164E-02  0.1266605E+00
        -11   -1    0    0    0    0  0.00000000000E+00  0.00000000000E+00  0.45593999997E+02  0.45594000000E+02  0.51100000000E-03 0. -1.
         11   -1    0    0    0    0 -0.00000000000E+00 -0.00000000000E+00 -0.45593999997E+02  0.45594000000E+02  0.51100000000E-03 0.  1.
    9900012    2    1    2    0    0  0.93699489776E+01 -0.85540740920E+01  0.29253243555E+02  0.59301946844E+02  0.50000005136E+02 0.  0.
        -12    1    1    2    0    0 -0.93699489776E+01  0.85540740920E+01 -0.29253243555E+02  0.31886053156E+02  0.00000000000E+00 0.  1.
         11    1    3    3    0    0  0.17346117093E+02 -0.68416566779E+01  0.33805091203E+02  0.38606738218E+02  0.51100000000E-03 0. -1.
        -11    1    3    3    0    0 -0.63735286462E+01 -0.99134291495E+01 -0.33554580702E+01  0.12253858332E+02  0.51100000000E-03 0.  1.
        -12    1    3    3    0    0 -0.16026394691E+01  0.82010117354E+01 -0.11963895785E+01  0.84413502934E+01  0.00000000000E+00 0.  1.
</event>
<event>
 7    1  0.5987893E-013  0.5930195E+02  0.7816164E-02  0.1266605E+00
        -11   -1    0    0    0    0  0.00000000000E+00  0.00000000000E+00  0.45593999997E+02  0.45594000000E+02  0.51100000000E-03 0. -1.
         11   -1    0    0    0    0 -0.00000000000E+00 -0.00000000000E+00 -0.45593999997E+02  0.45594000000E+02  0.51100000000E-03 0.  1.
    9900012    2    1    2    0    0 -0.30692071049E+02  0.21309040747E+01  0.83771290113E+01  0.59301948693E+02  0.50000008509E+02 0.  0.
        -12    1    1    2    0    0  0.30692071049E+02 -0.21309040747E+01 -0.83771290113E+01  0.31886051307E+02  0.00000000000E+00 0.  1.
         11    1    3    3    0    0 -0.22653936930E+02  0.71413442751E+01  0.27749307580E+02  0.36527027362E+02  0.51100000000E-03 0. -1.
        -11    1    3    3    0    0 -0.73792184042E+01 -0.13021326714E+01 -0.88342876660E+01  0.11584172503E+02  0.51100000000E-03 0.  1.
         12    1    3    3    0    0 -0.65891571486E+00 -0.37083075290E+01 -0.10537890903E+02  0.11190748828E+02  0.00000000000E+00 0. -1.
</event>
<event>
 7    1  0.5987893E-013  0.5930194E+02  0.7816164E-02  0.1266605E+00
        -11   -1    0    0    0    0  0.00000000000E+00  0.00000000000E+00  0.45593999997E+02  0.45594000000E+02  0.51100000000E-03 0. -1.
         11   -1    0    0    0    0 -0.00000000000E+00 -0.00000000000E+00 -0.45593999997E+02  0.45594000000E+02  0.51100000000E-03 0.  1.
    9900012    2    1    2    0    0  0.23994652722E+02  0.20883032042E+02 -0.22082301237E+01  0.59301942439E+02  0.49999997102E+02 0.  0.
        -12    1    1    2    0    0 -0.23994652722E+02 -0.20883032042E+02  0.22082301237E+01  0.31886057561E+02  0.00000000000E+00 0.  1.
         11    1    3    3    0    0  0.14081693716E+02  0.10880949784E+02  0.37242136133E+01  0.18181279752E+02  0.51100000000E-03 0. -1.
        -11    1    3    3    0    0 -0.12736890042E+02  0.78153418612E+01  0.51555026689E+01  0.15807819090E+02  0.51100000000E-03 0.  1.
        -12    1    3    3    0    0  0.22649849048E+02  0.21867403969E+01 -0.11087946406E+02  0.25312843597E+02  0.00000000000E+00 0.  1.
</event>
<event>
 7    1  0.5987893E-013  0.5930195E+02  0.7816164E-02  0.1266605E+00
        -11   -1    0    0    0    0  0.00000000000E+00  0.00000000000E+00  0.45593999997E+02  0.45594000000E+02  0.51100000000E-03 0.  1.
         11   -1    0    0    0    0 -0.00000000000E+00 -0.00000000000E+00 -0.45593999997E+02  0.45594000000E+02  0.51100000000E-03 0. -1.
    9900012    2    1    2    0    0 -0.15600943218E+02  0.22644855120E+02 -0.16141282252E+02  0.59301954691E+02  0.50000019448E+02 0.  0.
        -12    1    1    2    0    0  0.15600943218E+02 -0.22644855120E+02  0.16141282252E+02  0.31886045309E+02  0.00000000000E+00 0.  1.
         11    1    3    3    0    0 -0.14942288929E+01 -0.20931323358E+01 -0.11247994074E+02  0.11538253504E+02  0.51100000000E-03 0. -1.
        -11    1    3    3    0    0  0.10233636918E+02  0.18984403921E+02  0.24275401402E+01  0.21703176454E+02  0.51100000000E-03 0.  1.
        -12    1    3    3    0    0 -0.24340351243E+02  0.57535835346E+01 -0.73208283181E+01  0.26060524733E+02  0.00000000000E+00 0.  1.
</event>
<event>
 7    1  0.5987893E-013  0.5930193E+02  0.7816164E-02  0.1266605E+00
        -11   -1    0    0    0    0  0.00000000000E+00  0.00000000000E+00  0.45593999997E+02  0.45594000000E+02  0.51100000000E-03 0.  1.
         11   -1    0    0    0    0 -0.00000000000E+00 -0.00000000000E+00 -0.45593999997E+02  0.45594000000E+02  0.51100000000E-03 0. -1.
    9900012    2    1    2    0    0 -0.28153746269E+02 -0.13288155251E+02 -0.68929828518E+01  0.59301926056E+02  0.49999967223E+02 0.  0.
        -12    1    1    2    0    0  0.28153746269E+02  0.13288155251E+02  0.68929828518E+01  0.31886073944E+02  0.00000000000E+00 0.  1.
         11    1    3    3    0    0 -0.25765171841E+02 -0.17040518398E+02 -0.45155767224E+01  0.31218804921E+02  0.51100000000E-03 0. -1.
        -11    1    3    3    0    0 -0.19838322402E+01  0.70517150776E+01 -0.14104849815E+02  0.15893680016E+02  0.51100000000E-03 0.  1.
        -12    1    3    3    0    0 -0.40474218804E+00 -0.32993519309E+01  0.11727443685E+02  0.12189441119E+02  0.00000000000E+00 0.  1.
</event>
<event>
 7    1  0.5987893E-013  0.5930193E+02  0.7816164E-02  0.1266605E+00
        -11   -1    0    0    0    0  0.00000000000E+00  0.00000000000E+00  0.45593999997E+02  0.45594000000E+02  0.51100000000E-03 0.  1.
         11   -1    0    0    0    0 -0.00000000000E+00 -0.00000000000E+00 -0.45593999997E+02  0.45594000000E+02  0.51100000000E-03 0. -1.
    9900012    2    1    2    0    0  0.14072815940E+02 -0.26814703664E+02 -0.99824329937E+01  0.59301930165E+02  0.49999974718E+02 0.  0.
        -12    1    1    2    0    0 -0.14072815940E+02  0.26814703664E+02  0.99824329937E+01  0.31886069835E+02  0.00000000000E+00 0.  1.
         11    1    3    3    0    0 -0.28657736138E+01 -0.27954657870E+02 -0.16990023281E+02  0.32838033535E+02  0.51100000000E-03 0. -1.
        -11    1    3    3    0    0  0.59723482225E+01 -0.88493651248E+01  0.32831761566E+01  0.11169577089E+02  0.51100000000E-03 0.  1.
         12    1    3    3    0    0  0.10966241331E+02  0.99893193314E+01  0.37244141310E+01  0.15294319542E+02  0.00000000000E+00 0. -1.
</event>
<event>
 7    1  0.5987893E-013  0.5930194E+02  0.7816164E-02  0.1266605E+00
        -11   -1    0    0    0    0  0.00000000000E+00  0.00000000000E+00  0.45593999997E+02  0.45594000000E+02  0.51100000000E-03 0. -1.
         11   -1    0    0    0    0 -0.00000000000E+00 -0.00000000000E+00 -0.45593999997E+02  0.45594000000E+02  0.51100000000E-03 0.  1.
    9900012    2    1    2    0    0 -0.75687052095E+01 -0.30221161008E+02  0.67909645464E+01  0.59301936105E+02  0.49999985552E+02 0.  0.
        -12    1    1    2    0    0  0.75687052095E+01  0.30221161008E+02 -0.67909645464E+01  0.31886063895E+02  0.00000000000E+00 0.  1.
         11    1    3    3    0    0  0.11062361600E+01 -0.38952446249E+01  0.23571071488E+02  0.23916356338E+02  0.51100000000E-03 0. -1.
        -11    1    3    3    0    0 -0.61225886701E+01 -0.12183469343E+02 -0.15959633766E+02  0.20991258358E+02  0.51100000000E-03 0.  1.
        -12    1    3    3    0    0 -0.25523526995E+01 -0.14142447041E+02 -0.82047317578E+00  0.14394321409E+02  0.00000000000E+00 0.  1.
</event>
<event>
 7    1  0.5987893E-013  0.5930194E+02  0.7816164E-02  0.1266605E+00
        -11   -1    0    0    0    0  0.00000000000E+00  0.00000000000E+00  0.45593999997E+02  0.45594000000E+02  0.51100000000E-03 0.  1.
         11   -1    0    0    0    0 -0.00000000000E+00 -0.00000000000E+00 -0.45593999997E+02  0.45594000000E+02  0.51100000000E-03 0. -1.
    9900012    2    1    2    0    0 -0.67648669674E+01  0.30931658951E+02 -0.37669305567E+01  0.59301941661E+02  0.49999995684E+02 0.  0.
        -12    1    1    2    0    0  0.67648669674E+01 -0.30931658951E+02  0.37669305567E+01  0.31886058339E+02  0.00000000000E+00 0.  1.
         11    1    3    3    0    0 -0.15614551310E+02  0.16203943682E+02  0.32980462045E+01  0.22743331165E+02  0.51100000000E-03 0. -1.
        -11    1    3    3    0    0  0.69739478469E+01  0.73449935002E+01 -0.19501429557E+02  0.21974772652E+02  0.51100000000E-03 0.  1.
         12    1    3    3    0    0  0.18757364962E+01  0.73827217697E+01  0.12436452795E+02  0.14583837844E+02  0.00000000000E+00 0. -1.
</event>
<event>
 7    1  0.5987893E-013  0.5930193E+02  0.7816164E-02  0.1266605E+00
        -11   -1    0    0    0    0  0.00000000000E+00  0.00000000000E+00  0.45593999997E+02  0.45594000000E+02  0.51100000000E-03 0.  1.
         11   -1    0    0    0    0 -0.00000000000E+00 -0.00000000000E+00 -0.45593999997E+02  0.45594000000E+02  0.51100000000E-03 0. -1.
    9900012    2    1    2    0    0  0.84035493587E+01  0.29420260072E+02  0.89749568673E+01  0.59301934152E+02  0.49999981989E+02 0.  0.
        -12    1    1    2    0    0 -0.84035493587E+01 -0.29420260072E+02 -0.89749568673E+01  0.31886065848E+02  0.00000000000E+00 0.  1.
         11    1    3    3    0    0 -0.11816165629E+02  0.29123064470E+02  0.75306141419E+01  0.32318490124E+02  0.51100000000E-03 0. -1.
        -11    1    3    3    0    0  0.43372012415E+01 -0.60700632881E+01  0.56553432690E+01  0.93616179522E+01  0.51100000000E-03 0.  1.
        -12    1    3    3    0    0  0.15882513746E+02  0.63672588902E+01 -0.42110005436E+01  0.17621826076E+02  0.00000000000E+00 0.  1.
</event>
<event>
 7    1  0.5987893E-013  0.5930198E+02  0.7816164E-02  0.1266605E+00
        -11   -1    0    0    0    0  0.00000000000E+00  0.00000000000E+00  0.45593999997E+02  0.45594000000E+02  0.51100000000E-03 0.  1.
         11   -1    0    0    0    0 -0.00000000000E+00 -0.00000000000E+00 -0.45593999997E+02  0.45594000000E+02  0.51100000000E-03 0. -1.
    9900012    2    1    2    0    0  0.96680367647E+01 -0.33544041026E+01 -0.30199259483E+02  0.59301980570E+02  0.50000066644E+02 0.  0.
        -12    1    1    2    0    0 -0.96680367647E+01  0.33544041026E+01  0.30199259483E+02  0.31886019430E+02  0.00000000000E+00 0.  1.
         11    1    3    3    0    0  0.70480045637E+01 -0.11601156941E+02 -0.29880693512E+02  0.32819461540E+02  0.51100000000E-03 0. -1.
        -11    1    3    3    0    0  0.33325883848E+01  0.16920239075E+02  0.22913950924E+01  0.17396871196E+02  0.51100000000E-03 0.  1.
         12    1    3    3    0    0 -0.71255618384E+00 -0.86734862365E+01 -0.26099610633E+01  0.90856478339E+01  0.00000000000E+00 0. -1.
</event>
<event>
 7    1  0.5987893E-013  0.5930191E+02  0.7816164E-02  0.1266605E+00
        -11   -1    0    0    0    0  0.00000000000E+00  0.00000000000E+00  0.45593999997E+02  0.45594000000E+02  0.51100000000E-03 0.  1.
         11   -1    0    0    0    0 -0.00000000000E+00 -0.00000000000E+00 -0.45593999997E+02  0.45594000000E+02  0.51100000000E-03 0. -1.
    9900012    2    1    2    0    0 -0.11531321314E+02  0.26383270897E+02 -0.13699436722E+02  0.59301907092E+02  0.49999932638E+02 0.  0.
        -12    1    1    2    0    0  0.11531321314E+02 -0.26383270897E+02  0.13699436722E+02  0.31886092908E+02  0.00000000000E+00 0.  1.
         11    1    3    3    0    0 -0.18100284394E+02  0.59929094041E+01 -0.19125498997E+02  0.27005924728E+02  0.51100000000E-03 0. -1.
        -11    1    3    3    0    0  0.15202294526E+02  0.10848940542E+02  0.53523445564E+01  0.19428249078E+02  0.51100000000E-03 0.  1.
         12    1    3    3    0    0 -0.86333314455E+01  0.95414209509E+01  0.73717718683E-01  0.12867733286E+02  0.00000000000E+00 0. -1.
</event>
<event>
 7    1  0.5987893E-013  0.5930192E+02  0.7816164E-02  0.1266605E+00
        -11   -1    0    0    0    0  0.00000000000E+00  0.00000000000E+00  0.45593999997E+02  0.45594000000E+02  0.51100000000E-03 0.  1.
         11   -1    0    0    0    0 -0.00000000000E+00 -0.00000000000E+00 -0.45593999997E+02  0.45594000000E+02  0.51100000000E-03 0. -1.
    9900012    2    1    2    0    0 -0.11889335589E+02 -0.84582366103E+01 -0.28351787502E+02  0.59301922759E+02  0.49999961211E+02 0.  0.
        -12    1    1    2    0    0  0.11889335589E+02  0.84582366103E+01  0.28351787502E+02  0.31886077241E+02  0.00000000000E+00 0.  1.
         11    1    3    3    0    0 -0.48784402117E+01 -0.14302421858E+02 -0.36857838446E+02  0.39835395129E+02  0.51100000000E-03 0. -1.
        -11    1    3    3    0    0 -0.36513526154E+00  0.29635073828E+01  0.11311504139E+02  0.11698966873E+02  0.51100000000E-03 0.  1.
        -12    1    3    3    0    0 -0.66457601155E+01  0.28806778653E+01 -0.28054531939E+01  0.77675607561E+01  0.00000000000E+00 0.  1.
</event>
<event>
 7    1  0.5987893E-013  0.5930194E+02  0.7816164E-02  0.1266605E+00
        -11   -1    0    0    0    0  0.00000000000E+00  0.00000000000E+00  0.45593999997E+02  0.45594000000E+02  0.51100000000E-03 0.  1.
         11   -1    0    0    0    0 -0.00000000000E+00 -0.00000000000E+00 -0.45593999997E+02  0.45594000000E+02  0.51100000000E-03 0. -1.
    9900012    2    1    2    0    0  0.21604477944E+02  0.37223543437E+01 -0.23154074050E+02  0.59301944518E+02  0.50000000894E+02 0.  0.
        -12    1    1    2    0    0 -0.21604477944E+02 -0.37223543437E+01  0.23154074050E+02  0.31886055482E+02  0.00000000000E+00 0.  1.
         11    1    3    3    0    0  0.26489046512E+02  0.68490316162E+00 -0.26768087891E+02  0.37665225435E+02  0.51100000000E-03 0. -1.
        -11    1    3    3    0    0  0.11644308240E+01  0.74014719203E+01  0.95256544281E+01  0.12119231753E+02  0.51100000000E-03 0.  1.
        -12    1    3    3    0    0 -0.60489993917E+01 -0.43640207383E+01 -0.59116405869E+01  0.95174873299E+01  0.00000000000E+00 0.  1.
</event>
<event>
 7    1  0.5987893E-013  0.5930195E+02  0.7816164E-02  0.1266605E+00
        -11   -1    0    0    0    0  0.00000000000E+00  0.00000000000E+00  0.45593999997E+02  0.45594000000E+02  0.51100000000E-03 0. -1.
         11   -1    0    0    0    0 -0.00000000000E+00 -0.00000000000E+00 -0.45593999997E+02  0.45594000000E+02  0.51100000000E-03 0.  1.
    9900012    2    1    2    0    0  0.17374834896E+02 -0.31413494278E+01  0.26551217632E+02  0.59301950987E+02  0.50000012692E+02 0.  0.
        -12    1    1    2    0    0 -0.17374834896E+02  0.31413494278E+01 -0.26551217632E+02  0.31886049013E+02  0.00000000000E+00 0.  1.
         11    1    3    3    0    0  0.19663324836E+02 -0.11703614694E+02  0.73113475135E+01  0.24022421677E+02  0.51100000000E-03 0. -1.
        -11    1    3    3    0    0 -0.12578921247E+02  0.39319753629E+01  0.20019887667E+02  0.23968429077E+02  0.51100000000E-03 0.  1.
         12    1    3    3    0    0  0.10290431307E+02  0.46302899038E+01 -0.78001754764E+00  0.11311100232E+02  0.00000000000E+00 0. -1.
</event>
<event>
 7    1  0.5987893E-013  0.5930193E+02  0.7816164E-02  0.1266605E+00
        -11   -1    0    0    0    0  0.00000000000E+00  0.00000000000E+00  0.45593999997E+02  0.45594000000E+02  0.51100000000E-03 0.  1.
         11   -1    0    0    0    0 -0.00000000000E+00 -0.00000000000E+00 -0.45593999997E+02  0.45594000000E+02  0.51100000000E-03 0. -1.
    9900012    2    1    2    0    0 -0.21320647856E+02  0.23381753020E+02 -0.39300581652E+01  0.59301925351E+02  0.49999965939E+02 0.  0.
        -12    1    1    2    0    0  0.21320647856E+02 -0.23381753020E+02  0.39300581652E+01  0.31886074649E+02  0.00000000000E+00 0.  1.
         11    1    3    3    0    0 -0.17247479477E+02  0.28007083001E+02 -0.65722709225E+01  0.33542018304E+02  0.51100000000E-03 0. -1.
        -11    1    3    3    0    0  0.62117773883E+01  0.40927192703E+01  0.82933522609E+01  0.11140745995E+02  0.51100000000E-03 0.  1.
         12    1    3    3    0    0 -0.10284945768E+02 -0.87180492510E+01 -0.56511395035E+01  0.14619161052E+02  0.00000000000E+00 0. -1.
</event>
<event>
 7    1  0.5987893E-013  0.5930190E+02  0.7816164E-02  0.1266605E+00
        -11   -1    0    0    0    0  0.00000000000E+00  0.00000000000E+00  0.45593999997E+02  0.45594000000E+02  0.51100000000E-03 0.  1.
         11   -1    0    0    0    0 -0.00000000000E+00 -0.00000000000E+00 -0.45593999997E+02  0.45594000000E+02  0.51100000000E-03 0. -1.
    9900012    2    1    2    0    0 -0.88196154846E+01 -0.28573396099E+02 -0.11067929287E+02  0.59301895807E+02  0.49999912057E+02 0.  0.
        -12    1    1    2    0    0  0.88196154846E+01  0.28573396099E+02  0.11067929287E+02  0.31886104193E+02  0.00000000000E+00 0.  1.
         11    1    3    3    0    0 -0.15391976860E+02 -0.32435310501E+01 -0.16514500665E+02  0.22807064208E+02  0.51100000000E-03 0. -1.
        -11    1    3    3    0    0  0.90805565783E+01 -0.52333687121E-03  0.62589570405E+01  0.11028646859E+02  0.51100000000E-03 0.  1.
         12    1    3    3    0    0 -0.25081952028E+01 -0.25329341712E+02 -0.81238566279E+00  0.25466184740E+02  0.00000000000E+00 0. -1.
</event>
<event>
 7    1  0.5987893E-013  0.5930195E+02  0.7816164E-02  0.1266605E+00
        -11   -1    0    0    0    0  0.00000000000E+00  0.00000000000E+00  0.45593999997E+02  0.45594000000E+02  0.51100000000E-03 0. -1.
         11   -1    0    0    0    0 -0.00000000000E+00 -0.00000000000E+00 -0.45593999997E+02  0.45594000000E+02  0.51100000000E-03 0.  1.
    9900012    2    1    2    0    0 -0.11514655271E+02  0.17608554181E+02  0.23959794765E+02  0.59301949264E+02  0.50000009550E+02 0.  0.
        -12    1    1    2    0    0  0.11514655271E+02 -0.17608554181E+02 -0.23959794765E+02  0.31886050736E+02  0.00000000000E+00 0.  1.
         11    1    3    3    0    0  0.70981133466E+01  0.12073492231E+01  0.16106267314E+02  0.17642356767E+02  0.51100000000E-03 0. -1.
        -11    1    3    3    0    0 -0.17230983039E+02  0.18593658799E+01 -0.88583087669E+01  0.19463649514E+02  0.51100000000E-03 0.  1.
        -12    1    3    3    0    0 -0.13817855794E+01  0.14541839078E+02  0.16711836217E+02  0.22195942983E+02  0.00000000000E+00 0.  1.
</event>
<event>
 7    1  0.5987893E-013  0.5930196E+02  0.7816164E-02  0.1266605E+00
        -11   -1    0    0    0    0  0.00000000000E+00  0.00000000000E+00  0.45593999997E+02  0.45594000000E+02  0.51100000000E-03 0.  1.
         11   -1    0    0    0    0 -0.00000000000E+00 -0.00000000000E+00 -0.45593999997E+02  0.45594000000E+02  0.51100000000E-03 0. -1.
    9900012    2    1    2    0    0 -0.65508903493E+00 -0.10810628768E+02 -0.29990344817E+02  0.59301958881E+02  0.50000027089E+02 0.  0.
        -12    1    1    2    0    0  0.65508903493E+00  0.10810628768E+02  0.29990344817E+02  0.31886041119E+02  0.00000000000E+00 0.  1.
         11    1    3    3    0    0  0.13833565452E+01 -0.28407367160E+02 -0.25763229325E+02  0.38374941951E+02  0.51100000000E-03 0. -1.
        -11    1    3    3    0    0 -0.10277061137E+01  0.23183582856E+01  0.30561688208E+01  0.39712885968E+01  0.51100000000E-03 0.  1.
         12    1    3    3    0    0 -0.10107394664E+01  0.15278380106E+02 -0.72832843128E+01  0.16955728333E+02  0.00000000000E+00 0. -1.
</event>
<event>
 7    1  0.5987893E-013  0.5930194E+02  0.7816164E-02  0.1266605E+00
        -11   -1    0    0    0    0  0.00000000000E+00  0.00000000000E+00  0.45593999997E+02  0.45594000000E+02  0.51100000000E-03 0. -1.
         11   -1    0    0    0    0 -0.00000000000E+00 -0.00000000000E+00 -0.45593999997E+02  0.45594000000E+02  0.51100000000E-03 0.  1.
    9900012    2    1    2    0    0  0.14017298998E+02 -0.26632028952E+02  0.10534296724E+02  0.59301936512E+02  0.49999986294E+02 0.  0.
        -12    1    1    2    0    0 -0.14017298998E+02  0.26632028952E+02 -0.10534296724E+02  0.31886063488E+02  0.00000000000E+00 0.  1.
         11    1    3    3    0    0  0.21987487323E+02 -0.65545640784E+01  0.15628664132E+02  0.27760890689E+02  0.51100000000E-03 0. -1.
        -11    1    3    3    0    0  0.11261087851E+01 -0.19240038597E+02 -0.93991879625E+01  0.21442759637E+02  0.51100000000E-03 0.  1.
         12    1    3    3    0    0 -0.90962971108E+01 -0.83742627625E+00  0.43048205539E+01  0.10098286186E+02  0.00000000000E+00 0. -1.
</event>
<event>
 7    1  0.5987893E-013  0.5930191E+02  0.7816164E-02  0.1266605E+00
        -11   -1    0    0    0    0  0.00000000000E+00  0.00000000000E+00  0.45593999997E+02  0.45594000000E+02  0.51100000000E-03 0.  1.
         11   -1    0    0    0    0 -0.00000000000E+00 -0.00000000000E+00 -0.45593999997E+02  0.45594000000E+02  0.51100000000E-03 0. -1.
    9900012    2    1    2    0    0 -0.31240605628E+01  0.80339442242E+01 -0.30698840773E+02  0.59301908377E+02  0.49999934981E+02 0.  0.
        -12    1    1    2    0    0  0.31240605628E+01 -0.80339442242E+01  0.30698840773E+02  0.31886091623E+02  0.00000000000E+00 0.  1.
         11    1    3    3    0    0 -0.13755395054E+02 -0.10859716489E+02 -0.29477068367E+02  0.34293467236E+02  0.51100000000E-03 0. -1.
        -11    1    3    3    0    0  0.22949182841E+00 -0.12519576367E+01  0.17265479114E+01  0.21450017191E+01  0.51100000000E-03 0.  1.
         12    1    3    3    0    0  0.10401842662E+02  0.20145618350E+02 -0.29483203178E+01  0.22863439422E+02  0.00000000000E+00 0. -1.
</event>
<event>
 7    1  0.5987893E-013  0.5930197E+02  0.7816164E-02  0.1266605E+00
        -11   -1    0    0    0    0  0.00000000000E+00  0.00000000000E+00  0.45593999997E+02  0.45594000000E+02  0.51100000000E-03 0. -1.
         11   -1    0    0    0    0 -0.00000000000E+00 -0.00000000000E+00 -0.45593999997E+02  0.45594000000E+02  0.51100000000E-03 0.  1.
    9900012    2    1    2    0    0  0.20782968990E+02  0.18786226676E+02  0.15227106866E+02  0.59301970202E+02  0.50000047736E+02 0.  0.
        -12    1    1    2    0    0 -0.20782968990E+02 -0.18786226676E+02 -0.15227106866E+02  0.31886029798E+02  0.00000000000E+00 0.  1.
         11    1    3    3    0    0 -0.37963189525E+01  0.13235328000E+02  0.18837042618E+02  0.23332812083E+02  0.51100000000E-03 0. -1.
        -11    1    3    3    0    0  0.10943205651E+02 -0.98522942970E+01 -0.44426445841E+01  0.15380459811E+02  0.51100000000E-03 0.  1.
         12    1    3    3    0    0  0.13636082292E+02  0.15403192972E+02  0.83270883238E+00  0.20588698308E+02  0.00000000000E+00 0. -1.
</event>
<event>
 7    1  0.5987893E-013  0.5930197E+02  0.7816164E-02  0.1266605E+00
        -11   -1    0    0    0    0  0.00000000000E+00  0.00000000000E+00  0.45593999997E+02  0.45594000000E+02  0.51100000000E-03 0.  1.
         11   -1    0    0    0    0 -0.00000000000E+00 -0.00000000000E+00 -0.45593999997E+02  0.45594000000E+02  0.51100000000E-03 0. -1.
    9900012    2    1    2    0    0 -0.56759488011E+01  0.11289559994E+02 -0.29275383686E+02  0.59301974070E+02  0.50000054790E+02 0.  0.
        -12    1    1    2    0    0  0.56759488011E+01 -0.11289559994E+02  0.29275383686E+02  0.31886025930E+02  0.00000000000E+00 0.  1.
         11    1    3    3    0    0 -0.18927177095E+02  0.76631597208E+01  0.38452974803E+01  0.20778555356E+02  0.51100000000E-03 0. -1.
        -11    1    3    3    0    0  0.87353203002E+01 -0.48685321186E+01 -0.15465023479E+02  0.18416714615E+02  0.51100000000E-03 0.  1.
         12    1    3    3    0    0  0.45159079940E+01  0.84949323915E+01 -0.17655657688E+02  0.20106704099E+02  0.00000000000E+00 0. -1.
</event>
<event>
 7    1  0.5987893E-013  0.5930197E+02  0.7816164E-02  0.1266605E+00
        -11   -1    0    0    0    0  0.00000000000E+00  0.00000000000E+00  0.45593999997E+02  0.45594000000E+02  0.51100000000E-03 0.  1.
         11   -1    0    0    0    0 -0.00000000000E+00 -0.00000000000E+00 -0.45593999997E+02  0.45594000000E+02  0.51100000000E-03 0. -1.
    9900012    2    1    2    0    0 -0.25345199311E+02 -0.72439364299E+01 -0.17940595137E+02  0.59301973327E+02  0.50000053435E+02 0.  0.
        -12    1    1    2    0    0  0.25345199311E+02  0.72439364299E+01  0.17940595137E+02  0.31886026673E+02  0.00000000000E+00 0.  1.
         11    1    3    3    0    0 -0.19654090686E+02  0.74336384525E+01 -0.20797290441E+02  0.29564667278E+02  0.51100000000E-03 0. -1.
        -11    1    3    3    0    0 -0.13655030215E+02 -0.16247473182E+02  0.38150762039E+01  0.21563743685E+02  0.51100000000E-03 0.  1.
        -12    1    3    3    0    0  0.79639215902E+01  0.15698982999E+01 -0.95838089999E+00  0.81735623639E+01  0.00000000000E+00 0.  1.
</event>
<event>
 7    1  0.5987893E-013  0.5930198E+02  0.7816164E-02  0.1266605E+00
        -11   -1    0    0    0    0  0.00000000000E+00  0.00000000000E+00  0.45593999997E+02  0.45594000000E+02  0.51100000000E-03 0. -1.
         11   -1    0    0    0    0 -0.00000000000E+00 -0.00000000000E+00 -0.45593999997E+02  0.45594000000E+02  0.51100000000E-03 0.  1.
    9900012    2    1    2    0    0  0.35803443944E+01 -0.26963524653E+02  0.16639352533E+02  0.59301975155E+02  0.50000056769E+02 0.  0.
        -12    1    1    2    0    0 -0.35803443944E+01  0.26963524653E+02 -0.16639352533E+02  0.31886024845E+02  0.00000000000E+00 0.  1.
         11    1    3    3    0    0  0.86053543895E+01 -0.14178742513E+02  0.19740391923E+02  0.25783171585E+02  0.51100000000E-03 0. -1.
        -11    1    3    3    0    0 -0.16448087529E+02 -0.11543758358E+01 -0.46819699386E+01  0.17140391177E+02  0.51100000000E-03 0.  1.
        -12    1    3    3    0    0  0.11423077534E+02 -0.11630406303E+02  0.15809305486E+01  0.16378412393E+02  0.00000000000E+00 0.  1.
</event>
<event>
 7    1  0.5987893E-013  0.5930193E+02  0.7816164E-02  0.1266605E+00
        -11   -1    0    0    0    0  0.00000000000E+00  0.00000000000E+00  0.45593999997E+02  0.45594000000E+02  0.51100000000E-03 0. -1.
         11   -1    0    0    0    0 -0.00000000000E+00 -0.00000000000E+00 -0.45593999997E+02  0.45594000000E+02  0.51100000000E-03 0.  1.
    9900012    2    1    2    0    0 -0.17881733910E+02 -0.27457085725E+01  0.26256921418E+02  0.59301933364E+02  0.49999980551E+02 0.  0.
        -12    1    1    2    0    0  0.17881733910E+02  0.27457085725E+01 -0.26256921418E+02  0.31886066636E+02  0.00000000000E+00 0.  1.
         11    1    3    3    0    0 -0.11283691862E+02  0.72676556926E+01  0.23722273037E+02  0.27255949068E+02  0.51100000000E-03 0. -1.
        -11    1    3    3    0    0 -0.52423590656E+01 -0.40096496591E+00 -0.12833442417E+02  0.13868682201E+02  0.51100000000E-03 0.  1.
        -12    1    3    3    0    0 -0.13556829817E+01 -0.96123992992E+01  0.15368090798E+02  0.18177302094E+02  0.00000000000E+00 0.  1.
</event>
<event>
 7    1  0.5987893E-013  0.5930195E+02  0.7816164E-02  0.1266605E+00
        -11   -1    0    0    0    0  0.00000000000E+00  0.00000000000E+00  0.45593999997E+02  0.45594000000E+02  0.51100000000E-03 0.  1.
         11   -1    0    0    0    0 -0.00000000000E+00 -0.00000000000E+00 -0.45593999997E+02  0.45594000000E+02  0.51100000000E-03 0. -1.
    9900012    2    1    2    0    0  0.27792019770E+02  0.12237619459E+02 -0.97244403772E+01  0.59301946096E+02  0.50000003772E+02 0.  0.
        -12    1    1    2    0    0 -0.27792019770E+02 -0.12237619459E+02  0.97244403772E+01  0.31886053904E+02  0.00000000000E+00 0.  1.
         11    1    3    3    0    0  0.37566224703E+02  0.46879452183E+01 -0.81810368445E+00  0.37866441115E+02  0.51100000000E-03 0. -1.
        -11    1    3    3    0    0 -0.77493930417E+01  0.33292041221E+01 -0.12812071534E+02  0.15339030929E+02  0.51100000000E-03 0.  1.
         12    1    3    3    0    0 -0.20248118913E+01  0.42204701184E+01  0.39057348410E+01  0.60964740518E+01  0.00000000000E+00 0. -1.
</event>
<event>
 7    1  0.5987893E-013  0.5930194E+02  0.7816164E-02  0.1266605E+00
        -11   -1    0    0    0    0  0.00000000000E+00  0.00000000000E+00  0.45593999997E+02  0.45594000000E+02  0.51100000000E-03 0. -1.
         11   -1    0    0    0    0 -0.00000000000E+00 -0.00000000000E+00 -0.45593999997E+02  0.45594000000E+02  0.51100000000E-03 0.  1.
    9900012    2    1    2    0    0 -0.10120339498E+01 -0.16214381337E+02  0.27437027948E+02  0.59301939135E+02  0.49999991078E+02 0.  0.
        -12    1    1    2    0    0  0.10120339498E+01  0.16214381337E+02 -0.27437027948E+02  0.31886060865E+02  0.00000000000E+00 0.  1.
         11    1    3    3    0    0 -0.13994048842E+02  0.80616582483E+01  0.19196289569E+02  0.25086276531E+02  0.51100000000E-03 0. -1.
        -11    1    3    3    0    0  0.47496473657E+01  0.23232137513E+01  0.47358013766E+00  0.53085544775E+01  0.51100000000E-03 0.  1.
         12    1    3    3    0    0  0.82323675261E+01 -0.26599253336E+02  0.77671582410E+01  0.28907108127E+02  0.00000000000E+00 0. -1.
</event>
<event>
 7    1  0.5987893E-013  0.5930179E+02  0.7816164E-02  0.1266605E+00
        -11   -1    0    0    0    0  0.00000000000E+00  0.00000000000E+00  0.45593999997E+02  0.45594000000E+02  0.51100000000E-03 0.  1.
         11   -1    0    0    0    0 -0.00000000000E+00 -0.00000000000E+00 -0.45593999997E+02  0.45594000000E+02  0.51100000000E-03 0. -1.
    9900012    2    1    2    0    0  0.26515898756E+02 -0.14945463750E+02 -0.95010816105E+01  0.59301790985E+02  0.49999720887E+02 0.  0.
        -12    1    1    2    0    0 -0.26515898756E+02  0.14945463750E+02  0.95010816105E+01  0.31886209015E+02  0.00000000000E+00 0.  1.
         11    1    3    3    0    0  0.45832880855E+01 -0.23360619396E+02 -0.13766778793E+02  0.27499986670E+02  0.51100000000E-03 0. -1.
        -11    1    3    3    0    0  0.64397765950E+01  0.67192774946E+01  0.11353332584E+02  0.14680516806E+02  0.51100000000E-03 0.  1.
        -12    1    3    3    0    0  0.15492834076E+02  0.16958781520E+01 -0.70876354016E+01  0.17121287510E+02  0.00000000000E+00 0.  1.
</event>
<event>
 7    1  0.5987893E-013  0.5930202E+02  0.7816164E-02  0.1266605E+00
        -11   -1    0    0    0    0  0.00000000000E+00  0.00000000000E+00  0.45593999997E+02  0.45594000000E+02  0.51100000000E-03 0. -1.
         11   -1    0    0    0    0 -0.00000000000E+00 -0.00000000000E+00 -0.45593999997E+02  0.45594000000E+02  0.51100000000E-03 0.  1.
    9900012    2    1    2    0    0 -0.27769144428E+02  0.42555841623E+01 -0.15082457058E+02  0.59302017347E+02  0.50000133717E+02 0.  0.
        -12    1    1    2    0    0  0.27769144428E+02 -0.42555841623E+01  0.15082457058E+02  0.31885982653E+02  0.00000000000E+00 0.  1.
         11    1    3    3    0    0 -0.59204416302E+01 -0.51970704332E+01 -0.15672216573E+02  0.17540796526E+02  0.51100000000E-03 0. -1.
        -11    1    3    3    0    0 -0.16387866865E+02  0.17572828383E+02  0.11892970542E+02  0.26810617792E+02  0.51100000000E-03 0.  1.
        -12    1    3    3    0    0 -0.54608359319E+01 -0.81201737879E+01 -0.11303211028E+02  0.14950603030E+02  0.00000000000E+00 0.  1.
</event>
<event>
 7    1  0.5987893E-013  0.5930194E+02  0.7816164E-02  0.1266605E+00
        -11   -1    0    0    0    0  0.00000000000E+00  0.00000000000E+00  0.45593999997E+02  0.45594000000E+02  0.51100000000E-03 0. -1.
         11   -1    0    0    0    0 -0.00000000000E+00 -0.00000000000E+00 -0.45593999997E+02  0.45594000000E+02  0.51100000000E-03 0.  1.
    9900012    2    1    2    0    0  0.46232202447E+01  0.71516402089E+01  0.30727848334E+02  0.59301940564E+02  0.49999993684E+02 0.  0.
        -12    1    1    2    0    0 -0.46232202447E+01 -0.71516402089E+01 -0.30727848334E+02  0.31886059436E+02  0.00000000000E+00 0.  1.
         11    1    3    3    0    0  0.17620335649E+02  0.71782804716E+01  0.10350859265E+02  0.21659737457E+02  0.51100000000E-03 0. -1.
        -11    1    3    3    0    0 -0.95706920872E+01 -0.10344054750E+02  0.22515758183E+02  0.26562322612E+02  0.51100000000E-03 0.  1.
        -12    1    3    3    0    0 -0.34264233174E+01  0.10317414488E+02 -0.21387691149E+01  0.11079880495E+02  0.00000000000E+00 0.  1.
</event>
<event>
 7    1  0.5987893E-013  0.5930195E+02  0.7816164E-02  0.1266605E+00
        -11   -1    0    0    0    0  0.00000000000E+00  0.00000000000E+00  0.45593999997E+02  0.45594000000E+02  0.51100000000E-03 0. -1.
         11   -1    0    0    0    0 -0.00000000000E+00 -0.00000000000E+00 -0.45593999997E+02  0.45594000000E+02  0.51100000000E-03 0.  1.
    9900012    2    1    2    0    0  0.46402365049E+00  0.27263135583E+02 -0.16529565490E+02  0.59301946386E+02  0.50000004300E+02 0.  0.
        -12    1    1    2    0    0 -0.46402365049E+00 -0.27263135583E+02  0.16529565490E+02  0.31886053614E+02  0.00000000000E+00 0.  1.
         11    1    3    3    0    0  0.88411702788E+01  0.16199322459E+02  0.82603650168E+00  0.18473404575E+02  0.51100000000E-03 0. -1.
        -11    1    3    3    0    0 -0.76981620122E+01  0.14277952800E+02 -0.26523152692E+02  0.31090179535E+02  0.51100000000E-03 0.  1.
        -12    1    3    3    0    0 -0.67898461611E+00 -0.32141396756E+01  0.91675507003E+01  0.97383622754E+01  0.00000000000E+00 0.  1.
</event>
<event>
 7    1  0.5987893E-013  0.5930202E+02  0.7816164E-02  0.1266605E+00
        -11   -1    0    0    0    0  0.00000000000E+00  0.00000000000E+00  0.45593999997E+02  0.45594000000E+02  0.51100000000E-03 0.  1.
         11   -1    0    0    0    0 -0.00000000000E+00 -0.00000000000E+00 -0.45593999997E+02  0.45594000000E+02  0.51100000000E-03 0. -1.
    9900012    2    1    2    0    0  0.22373623775E+02  0.50139964465E+01 -0.22158442903E+02  0.59302018863E+02  0.50000136481E+02 0.  0.
        -12    1    1    2    0    0 -0.22373623775E+02 -0.50139964465E+01  0.22158442903E+02  0.31885981137E+02  0.00000000000E+00 0.  1.
         11    1    3    3    0    0  0.21829724357E+02  0.10905726427E+02 -0.62409133919E+00  0.24410268836E+02  0.51100000000E-03 0.  1.
        -11    1    3    3    0    0 -0.37750393748E+01 -0.14304845488E+02 -0.20637140269E+02  0.25392343048E+02  0.51100000000E-03 0. -1.
         12    1    3    3    0    0  0.43189387928E+01  0.84131155077E+01 -0.89721129482E+00  0.94994069788E+01  0.00000000000E+00 0. -1.
</event>
<event>
 7    1  0.5987893E-013  0.5930195E+02  0.7816164E-02  0.1266605E+00
        -11   -1    0    0    0    0  0.00000000000E+00  0.00000000000E+00  0.45593999997E+02  0.45594000000E+02  0.51100000000E-03 0.  1.
         11   -1    0    0    0    0 -0.00000000000E+00 -0.00000000000E+00 -0.45593999997E+02  0.45594000000E+02  0.51100000000E-03 0. -1.
    9900012    2    1    2    0    0  0.14313925759E+02  0.27468621240E+02 -0.75700961746E+01  0.59301953215E+02  0.50000016756E+02 0.  0.
        -12    1    1    2    0    0 -0.14313925759E+02 -0.27468621240E+02  0.75700961746E+01  0.31886046785E+02  0.00000000000E+00 0.  1.
         11    1    3    3    0    0  0.91736653891E+01  0.35093090036E+01  0.24409040283E+00  0.98250173914E+01  0.51100000000E-03 0. -1.
        -11    1    3    3    0    0 -0.81168563141E+01  0.20862265100E+02  0.12028744564E+02  0.25412755804E+02  0.51100000000E-03 0.  1.
        -12    1    3    3    0    0  0.13257116684E+02  0.30970471367E+01 -0.19842931141E+02  0.24064180020E+02  0.00000000000E+00 0.  1.
</event>
<event>
 7    1  0.5987893E-013  0.5930192E+02  0.7816164E-02  0.1266605E+00
        -11   -1    0    0    0    0  0.00000000000E+00  0.00000000000E+00  0.45593999997E+02  0.45594000000E+02  0.51100000000E-03 0. -1.
         11   -1    0    0    0    0 -0.00000000000E+00 -0.00000000000E+00 -0.45593999997E+02  0.45594000000E+02  0.51100000000E-03 0.  1.
    9900012    2    1    2    0    0  0.96094591363E+00 -0.98916836816E+01  0.30297740800E+02  0.59301922777E+02  0.49999961244E+02 0.  0.
        -12    1    1    2    0    0 -0.96094591363E+00  0.98916836816E+01 -0.30297740800E+02  0.31886077223E+02  0.00000000000E+00 0.  1.
         11    1    3    3    0    0  0.10780178399E+02 -0.78661373252E+01  0.25025591003E+02  0.28361392209E+02  0.51100000000E-03 0. -1.
        -11    1    3    3    0    0 -0.13268912715E+02  0.10282604827E+02 -0.76482828376E+00  0.16804194989E+02  0.51100000000E-03 0.  1.
         12    1    3    3    0    0  0.34496802299E+01 -0.12308151183E+02  0.60369780805E+01  0.14136335578E+02  0.00000000000E+00 0. -1.
</event>
<event>
 7    1  0.5987893E-013  0.5930195E+02  0.7816164E-02  0.1266605E+00
        -11   -1    0    0    0    0  0.00000000000E+00  0.00000000000E+00  0.45593999997E+02  0.45594000000E+02  0.51100000000E-03 0.  1.
         11   -1    0    0    0    0 -0.00000000000E+00 -0.00000000000E+00 -0.45593999997E+02  0.45594000000E+02  0.51100000000E-03 0. -1.
    9900012    2    1    2    0    0  0.47222527151E+01 -0.34932012914E+01 -0.31340353308E+02  0.59301954911E+02  0.50000019849E+02 0.  0.
        -12    1    1    2    0    0 -0.47222527151E+01  0.34932012914E+01  0.31340353308E+02  0.31886045089E+02  0.00000000000E+00 0.  1.
         11    1    3    3    0    0  0.12878612135E+02  0.75584440605E+01 -0.32041795666E+02  0.35350606740E+02  0.51100000000E-03 0. -1.
        -11    1    3    3    0    0 -0.50162292052E+01  0.50238709109E+01  0.23763969449E+01  0.74865944908E+01  0.51100000000E-03 0.  1.
         12    1    3    3    0    0 -0.31401302148E+01 -0.16075516263E+02 -0.16749545869E+01  0.16464753680E+02  0.00000000000E+00 0. -1.
</event>
<event>
 7    1  0.5987893E-013  0.5930192E+02  0.7816164E-02  0.1266605E+00
        -11   -1    0    0    0    0  0.00000000000E+00  0.00000000000E+00  0.45593999997E+02  0.45594000000E+02  0.51100000000E-03 0.  1.
         11   -1    0    0    0    0 -0.00000000000E+00 -0.00000000000E+00 -0.45593999997E+02  0.45594000000E+02  0.51100000000E-03 0. -1.
    9900012    2    1    2    0    0  0.41515170518E+01 -0.35161603643E+01 -0.31418523096E+02  0.59301920419E+02  0.49999956943E+02 0.  0.
        -12    1    1    2    0    0 -0.41515170518E+01  0.35161603643E+01  0.31418523096E+02  0.31886079581E+02  0.00000000000E+00 0.  1.
         11    1    3    3    0    0  0.91138156326E+01  0.49201855330E-01  0.24466705291E+01  0.94366441677E+01  0.51100000000E-03 0.  1.
        -11    1    3    3    0    0 -0.16261919457E+02  0.98878212296E+01 -0.17445843262E+02  0.25818142468E+02  0.51100000000E-03 0. -1.
        -12    1    3    3    0    0  0.11299620876E+02 -0.13453183449E+02 -0.16419350363E+02  0.24047133784E+02  0.00000000000E+00 0.  1.
</event>
<event>
 7    1  0.5987893E-013  0.5930193E+02  0.7816164E-02  0.1266605E+00
        -11   -1    0    0    0    0  0.00000000000E+00  0.00000000000E+00  0.45593999997E+02  0.45594000000E+02  0.51100000000E-03 0. -1.
         11   -1    0    0    0    0 -0.00000000000E+00 -0.00000000000E+00 -0.45593999997E+02  0.45594000000E+02  0.51100000000E-03 0.  1.
    9900012    2    1    2    0    0  0.30870899160E+02 -0.42688005028E+01 -0.67443550970E+01  0.59301930967E+02  0.49999976181E+02 0.  0.
        -12    1    1    2    0    0 -0.30870899160E+02  0.42688005028E+01  0.67443550970E+01  0.31886069033E+02  0.00000000000E+00 0.  1.
         11    1    3    3    0    0  0.10372160419E+01  0.15265789436E+02 -0.57782152526E+01  0.16355669231E+02  0.51100000000E-03 0.  1.
        -11    1    3    3    0    0  0.29307285930E+02 -0.20341423866E+02  0.57727748321E+01  0.36138835938E+02  0.51100000000E-03 0. -1.
         12    1    3    3    0    0  0.52639718869E+00  0.80683392716E+00 -0.67389146765E+01  0.68074257986E+01  0.00000000000E+00 0. -1.
</event>
<event>
 7    1  0.5987893E-013  0.5930193E+02  0.7816164E-02  0.1266605E+00
        -11   -1    0    0    0    0  0.00000000000E+00  0.00000000000E+00  0.45593999997E+02  0.45594000000E+02  0.51100000000E-03 0.  1.
         11   -1    0    0    0    0 -0.00000000000E+00 -0.00000000000E+00 -0.45593999997E+02  0.45594000000E+02  0.51100000000E-03 0. -1.
    9900012    2    1    2    0    0  0.31415702864E+02 -0.20171676351E+01 -0.50701001958E+01  0.59301933016E+02  0.49999979917E+02 0.  0.
        -12    1    1    2    0    0 -0.31415702864E+02  0.20171676351E+01  0.50701001958E+01  0.31886066984E+02  0.00000000000E+00 0.  1.
         11    1    3    3    0    0 -0.10456917047E+02 -0.58134431373E+01 -0.93275619087E+01  0.15170584915E+02  0.51100000000E-03 0. -1.
        -11    1    3    3    0    0  0.40650875786E+02  0.54049587765E+01  0.19363371186E+01  0.41054313820E+02  0.51100000000E-03 0.  1.
         12    1    3    3    0    0  0.12217441245E+01 -0.16086832742E+01  0.23211245943E+01  0.30770342807E+01  0.00000000000E+00 0. -1.
</event>
<event>
 7    1  0.5987893E-013  0.5930193E+02  0.7816164E-02  0.1266605E+00
        -11   -1    0    0    0    0  0.00000000000E+00  0.00000000000E+00  0.45593999997E+02  0.45594000000E+02  0.51100000000E-03 0.  1.
         11   -1    0    0    0    0 -0.00000000000E+00 -0.00000000000E+00 -0.45593999997E+02  0.45594000000E+02  0.51100000000E-03 0. -1.
    9900012    2    1    2    0    0  0.26386088645E+02 -0.94616421492E+01 -0.15197803165E+02  0.59301928320E+02  0.49999971353E+02 0.  0.
        -12    1    1    2    0    0 -0.26386088645E+02  0.94616421492E+01  0.15197803165E+02  0.31886071680E+02  0.00000000000E+00 0.  1.
         11    1    3    3    0    0  0.37631850933E+01  0.10505675020E+02 -0.29700854808E+01  0.11547821340E+02  0.51100000000E-03 0. -1.
        -11    1    3    3    0    0  0.20269404462E+02 -0.27942400934E+02 -0.16661724163E+02  0.38330661089E+02  0.51100000000E-03 0.  1.
        -12    1    3    3    0    0  0.23534990898E+01  0.79750837648E+01  0.44340064784E+01  0.94234458916E+01  0.00000000000E+00 0.  1.
</event>
<event>
 7    1  0.5987893E-013  0.5930193E+02  0.7816164E-02  0.1266605E+00
        -11   -1    0    0    0    0  0.00000000000E+00  0.00000000000E+00  0.45593999997E+02  0.45594000000E+02  0.51100000000E-03 0. -1.
         11   -1    0    0    0    0 -0.00000000000E+00 -0.00000000000E+00 -0.45593999997E+02  0.45594000000E+02  0.51100000000E-03 0.  1.
    9900012    2    1    2    0    0  0.74229264140E+01 -0.26217130101E+02 -0.16561508149E+02  0.59301932519E+02  0.49999979011E+02 0.  0.
        -12    1    1    2    0    0 -0.74229264140E+01  0.26217130101E+02  0.16561508149E+02  0.31886067481E+02  0.00000000000E+00 0.  1.
         11    1    3    3    0    0  0.19047966391E+02 -0.23336646054E+02 -0.12276756059E+02  0.32529107154E+02  0.51100000000E-03 0. -1.
        -11    1    3    3    0    0 -0.11980389779E+02 -0.23942113212E+01 -0.13113952955E+02  0.17923106580E+02  0.51100000000E-03 0.  1.
         12    1    3    3    0    0  0.35534980283E+00 -0.48627272508E+00  0.88292008651E+01  0.88497187843E+01  0.00000000000E+00 0. -1.
</event>
<event>
 7    1  0.7622174E-013  0.5930195E+02  0.7816164E-02  0.1266605E+00
        -11   -1    0    0    0    0  0.00000000000E+00  0.00000000000E+00  0.45593999997E+02  0.45594000000E+02  0.51100000000E-03 0. -1.
         11   -1    0    0    0    0 -0.00000000000E+00 -0.00000000000E+00 -0.45593999997E+02  0.45594000000E+02  0.51100000000E-03 0.  1.
    9900012    2    1    2    0    0 -0.22157610439E+02  0.21241487208E+01  0.22830872114E+02  0.59301946157E+02  0.50000003884E+02 0.  0.
        -12    1    1    2    0    0  0.22157610439E+02 -0.21241487208E+01 -0.22830872114E+02  0.31886053843E+02  0.00000000000E+00 0.  1.
         11    1    3    3    0    0 -0.85904663255E+01  0.63143666595E+01  0.23896182494E+02  0.26166674914E+02  0.51100000000E-03 0. -1.
        -11    1    3    3    0    0  0.58312679222E-01 -0.15444574288E+02 -0.36453847947E+00  0.15448985853E+02  0.51100000000E-03 0.  1.
        -12    1    3    3    0    0 -0.13625456793E+02  0.11254356350E+02 -0.70077189988E+00  0.17686285391E+02  0.00000000000E+00 0.  1.
</event>
<event>
 7    1  0.6438248E-013  0.5930194E+02  0.7816164E-02  0.1266605E+00
        -11   -1    0    0    0    0  0.00000000000E+00  0.00000000000E+00  0.45593999997E+02  0.45594000000E+02  0.51100000000E-03 0. -1.
         11   -1    0    0    0    0 -0.00000000000E+00 -0.00000000000E+00 -0.45593999997E+02  0.45594000000E+02  0.51100000000E-03 0.  1.
    9900012    2    1    2    0    0 -0.13375997705E+02 -0.15503897133E+02  0.24442434170E+02  0.59301941462E+02  0.49999995321E+02 0.  0.
        -12    1    1    2    0    0  0.13375997705E+02  0.15503897133E+02 -0.24442434170E+02  0.31886058538E+02  0.00000000000E+00 0.  1.
         11    1    3    3    0    0 -0.67749404726E+01  0.11921365840E+02 -0.62851862248E+00  0.13726391289E+02  0.51100000000E-03 0.  1.
        -11    1    3    3    0    0 -0.12310870559E+02 -0.21276701755E+02  0.68543729040E+01  0.25519365189E+02  0.51100000000E-03 0. -1.
         12    1    3    3    0    0  0.57098133263E+01 -0.61485612183E+01  0.18216579888E+02  0.20056184984E+02  0.00000000000E+00 0. -1.
</event>
<event>
 7    1  0.5987893E-013  0.5930195E+02  0.7816164E-02  0.1266605E+00
        -11   -1    0    0    0    0  0.00000000000E+00  0.00000000000E+00  0.45593999997E+02  0.45594000000E+02  0.51100000000E-03 0. -1.
         11   -1    0    0    0    0 -0.00000000000E+00 -0.00000000000E+00 -0.45593999997E+02  0.45594000000E+02  0.51100000000E-03 0.  1.
    9900012    2    1    2    0    0  0.20357605322E+02  0.17223674534E+02  0.17482364836E+02  0.59301950712E+02  0.50000012191E+02 0.  0.
        -12    1    1    2    0    0 -0.20357605322E+02 -0.17223674534E+02 -0.17482364836E+02  0.31886049288E+02  0.00000000000E+00 0.  1.
         11    1    3    3    0    0  0.16053180302E+02  0.29126864621E+02  0.23777478501E+02  0.40883337982E+02  0.51100000000E-03 0. -1.
        -11    1    3    3    0    0 -0.28463929129E+01 -0.48705266542E+01  0.13582577897E+01  0.58024862764E+01  0.51100000000E-03 0.  1.
         12    1    3    3    0    0  0.71508179335E+01 -0.70326634323E+01 -0.76533714550E+01  0.12616126454E+02  0.00000000000E+00 0. -1.
</event>
<event>
 7    1  0.5987893E-013  0.5930194E+02  0.7816164E-02  0.1266605E+00
        -11   -1    0    0    0    0  0.00000000000E+00  0.00000000000E+00  0.45593999997E+02  0.45594000000E+02  0.51100000000E-03 0. -1.
         11   -1    0    0    0    0 -0.00000000000E+00 -0.00000000000E+00 -0.45593999997E+02  0.45594000000E+02  0.51100000000E-03 0.  1.
    9900012    2    1    2    0    0  0.94321190368E+01  0.29736300372E+02  0.65960822456E+01  0.59301941442E+02  0.49999995285E+02 0.  0.
        -12    1    1    2    0    0 -0.94321190368E+01 -0.29736300372E+02 -0.65960822456E+01  0.31886058558E+02  0.00000000000E+00 0.  1.
         11    1    3    3    0    0  0.23822562184E+02  0.21239402463E+02  0.29035355192E+01  0.32047733224E+02  0.51100000000E-03 0. -1.
        -11    1    3    3    0    0 -0.13105278813E+02  0.14998795006E+02  0.49140917360E+01  0.20514884407E+02  0.51100000000E-03 0.  1.
         12    1    3    3    0    0 -0.12851643349E+01 -0.65018970967E+01 -0.12215450096E+01  0.67393238114E+01  0.00000000000E+00 0. -1.
</event>
<event>
 7    1  0.5987893E-013  0.5930193E+02  0.7816164E-02  0.1266605E+00
        -11   -1    0    0    0    0  0.00000000000E+00  0.00000000000E+00  0.45593999997E+02  0.45594000000E+02  0.51100000000E-03 0.  1.
         11   -1    0    0    0    0 -0.00000000000E+00 -0.00000000000E+00 -0.45593999997E+02  0.45594000000E+02  0.51100000000E-03 0. -1.
    9900012    2    1    2    0    0  0.18615005203E+02 -0.36604541467E+01 -0.25628183864E+02  0.59301934839E+02  0.49999983242E+02 0.  0.
        -12    1    1    2    0    0 -0.18615005203E+02  0.36604541467E+01  0.25628183864E+02  0.31886065161E+02  0.00000000000E+00 0.  1.
         11    1    3    3    0    0  0.14545683696E+02  0.90653450146E+01  0.47976030423E+01  0.17798156917E+02  0.51100000000E-03 0. -1.
        -11    1    3    3    0    0  0.12615856887E+02 -0.12475719070E+02 -0.26967256548E+02  0.32280587623E+02  0.51100000000E-03 0.  1.
        -12    1    3    3    0    0 -0.85465353797E+01 -0.25008009172E+00 -0.34585303585E+01  0.92231902989E+01  0.00000000000E+00 0.  1.
</event>
<event>
 7    1  0.5987893E-013  0.5930193E+02  0.7816164E-02  0.1266605E+00
        -11   -1    0    0    0    0  0.00000000000E+00  0.00000000000E+00  0.45593999997E+02  0.45594000000E+02  0.51100000000E-03 0. -1.
         11   -1    0    0    0    0 -0.00000000000E+00 -0.00000000000E+00 -0.45593999997E+02  0.45594000000E+02  0.51100000000E-03 0.  1.
    9900012    2    1    2    0    0 -0.51394106661E+01 -0.31459725462E+02  0.77049120205E+00  0.59301928985E+02  0.49999972565E+02 0.  0.
        -12    1    1    2    0    0  0.51394106661E+01  0.31459725462E+02 -0.77049120205E+00  0.31886071015E+02  0.00000000000E+00 0.  1.
         11    1    3    3    0    0 -0.19399475949E+01 -0.20721167152E+02 -0.82055628525E+00  0.20827949435E+02  0.51100000000E-03 0. -1.
        -11    1    3    3    0    0 -0.97423418816E+01  0.62514600433E+01  0.12670026314E+02  0.17161688293E+02  0.51100000000E-03 0.  1.
        -12    1    3    3    0    0  0.65428788103E+01 -0.16990018353E+02 -0.11078978826E+02  0.21312291256E+02  0.00000000000E+00 0.  1.
</event>
<event>
 7    1  0.5987893E-013  0.5930198E+02  0.7816164E-02  0.1266605E+00
        -11   -1    0    0    0    0  0.00000000000E+00  0.00000000000E+00  0.45593999997E+02  0.45594000000E+02  0.51100000000E-03 0.  1.
         11   -1    0    0    0    0 -0.00000000000E+00 -0.00000000000E+00 -0.45593999997E+02  0.45594000000E+02  0.51100000000E-03 0. -1.
    9900012    2    1    2    0    0 -0.21037148181E+02  0.11495468574E+02 -0.21024059471E+02  0.59301976762E+02  0.50000059699E+02 0.  0.
        -12    1    1    2    0    0  0.21037148181E+02 -0.11495468574E+02  0.21024059471E+02  0.31886023238E+02  0.00000000000E+00 0.  1.
         11    1    3    3    0    0 -0.28986154997E+02 -0.10004018322E+02 -0.15078396370E+02  0.34170683362E+02  0.51100000000E-03 0. -1.
        -11    1    3    3    0    0  0.60139833295E+00  0.98477588105E+01  0.59155457393E+00  0.98838236841E+01  0.51100000000E-03 0.  1.
        -12    1    3    3    0    0  0.73476084833E+01  0.11651728085E+02 -0.65372176750E+01  0.15247469716E+02  0.00000000000E+00 0.  1.
</event>
<event>
 7    1  0.5987893E-013  0.5930194E+02  0.7816164E-02  0.1266605E+00
        -11   -1    0    0    0    0  0.00000000000E+00  0.00000000000E+00  0.45593999997E+02  0.45594000000E+02  0.51100000000E-03 0. -1.
         11   -1    0    0    0    0 -0.00000000000E+00 -0.00000000000E+00 -0.45593999997E+02  0.45594000000E+02  0.51100000000E-03 0.  1.
    9900012    2    1    2    0    0  0.97100742328E+01 -0.10223898588E+02  0.28599073343E+02  0.59301942859E+02  0.49999997868E+02 0.  0.
        -12    1    1    2    0    0 -0.97100742328E+01  0.10223898588E+02 -0.28599073343E+02  0.31886057141E+02  0.00000000000E+00 0.  1.
         11    1    3    3    0    0  0.93553217571E+01  0.46289195630E+01  0.66141295647E+01  0.12357008200E+02  0.51100000000E-03 0. -1.
        -11    1    3    3    0    0 -0.18913370223E+02 -0.10829647731E+02  0.11687793947E+02  0.24730575626E+02  0.51100000000E-03 0.  1.
        -12    1    3    3    0    0  0.19268122699E+02 -0.40231704201E+01  0.10297149831E+02  0.22214359032E+02  0.00000000000E+00 0.  1.
</event>
<event>
 7    1  0.5987893E-013  0.5930189E+02  0.7816164E-02  0.1266605E+00
        -11   -1    0    0    0    0  0.00000000000E+00  0.00000000000E+00  0.45593999997E+02  0.45594000000E+02  0.51100000000E-03 0.  1.
         11   -1    0    0    0    0 -0.00000000000E+00 -0.00000000000E+00 -0.45593999997E+02  0.45594000000E+02  0.51100000000E-03 0. -1.
    9900012    2    1    2    0    0 -0.10475182858E+02  0.27374108671E+02 -0.12555989155E+02  0.59301887896E+02  0.49999897629E+02 0.  0.
        -12    1    1    2    0    0  0.10475182858E+02 -0.27374108671E+02  0.12555989155E+02  0.31886112104E+02  0.00000000000E+00 0.  1.
         11    1    3    3    0    0  0.39826839833E+01  0.19354194531E+02 -0.23134179802E+02  0.30424281306E+02  0.51100000000E-03 0. -1.
        -11    1    3    3    0    0 -0.79431880857E+01  0.13117423435E+02  0.13164728606E+02  0.20210668323E+02  0.51100000000E-03 0.  1.
         12    1    3    3    0    0 -0.65146787556E+01 -0.50975092944E+01 -0.25865379592E+01  0.86669382662E+01  0.00000000000E+00 0. -1.
</event>
<event>
 7    1  0.5987893E-013  0.5930191E+02  0.7816164E-02  0.1266605E+00
        -11   -1    0    0    0    0  0.00000000000E+00  0.00000000000E+00  0.45593999997E+02  0.45594000000E+02  0.51100000000E-03 0. -1.
         11   -1    0    0    0    0 -0.00000000000E+00 -0.00000000000E+00 -0.45593999997E+02  0.45594000000E+02  0.51100000000E-03 0.  1.
    9900012    2    1    2    0    0  0.42349338282E+01  0.15431327039E+02  0.27580111081E+02  0.59301905131E+02  0.49999929062E+02 0.  0.
        -12    1    1    2    0    0 -0.42349338282E+01 -0.15431327039E+02 -0.27580111081E+02  0.31886094869E+02  0.00000000000E+00 0.  1.
         11    1    3    3    0    0  0.81714574637E+01  0.10063685595E+02  0.24019492780E+02  0.27294441165E+02  0.51100000000E-03 0. -1.
        -11    1    3    3    0    0 -0.11083991752E+02 -0.49173608000E+01 -0.83507544531E+01  0.14723125028E+02  0.51100000000E-03 0.  1.
        -12    1    3    3    0    0  0.71474681164E+01  0.10285002244E+02  0.11911372755E+02  0.17284338938E+02  0.00000000000E+00 0.  1.
</event>
<event>
 7    1  0.5987893E-013  0.5930195E+02  0.7816164E-02  0.1266605E+00
        -11   -1    0    0    0    0  0.00000000000E+00  0.00000000000E+00  0.45593999997E+02  0.45594000000E+02  0.51100000000E-03 0. -1.
         11   -1    0    0    0    0 -0.00000000000E+00 -0.00000000000E+00 -0.45593999997E+02  0.45594000000E+02  0.51100000000E-03 0.  1.
    9900012    2    1    2    0    0 -0.16958330627E+02 -0.15878040803E+02  0.21840862915E+02  0.59301945834E+02  0.50000003294E+02 0.  0.
        -12    1    1    2    0    0  0.16958330627E+02  0.15878040803E+02 -0.21840862915E+02  0.31886054166E+02  0.00000000000E+00 0.  1.
         11    1    3    3    0    0  0.33553431716E+01 -0.73836674783E+01  0.30490753407E+02  0.31550957463E+02  0.51100000000E-03 0. -1.
        -11    1    3    3    0    0 -0.21484013106E+01  0.22061343849E+01 -0.56788440788E+01  0.64600253442E+01  0.51100000000E-03 0.  1.
         12    1    3    3    0    0 -0.18165272488E+02 -0.10700507710E+02 -0.29710464133E+01  0.21290963027E+02  0.00000000000E+00 0. -1.
</event>
<event>
 7    1  0.5987893E-013  0.5930193E+02  0.7816164E-02  0.1266605E+00
        -11   -1    0    0    0    0  0.00000000000E+00  0.00000000000E+00  0.45593999997E+02  0.45594000000E+02  0.51100000000E-03 0. -1.
         11   -1    0    0    0    0 -0.00000000000E+00 -0.00000000000E+00 -0.45593999997E+02  0.45594000000E+02  0.51100000000E-03 0.  1.
    9900012    2    1    2    0    0 -0.19519073219E+02  0.12245723633E+02  0.22040182093E+02  0.59301927910E+02  0.49999970604E+02 0.  0.
        -12    1    1    2    0    0  0.19519073219E+02 -0.12245723633E+02 -0.22040182093E+02  0.31886072090E+02  0.00000000000E+00 0.  1.
         11    1    3    3    0    0 -0.27260864671E+02  0.25163401612E+01 -0.46245028037E+01  0.27764595024E+02  0.51100000000E-03 0.  1.
        -11    1    3    3    0    0  0.88811265835E+01  0.37278297941E+01  0.10458161432E+02  0.14217744729E+02  0.51100000000E-03 0. -1.
        -12    1    3    3    0    0 -0.11393351317E+01  0.60015536780E+01  0.16206523465E+02  0.17319588157E+02  0.00000000000E+00 0.  1.
</event>
<event>
 7    1  0.5987893E-013  0.5930194E+02  0.7816164E-02  0.1266605E+00
        -11   -1    0    0    0    0  0.00000000000E+00  0.00000000000E+00  0.45593999997E+02  0.45594000000E+02  0.51100000000E-03 0. -1.
         11   -1    0    0    0    0 -0.00000000000E+00 -0.00000000000E+00 -0.45593999997E+02  0.45594000000E+02  0.51100000000E-03 0.  1.
    9900012    2    1    2    0    0  0.29185278209E+02  0.24509394933E+01 -0.12606864194E+02  0.59301943591E+02  0.49999999203E+02 0.  0.
        -12    1    1    2    0    0 -0.29185278209E+02 -0.24509394933E+01  0.12606864194E+02  0.31886056409E+02  0.00000000000E+00 0.  1.
         11    1    3    3    0    0  0.25373901971E+02  0.17002991040E+02  0.64068601064E+01  0.31208724136E+02  0.51100000000E-03 0. -1.
        -11    1    3    3    0    0  0.51586205345E+01 -0.10530167947E+02 -0.20485112476E+02  0.23603720814E+02  0.51100000000E-03 0.  1.
        -12    1    3    3    0    0 -0.13472442962E+01 -0.40218835997E+01  0.14713881759E+01  0.44894986409E+01  0.00000000000E+00 0.  1.
</event>
<event>
 7    1  0.5987893E-013  0.5930197E+02  0.7816164E-02  0.1266605E+00
        -11   -1    0    0    0    0  0.00000000000E+00  0.00000000000E+00  0.45593999997E+02  0.45594000000E+02  0.51100000000E-03 0.  1.
         11   -1    0    0    0    0 -0.00000000000E+00 -0.00000000000E+00 -0.45593999997E+02  0.45594000000E+02  0.51100000000E-03 0. -1.
    9900012    2    1    2    0    0 -0.10121118372E+02 -0.77602850493E+01 -0.29224303707E+02  0.59301968759E+02  0.50000045104E+02 0.  0.
        -12    1    1    2    0    0  0.10121118372E+02  0.77602850493E+01  0.29224303707E+02  0.31886031241E+02  0.00000000000E+00 0.  1.
         11    1    3    3    0    0  0.30704855958E+01 -0.53868715140E+01  0.11802207790E+02  0.13331855666E+02  0.51100000000E-03 0.  1.
        -11    1    3    3    0    0 -0.16471380097E+02 -0.36146041414E+01 -0.30191759693E+02  0.34581990674E+02  0.51100000000E-03 0. -1.
        -12    1    3    3    0    0  0.32797761288E+01  0.12411906061E+01 -0.10834751804E+02  0.11388122419E+02  0.00000000000E+00 0.  1.
</event>
<event>
 7    1  0.5987893E-013  0.5930193E+02  0.7816164E-02  0.1266605E+00
        -11   -1    0    0    0    0  0.00000000000E+00  0.00000000000E+00  0.45593999997E+02  0.45594000000E+02  0.51100000000E-03 0.  1.
         11   -1    0    0    0    0 -0.00000000000E+00 -0.00000000000E+00 -0.45593999997E+02  0.45594000000E+02  0.51100000000E-03 0. -1.
    9900012    2    1    2    0    0 -0.10022128331E+02  0.30131499268E+02 -0.28933284059E+01  0.59301926964E+02  0.49999968880E+02 0.  0.
        -12    1    1    2    0    0  0.10022128331E+02 -0.30131499268E+02  0.28933284059E+01  0.31886073036E+02  0.00000000000E+00 0.  1.
         11    1    3    3    0    0 -0.48988318028E+01  0.10423274962E+02  0.58648535389E+01  0.12924384753E+02  0.51100000000E-03 0. -1.
        -11    1    3    3    0    0  0.62526098166E+01 -0.87404251259E+01 -0.11348513632E+02  0.15629424904E+02  0.51100000000E-03 0.  1.
         12    1    3    3    0    0 -0.11375906345E+02  0.28448649432E+02  0.25903316873E+01  0.30748117307E+02  0.00000000000E+00 0. -1.
</event>
<event>
 7    1  0.5987893E-013  0.5930185E+02  0.7816164E-02  0.1266605E+00
        -11   -1    0    0    0    0  0.00000000000E+00  0.00000000000E+00  0.45593999997E+02  0.45594000000E+02  0.51100000000E-03 0.  1.
         11   -1    0    0    0    0 -0.00000000000E+00 -0.00000000000E+00 -0.45593999997E+02  0.45594000000E+02  0.51100000000E-03 0. -1.
    9900012    2    1    2    0    0 -0.16986054714E+02  0.14783280305E+02 -0.22575541352E+02  0.59301850991E+02  0.49999830323E+02 0.  0.
        -12    1    1    2    0    0  0.16986054714E+02 -0.14783280305E+02  0.22575541352E+02  0.31886149009E+02  0.00000000000E+00 0.  1.
         11    1    3    3    0    0  0.84725728408E+01  0.14483380830E+02 -0.27173359522E+02  0.31936566484E+02  0.51100000000E-03 0. -1.
        -11    1    3    3    0    0 -0.11387310062E+02  0.41784802396E+01  0.23832223730E+00  0.12132078360E+02  0.51100000000E-03 0.  1.
         12    1    3    3    0    0 -0.14071317493E+02 -0.38785807655E+01  0.43594959329E+01  0.15233206147E+02  0.00000000000E+00 0. -1.
</event>
<event>
 7    1  0.5987893E-013  0.5930192E+02  0.7816164E-02  0.1266605E+00
        -11   -1    0    0    0    0  0.00000000000E+00  0.00000000000E+00  0.45593999997E+02  0.45594000000E+02  0.51100000000E-03 0. -1.
         11   -1    0    0    0    0 -0.00000000000E+00 -0.00000000000E+00 -0.45593999997E+02  0.45594000000E+02  0.51100000000E-03 0.  1.
    9900012    2    1    2    0    0 -0.44525851600E+01  0.24074468642E+02 -0.20428325801E+02  0.59301920748E+02  0.49999957544E+02 0.  0.
        -12    1    1    2    0    0  0.44525851600E+01 -0.24074468642E+02  0.20428325801E+02  0.31886079252E+02  0.00000000000E+00 0.  1.
         11    1    3    3    0    0  0.12627818024E+02  0.64303578744E+01 -0.99665713621E+01  0.17324659749E+02  0.51100000000E-03 0. -1.
        -11    1    3    3    0    0 -0.12335065882E+02  0.20339918575E+02 -0.19940154900E+02  0.31039908435E+02  0.51100000000E-03 0.  1.
         12    1    3    3    0    0 -0.47453373017E+01 -0.26958078075E+01  0.94784004605E+01  0.10937352565E+02  0.00000000000E+00 0. -1.
</event>
<event>
 7    1  0.5987893E-013  0.5930195E+02  0.7816164E-02  0.1266605E+00
        -11   -1    0    0    0    0  0.00000000000E+00  0.00000000000E+00  0.45593999997E+02  0.45594000000E+02  0.51100000000E-03 0. -1.
         11   -1    0    0    0    0 -0.00000000000E+00 -0.00000000000E+00 -0.45593999997E+02  0.45594000000E+02  0.51100000000E-03 0.  1.
    9900012    2    1    2    0    0  0.26721848200E+02  0.14974938557E+02  0.88551872620E+01  0.59301948231E+02  0.50000007666E+02 0.  0.
        -12    1    1    2    0    0 -0.26721848200E+02 -0.14974938557E+02 -0.88551872620E+01  0.31886051769E+02  0.00000000000E+00 0.  1.
         11    1    3    3    0    0  0.35185370415E+02  0.11026382347E+02  0.12014834511E+02  0.38780763885E+02  0.51100000000E-03 0. -1.
        -11    1    3    3    0    0 -0.99238321413E+00  0.96679824231E+01 -0.50066665045E+01  0.10932585162E+02  0.51100000000E-03 0.  1.
         12    1    3    3    0    0 -0.74711390011E+01 -0.57194262134E+01  0.18470192555E+01  0.95885991841E+01  0.00000000000E+00 0. -1.
</event>
<event>
 7    1  0.5987893E-013  0.5930194E+02  0.7816164E-02  0.1266605E+00
        -11   -1    0    0    0    0  0.00000000000E+00  0.00000000000E+00  0.45593999997E+02  0.45594000000E+02  0.51100000000E-03 0. -1.
         11   -1    0    0    0    0 -0.00000000000E+00 -0.00000000000E+00 -0.45593999997E+02  0.45594000000E+02  0.51100000000E-03 0.  1.
    9900012    2    1    2    0    0  0.45463175711E+01 -0.12937299959E+02  0.28786771944E+02  0.59301937643E+02  0.49999988356E+02 0.  0.
        -12    1    1    2    0    0 -0.45463175711E+01  0.12937299959E+02 -0.28786771944E+02  0.31886062357E+02  0.00000000000E+00 0.  1.
         11    1    3    3    0    0 -0.17321830659E+01  0.12884064086E+02  0.22527905008E+02  0.26009730292E+02  0.51100000000E-03 0.  1.
        -11    1    3    3    0    0  0.70581277849E+01 -0.22242534316E+02 -0.28171499559E+01  0.23504974681E+02  0.51100000000E-03 0. -1.
         12    1    3    3    0    0 -0.77962714796E+00 -0.35788297284E+01  0.90760168920E+01  0.97872326701E+01  0.00000000000E+00 0. -1.
</event>
<event>
 7    1  0.5987893E-013  0.5930194E+02  0.7816164E-02  0.1266605E+00
        -11   -1    0    0    0    0  0.00000000000E+00  0.00000000000E+00  0.45593999997E+02  0.45594000000E+02  0.51100000000E-03 0.  1.
         11   -1    0    0    0    0 -0.00000000000E+00 -0.00000000000E+00 -0.45593999997E+02  0.45594000000E+02  0.51100000000E-03 0. -1.
    9900012    2    1    2    0    0 -0.76174932504E+01 -0.44021006561E+01 -0.30648269187E+02  0.59301935681E+02  0.49999984778E+02 0.  0.
        -12    1    1    2    0    0  0.76174932504E+01  0.44021006561E+01  0.30648269187E+02  0.31886064319E+02  0.00000000000E+00 0.  1.
         11    1    3    3    0    0 -0.11040005297E+02 -0.26232283342E+01 -0.40117305858E+02  0.41691261356E+02  0.51100000000E-03 0. -1.
        -11    1    3    3    0    0  0.55883977328E+01 -0.69243514395E+01  0.38678372665E+01  0.97024222470E+01  0.51100000000E-03 0.  1.
         12    1    3    3    0    0 -0.21658856859E+01  0.51454791176E+01  0.56011994051E+01  0.79082520780E+01  0.00000000000E+00 0. -1.
</event>
<event>
 7    1  0.5987893E-013  0.5930196E+02  0.7816164E-02  0.1266605E+00
        -11   -1    0    0    0    0  0.00000000000E+00  0.00000000000E+00  0.45593999997E+02  0.45594000000E+02  0.51100000000E-03 0.  1.
         11   -1    0    0    0    0 -0.00000000000E+00 -0.00000000000E+00 -0.45593999997E+02  0.45594000000E+02  0.51100000000E-03 0. -1.
    9900012    2    1    2    0    0  0.12558902164E+02  0.93942775117E+01 -0.27762221667E+02  0.59301961904E+02  0.50000032602E+02 0.  0.
        -12    1    1    2    0    0 -0.12558902164E+02 -0.93942775117E+01  0.27762221667E+02  0.31886038096E+02  0.00000000000E+00 0.  1.
         11    1    3    3    0    0  0.75673456555E+01  0.12229781301E+01  0.45448655545E+01  0.89115766813E+01  0.51100000000E-03 0. -1.
        -11    1    3    3    0    0 -0.10619635091E+02  0.51618925938E+01 -0.32407389235E+02  0.34491457810E+02  0.51100000000E-03 0.  1.
        -12    1    3    3    0    0  0.15611191600E+02  0.30094067878E+01  0.10030201266E+00  0.15898927413E+02  0.00000000000E+00 0.  1.
</event>
<event>
 7    1  0.5987893E-013  0.5930171E+02  0.7816164E-02  0.1266606E+00
        -11   -1    0    0    0    0  0.00000000000E+00  0.00000000000E+00  0.45593999997E+02  0.45594000000E+02  0.51100000000E-03 0.  1.
         11   -1    0    0    0    0 -0.00000000000E+00 -0.00000000000E+00 -0.45593999997E+02  0.45594000000E+02  0.51100000000E-03 0. -1.
    9900012    2    1    2    0    0 -0.13740017755E+02  0.22448139849E+02 -0.18000790986E+02  0.59301709110E+02  0.49999571565E+02 0.  0.
        -12    1    1    2    0    0  0.13740017755E+02 -0.22448139849E+02  0.18000790986E+02  0.31886290890E+02  0.00000000000E+00 0.  1.
         11    1    3    3    0    0  0.43082460826E+01  0.54844719172E+01  0.10461096171E+02  0.12572786083E+02  0.51100000000E-03 0. -1.
        -11    1    3    3    0    0 -0.19720134614E+02  0.18669747189E+02 -0.11319058694E+02  0.29420473472E+02  0.51100000000E-03 0.  1.
         12    1    3    3    0    0  0.16718707767E+01 -0.17060792571E+01 -0.17142828463E+02  0.17308449556E+02  0.00000000000E+00 0. -1.
</event>
<event>
 7    1  0.5987893E-013  0.5930195E+02  0.7816164E-02  0.1266605E+00
        -11   -1    0    0    0    0  0.00000000000E+00  0.00000000000E+00  0.45593999997E+02  0.45594000000E+02  0.51100000000E-03 0. -1.
         11   -1    0    0    0    0 -0.00000000000E+00 -0.00000000000E+00 -0.45593999997E+02  0.45594000000E+02  0.51100000000E-03 0.  1.
    9900012    2    1    2    0    0 -0.42976457332E+00 -0.17377055125E+02  0.26731511157E+02  0.59301946134E+02  0.50000003841E+02 0.  0.
        -12    1    1    2    0    0  0.42976457332E+00  0.17377055125E+02 -0.26731511157E+02  0.31886053866E+02  0.00000000000E+00 0.  1.
         11    1    3    3    0    0 -0.17715793641E+02  0.62427229853E+01  0.10713469284E+02  0.21624045850E+02  0.51100000000E-03 0. -1.
        -11    1    3    3    0    0  0.90031449532E+01 -0.41546969716E+01 -0.17292233064E+01  0.10065204393E+02  0.51100000000E-03 0.  1.
         12    1    3    3    0    0  0.82828841140E+01 -0.19465081138E+02  0.17747265180E+02  0.27612695890E+02  0.00000000000E+00 0. -1.
</event>
<event>
 7    1  0.5987893E-013  0.5930196E+02  0.7816164E-02  0.1266605E+00
        -11   -1    0    0    0    0  0.00000000000E+00  0.00000000000E+00  0.45593999997E+02  0.45594000000E+02  0.51100000000E-03 0.  1.
         11   -1    0    0    0    0 -0.00000000000E+00 -0.00000000000E+00 -0.45593999997E+02  0.45594000000E+02  0.51100000000E-03 0. -1.
    9900012    2    1    2    0    0  0.17041420206E+02  0.26618650223E+02 -0.42139205134E+01  0.59301958094E+02  0.50000025653E+02 0.  0.
        -12    1    1    2    0    0 -0.17041420206E+02 -0.26618650223E+02  0.42139205134E+01  0.31886041906E+02  0.00000000000E+00 0.  1.
         11    1    3    3    0    0 -0.29489006553E+01 -0.97140802897E+01  0.10239388180E+02  0.14418891827E+02  0.51100000000E-03 0. -1.
        -11    1    3    3    0    0  0.90545559558E+01  0.13626542315E+02 -0.11903169676E+01  0.16403795103E+02  0.51100000000E-03 0.  1.
         12    1    3    3    0    0  0.10935764906E+02  0.22706188198E+02 -0.13262991726E+02  0.28479271164E+02  0.00000000000E+00 0. -1.
</event>
<event>
 7    1  0.5987893E-013  0.5930209E+02  0.7816164E-02  0.1266604E+00
        -11   -1    0    0    0    0  0.00000000000E+00  0.00000000000E+00  0.45593999997E+02  0.45594000000E+02  0.51100000000E-03 0. -1.
         11   -1    0    0    0    0 -0.00000000000E+00 -0.00000000000E+00 -0.45593999997E+02  0.45594000000E+02  0.51100000000E-03 0.  1.
    9900012    2    1    2    0    0 -0.17772969495E+02  0.18239191942E+02  0.19187621079E+02  0.59302088220E+02  0.50000262971E+02 0.  0.
        -12    1    1    2    0    0  0.17772969495E+02 -0.18239191942E+02 -0.19187621079E+02  0.31885911780E+02  0.00000000000E+00 0.  1.
         11    1    3    3    0    0 -0.65442078237E+01  0.78772497103E+00  0.24002335964E+02  0.24890948127E+02  0.51100000000E-03 0. -1.
        -11    1    3    3    0    0 -0.86405033751E+01  0.16329738469E+01 -0.13552528586E+02  0.16155368566E+02  0.51100000000E-03 0.  1.
        -12    1    3    3    0    0 -0.25882582959E+01  0.15818493125E+02  0.87378137017E+01  0.18255771526E+02  0.00000000000E+00 0.  1.
</event>
<event>
 7    1  0.5987893E-013  0.5930188E+02  0.7816164E-02  0.1266605E+00
        -11   -1    0    0    0    0  0.00000000000E+00  0.00000000000E+00  0.45593999997E+02  0.45594000000E+02  0.51100000000E-03 0. -1.
         11   -1    0    0    0    0 -0.00000000000E+00 -0.00000000000E+00 -0.45593999997E+02  0.45594000000E+02  0.51100000000E-03 0.  1.
    9900012    2    1    2    0    0 -0.82666395467E+01 -0.28309765639E+02  0.12122077643E+02  0.59301875646E+02  0.49999875288E+02 0.  0.
        -12    1    1    2    0    0  0.82666395467E+01  0.28309765639E+02 -0.12122077643E+02  0.31886124354E+02  0.00000000000E+00 0.  1.
         11    1    3    3    0    0 -0.21424188359E+01 -0.17130709539E+02  0.22212044812E+01  0.17406461943E+02  0.51100000000E-03 0.  1.
        -11    1    3    3    0    0 -0.11359794252E+02 -0.36836557349E+01  0.23003254542E+02  0.25918409766E+02  0.51100000000E-03 0. -1.
        -12    1    3    3    0    0  0.52355735408E+01 -0.74954003655E+01 -0.13102381381E+02  0.15977003936E+02  0.00000000000E+00 0.  1.
</event>
<event>
 7    1  0.5987893E-013  0.5930200E+02  0.7816164E-02  0.1266605E+00
        -11   -1    0    0    0    0  0.00000000000E+00  0.00000000000E+00  0.45593999997E+02  0.45594000000E+02  0.51100000000E-03 0. -1.
         11   -1    0    0    0    0 -0.00000000000E+00 -0.00000000000E+00 -0.45593999997E+02  0.45594000000E+02  0.51100000000E-03 0.  1.
    9900012    2    1    2    0    0 -0.58502459866E+01 -0.25686545770E+02  0.17963661635E+02  0.59301997569E+02  0.50000097646E+02 0.  0.
        -12    1    1    2    0    0  0.58502459866E+01  0.25686545770E+02 -0.17963661635E+02  0.31886002431E+02  0.00000000000E+00 0.  1.
         11    1    3    3    0    0 -0.13623739539E+02 -0.12315123875E+02  0.14613102951E+02  0.23469370107E+02  0.51100000000E-03 0. -1.
        -11    1    3    3    0    0  0.93327851892E+01  0.57028428027E+01  0.10729557215E+02  0.15321445549E+02  0.51100000000E-03 0.  1.
        -12    1    3    3    0    0 -0.15592916368E+01 -0.19074264698E+02 -0.73789985307E+01  0.20511181913E+02  0.00000000000E+00 0.  1.
</event>
<event>
 7    1  0.5987893E-013  0.5930195E+02  0.7816164E-02  0.1266605E+00
        -11   -1    0    0    0    0  0.00000000000E+00  0.00000000000E+00  0.45593999997E+02  0.45594000000E+02  0.51100000000E-03 0. -1.
         11   -1    0    0    0    0 -0.00000000000E+00 -0.00000000000E+00 -0.45593999997E+02  0.45594000000E+02  0.51100000000E-03 0.  1.
    9900012    2    1    2    0    0 -0.17612879883E+02  0.10461176215E+02  0.24435021654E+02  0.59301952443E+02  0.50000015348E+02 0.  0.
        -12    1    1    2    0    0  0.17612879883E+02 -0.10461176215E+02 -0.24435021654E+02  0.31886047557E+02  0.00000000000E+00 0.  1.
         11    1    3    3    0    0 -0.27392553873E+02  0.11100948872E+02  0.17264889614E+02  0.34229511933E+02  0.51100000000E-03 0. -1.
        -11    1    3    3    0    0  0.69471679677E+01 -0.54718968144E+00 -0.74376936931E+01  0.10192244456E+02  0.51100000000E-03 0.  1.
         12    1    3    3    0    0  0.28325060216E+01 -0.92582975125E-01  0.14607825733E+02  0.14880196054E+02  0.00000000000E+00 0. -1.
</event>
<event>
 7    1  0.5987893E-013  0.5930196E+02  0.7816164E-02  0.1266605E+00
        -11   -1    0    0    0    0  0.00000000000E+00  0.00000000000E+00  0.45593999997E+02  0.45594000000E+02  0.51100000000E-03 0.  1.
         11   -1    0    0    0    0 -0.00000000000E+00 -0.00000000000E+00 -0.45593999997E+02  0.45594000000E+02  0.51100000000E-03 0. -1.
    9900012    2    1    2    0    0 -0.13108287902E+02  0.82758589080E+01 -0.27864004671E+02  0.59301955895E+02  0.50000021642E+02 0.  0.
        -12    1    1    2    0    0  0.13108287902E+02 -0.82758589080E+01  0.27864004671E+02  0.31886044105E+02  0.00000000000E+00 0.  1.
         11    1    3    3    0    0 -0.43891558348E+01  0.15776245703E+02  0.57449021908E+01  0.17353919409E+02  0.51100000000E-03 0.  1.
        -11    1    3    3    0    0 -0.15205792201E+02 -0.32201684628E+01 -0.14246972825E+02  0.21084635077E+02  0.51100000000E-03 0. -1.
         12    1    3    3    0    0  0.64866601338E+01 -0.42802183322E+01 -0.19361934037E+02  0.20863401408E+02  0.00000000000E+00 0. -1.
</event>
<event>
 7    1  0.5987893E-013  0.5930194E+02  0.7816164E-02  0.1266605E+00
        -11   -1    0    0    0    0  0.00000000000E+00  0.00000000000E+00  0.45593999997E+02  0.45594000000E+02  0.51100000000E-03 0.  1.
         11   -1    0    0    0    0 -0.00000000000E+00 -0.00000000000E+00 -0.45593999997E+02  0.45594000000E+02  0.51100000000E-03 0. -1.
    9900012    2    1    2    0    0  0.30049292612E+02  0.10239599162E+02 -0.29851815764E+01  0.59301942129E+02  0.49999996538E+02 0.  0.
        -12    1    1    2    0    0 -0.30049292612E+02 -0.10239599162E+02  0.29851815764E+01  0.31886057871E+02  0.00000000000E+00 0.  1.
         11    1    3    3    0    0  0.12227801267E+02  0.65162448492E+01 -0.13104889147E+02  0.19071410293E+02  0.51100000000E-03 0. -1.
        -11    1    3    3    0    0 -0.54362863569E+01 -0.69365693100E+01  0.11641293051E+02  0.14600989943E+02  0.51100000000E-03 0.  1.
         12    1    3    3    0    0  0.23257777702E+02  0.10659923623E+02 -0.15215854811E+01  0.25629541893E+02  0.00000000000E+00 0. -1.
</event>
<event>
 7    1  0.5987893E-013  0.5930193E+02  0.7816164E-02  0.1266605E+00
        -11   -1    0    0    0    0  0.00000000000E+00  0.00000000000E+00  0.45593999997E+02  0.45594000000E+02  0.51100000000E-03 0.  1.
         11   -1    0    0    0    0 -0.00000000000E+00 -0.00000000000E+00 -0.45593999997E+02  0.45594000000E+02  0.51100000000E-03 0. -1.
    9900012    2    1    2    0    0 -0.17572835785E+01 -0.19690825634E+02 -0.25018088476E+02  0.59301930773E+02  0.49999975827E+02 0.  0.
        -12    1    1    2    0    0  0.17572835785E+01  0.19690825634E+02  0.25018088476E+02  0.31886069227E+02  0.00000000000E+00 0.  1.
         11    1    3    3    0    0  0.11702384075E+02  0.47985850116E+01 -0.22949194505E+02  0.26203773390E+02  0.51100000000E-03 0. -1.
        -11    1    3    3    0    0 -0.14055614190E+02 -0.20170733050E+02  0.47161905908E+01  0.25033202272E+02  0.51100000000E-03 0.  1.
        -12    1    3    3    0    0  0.59594653638E+00 -0.43186775957E+01 -0.67850845614E+01  0.80649551118E+01  0.00000000000E+00 0.  1.
</event>
<event>
 7    1  0.5987893E-013  0.5930182E+02  0.7816164E-02  0.1266605E+00
        -11   -1    0    0    0    0  0.00000000000E+00  0.00000000000E+00  0.45593999997E+02  0.45594000000E+02  0.51100000000E-03 0.  1.
         11   -1    0    0    0    0 -0.00000000000E+00 -0.00000000000E+00 -0.45593999997E+02  0.45594000000E+02  0.51100000000E-03 0. -1.
    9900012    2    1    2    0    0 -0.23216557178E+02  0.12038859366E+02  0.18242410842E+02  0.59301824071E+02  0.49999781228E+02 0.  0.
        -12    1    1    2    0    0  0.23216557178E+02 -0.12038859366E+02 -0.18242410842E+02  0.31886175929E+02  0.00000000000E+00 0.  1.
         11    1    3    3    0    0 -0.27103991407E+02  0.18558811456E+02  0.12776845888E+02  0.35246327808E+02  0.51100000000E-03 0. -1.
        -11    1    3    3    0    0  0.39466169989E+00 -0.12010581118E+02  0.10397094186E+02  0.15890543868E+02  0.51100000000E-03 0.  1.
         12    1    3    3    0    0  0.34927725286E+01  0.54906290272E+01 -0.49315292324E+01  0.81649523956E+01  0.00000000000E+00 0. -1.
</event>
<event>
 7    1  0.5987893E-013  0.5930193E+02  0.7816164E-02  0.1266605E+00
        -11   -1    0    0    0    0  0.00000000000E+00  0.00000000000E+00  0.45593999997E+02  0.45594000000E+02  0.51100000000E-03 0.  1.
         11   -1    0    0    0    0 -0.00000000000E+00 -0.00000000000E+00 -0.45593999997E+02  0.45594000000E+02  0.51100000000E-03 0. -1.
    9900012    2    1    2    0    0  0.58910968574E+01  0.46786605312E+01 -0.30985908683E+02  0.59301930573E+02  0.49999975462E+02 0.  0.
        -12    1    1    2    0    0 -0.58910968574E+01 -0.46786605312E+01  0.30985908683E+02  0.31886069427E+02  0.00000000000E+00 0.  1.
         11    1    3    3    0    0 -0.56763204576E+01  0.10000318678E+02 -0.13202376903E+01  0.11574541694E+02  0.51100000000E-03 0. -1.
        -11    1    3    3    0    0  0.22653934113E+02  0.19397619430E+01 -0.24708156527E+02  0.33577617641E+02  0.51100000000E-03 0.  1.
        -12    1    3    3    0    0 -0.11086516798E+02 -0.72614200897E+01 -0.49575144664E+01  0.14149771239E+02  0.00000000000E+00 0.  1.
</event>
<event>
 7    1  0.5987893E-013  0.5930196E+02  0.7816164E-02  0.1266605E+00
        -11   -1    0    0    0    0  0.00000000000E+00  0.00000000000E+00  0.45593999997E+02  0.45594000000E+02  0.51100000000E-03 0. -1.
         11   -1    0    0    0    0 -0.00000000000E+00 -0.00000000000E+00 -0.45593999997E+02  0.45594000000E+02  0.51100000000E-03 0.  1.
    9900012    2    1    2    0    0  0.16145704045E+02 -0.21841741932E+02  0.16702522227E+02  0.59301957623E+02  0.50000024794E+02 0.  0.
        -12    1    1    2    0    0 -0.16145704045E+02  0.21841741932E+02 -0.16702522227E+02  0.31886042377E+02  0.00000000000E+00 0.  1.
         11    1    3    3    0    0 -0.12969817487E+00  0.16292419786E+01 -0.12268325048E+01  0.20436167198E+01  0.51100000000E-03 0. -1.
        -11    1    3    3    0    0  0.23296783971E+02 -0.34214324121E+02  0.15478523187E+02  0.44192135033E+02  0.51100000000E-03 0.  1.
        -12    1    3    3    0    0 -0.70213817510E+01  0.10743340211E+02  0.24508315447E+01  0.13066205870E+02  0.00000000000E+00 0.  1.
</event>
<event>
 7    1  0.5987893E-013  0.5930195E+02  0.7816164E-02  0.1266605E+00
        -11   -1    0    0    0    0  0.00000000000E+00  0.00000000000E+00  0.45593999997E+02  0.45594000000E+02  0.51100000000E-03 0.  1.
         11   -1    0    0    0    0 -0.00000000000E+00 -0.00000000000E+00 -0.45593999997E+02  0.45594000000E+02  0.51100000000E-03 0. -1.
    9900012    2    1    2    0    0  0.12492524326E+02 -0.21579620010E+02 -0.19874024067E+02  0.59301952951E+02  0.50000016274E+02 0.  0.
        -12    1    1    2    0    0 -0.12492524326E+02  0.21579620010E+02  0.19874024067E+02  0.31886047049E+02  0.00000000000E+00 0.  1.
         11    1    3    3    0    0  0.11022754605E+02  0.10312092100E+02 -0.11273513574E+02  0.18839651565E+02  0.51100000000E-03 0. -1.
        -11    1    3    3    0    0 -0.69357181844E+01 -0.30170936160E+02 -0.67260937574E+01  0.31680118576E+02  0.51100000000E-03 0.  1.
         12    1    3    3    0    0  0.84054879058E+01 -0.17207759506E+01 -0.18744167354E+01  0.87821828098E+01  0.00000000000E+00 0. -1.
</event>
<event>
 7    1  0.5987893E-013  0.5930194E+02  0.7816164E-02  0.1266605E+00
        -11   -1    0    0    0    0  0.00000000000E+00  0.00000000000E+00  0.45593999997E+02  0.45594000000E+02  0.51100000000E-03 0. -1.
         11   -1    0    0    0    0 -0.00000000000E+00 -0.00000000000E+00 -0.45593999997E+02  0.45594000000E+02  0.51100000000E-03 0.  1.
    9900012    2    1    2    0    0 -0.11755240306E+02 -0.28850105772E+02 -0.67975606389E+01  0.59301935515E+02  0.49999984474E+02 0.  0.
        -12    1    1    2    0    0  0.11755240306E+02  0.28850105772E+02  0.67975606389E+01  0.31886064485E+02  0.00000000000E+00 0.  1.
         11    1    3    3    0    0  0.15857546144E+01 -0.21798343008E+02  0.87146941759E+01  0.23529306629E+02  0.51100000000E-03 0. -1.
        -11    1    3    3    0    0  0.65777808118E+01 -0.34761999264E+01 -0.13527469548E+02  0.15438380710E+02  0.51100000000E-03 0.  1.
         12    1    3    3    0    0 -0.19918775733E+02 -0.35755628375E+01 -0.19847852673E+01  0.20334248175E+02  0.00000000000E+00 0. -1.
</event>
<event>
 7    1  0.5987893E-013  0.5930194E+02  0.7816164E-02  0.1266605E+00
        -11   -1    0    0    0    0  0.00000000000E+00  0.00000000000E+00  0.45593999997E+02  0.45594000000E+02  0.51100000000E-03 0.  1.
         11   -1    0    0    0    0 -0.00000000000E+00 -0.00000000000E+00 -0.45593999997E+02  0.45594000000E+02  0.51100000000E-03 0. -1.
    9900012    2    1    2    0    0  0.10777505695E+02 -0.18083324027E+02 -0.23949109954E+02  0.59301935576E+02  0.49999984586E+02 0.  0.
        -12    1    1    2    0    0 -0.10777505695E+02  0.18083324027E+02  0.23949109954E+02  0.31886064424E+02  0.00000000000E+00 0.  1.
         11    1    3    3    0    0 -0.52207608048E+01 -0.10518660659E+02 -0.34996298970E+02  0.36913947328E+02  0.51100000000E-03 0.  1.
        -11    1    3    3    0    0  0.15134974398E+02 -0.41647854635E+01  0.74925395997E+01  0.17393994306E+02  0.51100000000E-03 0. -1.
         12    1    3    3    0    0  0.86329210222E+00 -0.33998779046E+01  0.35546494169E+01  0.49939939425E+01  0.00000000000E+00 0. -1.
</event>
<event>
 7    1  0.5987893E-013  0.5930194E+02  0.7816164E-02  0.1266605E+00
        -11   -1    0    0    0    0  0.00000000000E+00  0.00000000000E+00  0.45593999997E+02  0.45594000000E+02  0.51100000000E-03 0.  1.
         11   -1    0    0    0    0 -0.00000000000E+00 -0.00000000000E+00 -0.45593999997E+02  0.45594000000E+02  0.51100000000E-03 0. -1.
    9900012    2    1    2    0    0 -0.12723529882E+02  0.22010942224E+01 -0.29154554091E+02  0.59301936388E+02  0.49999986066E+02 0.  0.
        -12    1    1    2    0    0  0.12723529882E+02 -0.22010942224E+01  0.29154554091E+02  0.31886063612E+02  0.00000000000E+00 0.  1.
         11    1    3    3    0    0 -0.22015584816E+02  0.37802406583E+01 -0.15144994058E+02  0.26987905430E+02  0.51100000000E-03 0. -1.
        -11    1    3    3    0    0  0.80485543069E+01  0.62651945208E+01  0.52569801648E+01  0.11474655966E+02  0.51100000000E-03 0.  1.
         12    1    3    3    0    0  0.12435006271E+01 -0.78443409566E+01 -0.19266540198E+02  0.20839374992E+02  0.00000000000E+00 0. -1.
</event>
<event>
 7    1  0.5987893E-013  0.5930214E+02  0.7816164E-02  0.1266604E+00
        -11   -1    0    0    0    0  0.00000000000E+00  0.00000000000E+00  0.45593999997E+02  0.45594000000E+02  0.51100000000E-03 0.  1.
         11   -1    0    0    0    0 -0.00000000000E+00 -0.00000000000E+00 -0.45593999997E+02  0.45594000000E+02  0.51100000000E-03 0. -1.
    9900012    2    1    2    0    0 -0.54569235386E+01  0.23734028918E+02 -0.20582182615E+02  0.59302135038E+02  0.50000348356E+02 0.  0.
        -12    1    1    2    0    0  0.54569235386E+01 -0.23734028918E+02  0.20582182615E+02  0.31885864962E+02  0.00000000000E+00 0.  1.
         11    1    3    3    0    0  0.50207372592E+01  0.29173863165E+02 -0.23426627188E+02  0.37750880205E+02  0.51100000000E-03 0. -1.
        -11    1    3    3    0    0 -0.60698093375E+01 -0.66435591004E+01 -0.65327313738E+01  0.11120073848E+02  0.51100000000E-03 0.  1.
         12    1    3    3    0    0 -0.44078514604E+01  0.12037248536E+01  0.93771759467E+01  0.10431180986E+02  0.00000000000E+00 0. -1.
</event>
<event>
 7    1  0.5987893E-013  0.5930194E+02  0.7816164E-02  0.1266605E+00
        -11   -1    0    0    0    0  0.00000000000E+00  0.00000000000E+00  0.45593999997E+02  0.45594000000E+02  0.51100000000E-03 0. -1.
         11   -1    0    0    0    0 -0.00000000000E+00 -0.00000000000E+00 -0.45593999997E+02  0.45594000000E+02  0.51100000000E-03 0.  1.
    9900012    2    1    2    0    0  0.73011576125E+01  0.22458356433E+02  0.21425134000E+02  0.59301936538E+02  0.49999986341E+02 0.  0.
        -12    1    1    2    0    0 -0.73011576125E+01 -0.22458356433E+02 -0.21425134000E+02  0.31886063462E+02  0.00000000000E+00 0.  1.
         11    1    3    3    0    0 -0.18871836941E+01  0.18427384916E+01  0.66893727404E+01  0.71906088313E+01  0.51100000000E-03 0. -1.
        -11    1    3    3    0    0  0.27051679461E+02  0.16294447748E+02  0.10120530221E+02  0.33162139878E+02  0.51100000000E-03 0.  1.
        -12    1    3    3    0    0 -0.17863338154E+02  0.43211701938E+01  0.46152310388E+01  0.18949187830E+02  0.00000000000E+00 0.  1.
</event>
<event>
 7    1  0.5987893E-013  0.5930197E+02  0.7816164E-02  0.1266605E+00
        -11   -1    0    0    0    0  0.00000000000E+00  0.00000000000E+00  0.45593999997E+02  0.45594000000E+02  0.51100000000E-03 0.  1.
         11   -1    0    0    0    0 -0.00000000000E+00 -0.00000000000E+00 -0.45593999997E+02  0.45594000000E+02  0.51100000000E-03 0. -1.
    9900012    2    1    2    0    0  0.31775500886E+02  0.23114172885E+01  0.13014314496E+01  0.59301971238E+02  0.50000049624E+02 0.  0.
        -12    1    1    2    0    0 -0.31775500886E+02 -0.23114172885E+01 -0.13014314496E+01  0.31886028762E+02  0.00000000000E+00 0.  1.
         11    1    3    3    0    0  0.45319865065E+02  0.24861259546E+01  0.24556021497E+01  0.45454383441E+02  0.51100000000E-03 0. -1.
        -11    1    3    3    0    0 -0.10665694600E+02  0.27338741570E+00  0.11496187861E+00  0.10669817172E+02  0.51100000000E-03 0.  1.
         12    1    3    3    0    0 -0.28786695794E+01 -0.44809608182E+00 -0.12691325787E+01  0.31777706254E+01  0.00000000000E+00 0. -1.
</event>
<event>
 7    1  0.5987893E-013  0.5930194E+02  0.7816164E-02  0.1266605E+00
        -11   -1    0    0    0    0  0.00000000000E+00  0.00000000000E+00  0.45593999997E+02  0.45594000000E+02  0.51100000000E-03 0.  1.
         11   -1    0    0    0    0 -0.00000000000E+00 -0.00000000000E+00 -0.45593999997E+02  0.45594000000E+02  0.51100000000E-03 0. -1.
    9900012    2    1    2    0    0 -0.20206559967E+02  0.85304969402E+01 -0.23144031047E+02  0.59301943222E+02  0.49999998531E+02 0.  0.
        -12    1    1    2    0    0  0.20206559967E+02 -0.85304969402E+01  0.23144031047E+02  0.31886056778E+02  0.00000000000E+00 0.  1.
         11    1    3    3    0    0  0.37517250348E+01  0.19053859260E+02 -0.53042446521E+01  0.20131070638E+02  0.51100000000E-03 0. -1.
        -11    1    3    3    0    0 -0.17331255153E+02  0.18657976408E+01 -0.18085502955E+02  0.25118499626E+02  0.51100000000E-03 0.  1.
         12    1    3    3    0    0 -0.66270298485E+01 -0.12389159961E+02  0.24571656099E+00  0.14052372959E+02  0.00000000000E+00 0. -1.
</event>
<event>
 7    1  0.5987893E-013  0.5930194E+02  0.7816164E-02  0.1266605E+00
        -11   -1    0    0    0    0  0.00000000000E+00  0.00000000000E+00  0.45593999997E+02  0.45594000000E+02  0.51100000000E-03 0.  1.
         11   -1    0    0    0    0 -0.00000000000E+00 -0.00000000000E+00 -0.45593999997E+02  0.45594000000E+02  0.51100000000E-03 0. -1.
    9900012    2    1    2    0    0  0.32436996893E+01 -0.16727989821E+02  0.26951320398E+02  0.59301938746E+02  0.49999990367E+02 0.  0.
        -12    1    1    2    0    0 -0.32436996893E+01  0.16727989821E+02 -0.26951320398E+02  0.31886061254E+02  0.00000000000E+00 0.  1.
         11    1    3    3    0    0 -0.70896854532E+01  0.96322920355E+01  0.46306736640E+01  0.12825280836E+02  0.51100000000E-03 0. -1.
        -11    1    3    3    0    0  0.14386747956E+02 -0.18198438600E+02  0.27513328683E+02  0.35988122203E+02  0.51100000000E-03 0.  1.
        -12    1    3    3    0    0 -0.40533628139E+01 -0.81618432562E+01 -0.51926819488E+01  0.10488535706E+02  0.00000000000E+00 0.  1.
</event>
<event>
 7    1  0.5987893E-013  0.5930195E+02  0.7816164E-02  0.1266605E+00
        -11   -1    0    0    0    0  0.00000000000E+00  0.00000000000E+00  0.45593999997E+02  0.45594000000E+02  0.51100000000E-03 0.  1.
         11   -1    0    0    0    0 -0.00000000000E+00 -0.00000000000E+00 -0.45593999997E+02  0.45594000000E+02  0.51100000000E-03 0. -1.
    9900012    2    1    2    0    0  0.90754618465E+01 -0.12100271815E+02 -0.28070264453E+02  0.59301947686E+02  0.50000006671E+02 0.  0.
        -12    1    1    2    0    0 -0.90754618465E+01  0.12100271815E+02  0.28070264453E+02  0.31886052314E+02  0.00000000000E+00 0.  1.
         11    1    3    3    0    0  0.24567122284E+02  0.35929054137E+00 -0.83618602809E+01  0.25953675937E+02  0.51100000000E-03 0. -1.
        -11    1    3    3    0    0 -0.99742937339E+01 -0.11830715415E+02 -0.22361819205E+02  0.27193810346E+02  0.51100000000E-03 0.  1.
         12    1    3    3    0    0 -0.55173667036E+01 -0.62884694176E+00  0.26534150334E+01  0.61544614027E+01  0.00000000000E+00 0. -1.
</event>
<event>
 7    1  0.7392317E-013  0.5930194E+02  0.7816164E-02  0.1266605E+00
        -11   -1    0    0    0    0  0.00000000000E+00  0.00000000000E+00  0.45593999997E+02  0.45594000000E+02  0.51100000000E-03 0.  1.
         11   -1    0    0    0    0 -0.00000000000E+00 -0.00000000000E+00 -0.45593999997E+02  0.45594000000E+02  0.51100000000E-03 0. -1.
    9900012    2    1    2    0    0 -0.50876091099E+01  0.29623472824E+02 -0.10643636340E+02  0.59301938732E+02  0.49999990342E+02 0.  0.
        -12    1    1    2    0    0  0.50876091099E+01 -0.29623472824E+02  0.10643636340E+02  0.31886061268E+02  0.00000000000E+00 0.  1.
         11    1    3    3    0    0 -0.11729817122E+02  0.22920683619E+02 -0.15265267100E+02  0.29932836938E+02  0.51100000000E-03 0. -1.
        -11    1    3    3    0    0 -0.68326046675E+00 -0.99110581096E+01  0.51788186386E+01  0.11203395935E+02  0.51100000000E-03 0.  1.
        -12    1    3    3    0    0  0.73254684785E+01  0.16613847315E+02 -0.55718787825E+00  0.18165705860E+02  0.00000000000E+00 0.  1.
</event>
<event>
 7    1  0.5987893E-013  0.5930198E+02  0.7816164E-02  0.1266605E+00
        -11   -1    0    0    0    0  0.00000000000E+00  0.00000000000E+00  0.45593999997E+02  0.45594000000E+02  0.51100000000E-03 0.  1.
         11   -1    0    0    0    0 -0.00000000000E+00 -0.00000000000E+00 -0.45593999997E+02  0.45594000000E+02  0.51100000000E-03 0. -1.
    9900012    2    1    2    0    0 -0.30283310140E+02 -0.65623595960E+01 -0.75216441330E+01  0.59301975366E+02  0.50000057154E+02 0.  0.
        -12    1    1    2    0    0  0.30283310140E+02  0.65623595960E+01  0.75216441330E+01  0.31886024634E+02  0.00000000000E+00 0.  1.
         11    1    3    3    0    0 -0.80963247490E+01 -0.57767165543E+01 -0.24704529874E+02  0.26631461191E+02  0.51100000000E-03 0. -1.
        -11    1    3    3    0    0 -0.24660189162E+02  0.10828330826E+01  0.15422018715E+02  0.29105602871E+02  0.51100000000E-03 0.  1.
         12    1    3    3    0    0  0.24732037717E+01 -0.18684761242E+01  0.17608670264E+01  0.35649113043E+01  0.00000000000E+00 0. -1.
</event>
<event>
 7    1  0.5987893E-013  0.5930189E+02  0.7816164E-02  0.1266605E+00
        -11   -1    0    0    0    0  0.00000000000E+00  0.00000000000E+00  0.45593999997E+02  0.45594000000E+02  0.51100000000E-03 0. -1.
         11   -1    0    0    0    0 -0.00000000000E+00 -0.00000000000E+00 -0.45593999997E+02  0.45594000000E+02  0.51100000000E-03 0.  1.
    9900012    2    1    2    0    0  0.97852852832E+01 -0.22775100212E+02  0.20056589908E+02  0.59301893363E+02  0.49999907599E+02 0.  0.
        -12    1    1    2    0    0 -0.97852852832E+01  0.22775100212E+02 -0.20056589908E+02  0.31886106637E+02  0.00000000000E+00 0.  1.
         11    1    3    3    0    0 -0.12329876691E+02 -0.15602852671E+02 -0.83147807180E+00  0.19903924908E+02  0.51100000000E-03 0. -1.
        -11    1    3    3    0    0  0.24903338359E+02  0.74941557778E+00  0.14321762086E+02  0.28737619154E+02  0.51100000000E-03 0.  1.
         12    1    3    3    0    0 -0.27881763846E+01 -0.79216631188E+01  0.65663058939E+01  0.10660349301E+02  0.00000000000E+00 0. -1.
</event>
<event>
 7    1  0.5987893E-013  0.5930195E+02  0.7816164E-02  0.1266605E+00
        -11   -1    0    0    0    0  0.00000000000E+00  0.00000000000E+00  0.45593999997E+02  0.45594000000E+02  0.51100000000E-03 0. -1.
         11   -1    0    0    0    0 -0.00000000000E+00 -0.00000000000E+00 -0.45593999997E+02  0.45594000000E+02  0.51100000000E-03 0.  1.
    9900012    2    1    2    0    0  0.19336826209E+02 -0.34057830077E+01  0.25123854282E+02  0.59301948822E+02  0.50000008744E+02 0.  0.
        -12    1    1    2    0    0 -0.19336826209E+02  0.34057830077E+01 -0.25123854282E+02  0.31886051178E+02  0.00000000000E+00 0.  1.
         11    1    3    3    0    0 -0.62031009716E+01  0.31581378047E+01  0.22498112126E+02  0.23550315190E+02  0.51100000000E-03 0. -1.
        -11    1    3    3    0    0  0.24873860769E+02 -0.26077649169E+01  0.10334635921E+02  0.27061302395E+02  0.51100000000E-03 0.  1.
         12    1    3    3    0    0  0.66606641116E+00 -0.39561558954E+01 -0.77088937648E+01  0.86903312371E+01  0.00000000000E+00 0. -1.
</event>
<event>
 7    1  0.5987893E-013  0.5930190E+02  0.7816164E-02  0.1266605E+00
        -11   -1    0    0    0    0  0.00000000000E+00  0.00000000000E+00  0.45593999997E+02  0.45594000000E+02  0.51100000000E-03 0.  1.
         11   -1    0    0    0    0 -0.00000000000E+00 -0.00000000000E+00 -0.45593999997E+02  0.45594000000E+02  0.51100000000E-03 0. -1.
    9900012    2    1    2    0    0 -0.76337044970E+00  0.31604046677E+02 -0.41623312197E+01  0.59301897981E+02  0.49999916021E+02 0.  0.
        -12    1    1    2    0    0  0.76337044970E+00 -0.31604046677E+02  0.41623312197E+01  0.31886102019E+02  0.00000000000E+00 0.  1.
         11    1    3    3    0    0 -0.13805083195E+02  0.12715483213E+02 -0.11770311471E+02  0.22154098216E+02  0.51100000000E-03 0. -1.
        -11    1    3    3    0    0  0.64183770565E+01  0.19433043651E+02  0.16330182926E+02  0.26182315105E+02  0.51100000000E-03 0.  1.
        -12    1    3    3    0    0  0.66233356891E+01 -0.54448018745E+00 -0.87222026745E+01  0.10965484660E+02  0.00000000000E+00 0.  1.
</event>
<event>
 7    1  0.5987893E-013  0.5930195E+02  0.7816164E-02  0.1266605E+00
        -11   -1    0    0    0    0  0.00000000000E+00  0.00000000000E+00  0.45593999997E+02  0.45594000000E+02  0.51100000000E-03 0. -1.
         11   -1    0    0    0    0 -0.00000000000E+00 -0.00000000000E+00 -0.45593999997E+02  0.45594000000E+02  0.51100000000E-03 0.  1.
    9900012    2    1    2    0    0 -0.60589460859E+01  0.12873216065E+02  0.28535760322E+02  0.59301950752E+02  0.50000012263E+02 0.  0.
        -12    1    1    2    0    0  0.60589460859E+01 -0.12873216065E+02 -0.28535760322E+02  0.31886049248E+02  0.00000000000E+00 0.  1.
         11    1    3    3    0    0 -0.13270133482E+02 -0.74158003339E+01  0.18006928190E+02  0.23565652979E+02  0.51100000000E-03 0. -1.
        -11    1    3    3    0    0  0.46523354735E+01  0.26515662476E+02  0.58805294247E+01  0.27555493254E+02  0.51100000000E-03 0.  1.
        -12    1    3    3    0    0  0.25588519223E+01 -0.62266460765E+01  0.46483027067E+01  0.81808045188E+01  0.00000000000E+00 0.  1.
</event>
<event>
 7    1  0.5987893E-013  0.5930202E+02  0.7816164E-02  0.1266605E+00
        -11   -1    0    0    0    0  0.00000000000E+00  0.00000000000E+00  0.45593999997E+02  0.45594000000E+02  0.51100000000E-03 0.  1.
         11   -1    0    0    0    0 -0.00000000000E+00 -0.00000000000E+00 -0.45593999997E+02  0.45594000000E+02  0.51100000000E-03 0. -1.
    9900012    2    1    2    0    0  0.10264267812E+02  0.10956263934E+02  0.28130427553E+02  0.59302017697E+02  0.50000134355E+02 0.  0.
        -12    1    1    2    0    0 -0.10264267812E+02 -0.10956263934E+02 -0.28130427553E+02  0.31885982303E+02  0.00000000000E+00 0.  1.
         11    1    3    3    0    0 -0.29665218365E+01 -0.47265659185E+01 -0.85031021394E+01  0.10170714008E+02  0.51100000000E-03 0. -1.
        -11    1    3    3    0    0  0.14598853212E+02  0.23023727754E+01  0.31389818424E+02  0.34695073662E+02  0.51100000000E-03 0.  1.
        -12    1    3    3    0    0 -0.13680635629E+01  0.13380457077E+02  0.52437112690E+01  0.14436230026E+02  0.00000000000E+00 0.  1.
</event>
<event>
 7    1  0.5987893E-013  0.5930196E+02  0.7816164E-02  0.1266605E+00
        -11   -1    0    0    0    0  0.00000000000E+00  0.00000000000E+00  0.45593999997E+02  0.45594000000E+02  0.51100000000E-03 0. -1.
         11   -1    0    0    0    0 -0.00000000000E+00 -0.00000000000E+00 -0.45593999997E+02  0.45594000000E+02  0.51100000000E-03 0.  1.
    9900012    2    1    2    0    0 -0.49348302021E+00 -0.48645596936E+01  0.31508923278E+02  0.59301957400E+02  0.50000024388E+02 0.  0.
        -12    1    1    2    0    0  0.49348302021E+00  0.48645596936E+01 -0.31508923278E+02  0.31886042600E+02  0.00000000000E+00 0.  1.
         11    1    3    3    0    0 -0.70614682267E+01  0.93892113091E-01 -0.23359439885E+01  0.74383992784E+01  0.51100000000E-03 0. -1.
        -11    1    3    3    0    0  0.11935133956E+02 -0.85209644370E+01  0.40214134200E+02  0.42804565728E+02  0.51100000000E-03 0.  1.
        -12    1    3    3    0    0 -0.53671487490E+01  0.35625126302E+01 -0.63692669327E+01  0.90589923940E+01  0.00000000000E+00 0.  1.
</event>
<event>
 7    1  0.5987893E-013  0.5930195E+02  0.7816164E-02  0.1266605E+00
        -11   -1    0    0    0    0  0.00000000000E+00  0.00000000000E+00  0.45593999997E+02  0.45594000000E+02  0.51100000000E-03 0.  1.
         11   -1    0    0    0    0 -0.00000000000E+00 -0.00000000000E+00 -0.45593999997E+02  0.45594000000E+02  0.51100000000E-03 0. -1.
    9900012    2    1    2    0    0 -0.20667271017E+02 -0.16219815102E+02 -0.18069363033E+02  0.59301947035E+02  0.50000005485E+02 0.  0.
        -12    1    1    2    0    0  0.20667271017E+02  0.16219815102E+02  0.18069363033E+02  0.31886052965E+02  0.00000000000E+00 0.  1.
         11    1    3    3    0    0 -0.71648024716E+01 -0.16797792742E+02 -0.44184907535E+01  0.18788914185E+02  0.51100000000E-03 0. -1.
        -11    1    3    3    0    0 -0.32184416339E+01  0.11120707918E+02  0.81823696904E+01  0.14176730411E+02  0.51100000000E-03 0.  1.
        -12    1    3    3    0    0 -0.10284026911E+02 -0.10542730278E+02 -0.21833241970E+02  0.26336302439E+02  0.00000000000E+00 0.  1.
</event>
<event>
 7    1  0.5987893E-013  0.5930193E+02  0.7816164E-02  0.1266605E+00
        -11   -1    0    0    0    0  0.00000000000E+00  0.00000000000E+00  0.45593999997E+02  0.45594000000E+02  0.51100000000E-03 0. -1.
         11   -1    0    0    0    0 -0.00000000000E+00 -0.00000000000E+00 -0.45593999997E+02  0.45594000000E+02  0.51100000000E-03 0.  1.
    9900012    2    1    2    0    0 -0.29077440729E+02 -0.22819746798E+01  0.12884748028E+02  0.59301926245E+02  0.49999967568E+02 0.  0.
        -12    1    1    2    0    0  0.29077440729E+02  0.22819746798E+01 -0.12884748028E+02  0.31886073755E+02  0.00000000000E+00 0.  1.
         11    1    3    3    0    0 -0.22131539861E+02 -0.54628691546E+01  0.12798234710E+02  0.26142739106E+02  0.51100000000E-03 0. -1.
        -11    1    3    3    0    0  0.38274133005E+01  0.11710590742E+02 -0.10199785572E+02  0.15994456980E+02  0.51100000000E-03 0.  1.
        -12    1    3    3    0    0 -0.10773314169E+02 -0.85296962668E+01  0.10286298890E+02  0.17164730159E+02  0.00000000000E+00 0.  1.
</event>
<event>
 7    1  0.5987893E-013  0.5930177E+02  0.7816164E-02  0.1266605E+00
        -11   -1    0    0    0    0  0.00000000000E+00  0.00000000000E+00  0.45593999997E+02  0.45594000000E+02  0.51100000000E-03 0.  1.
         11   -1    0    0    0    0 -0.00000000000E+00 -0.00000000000E+00 -0.45593999997E+02  0.45594000000E+02  0.51100000000E-03 0. -1.
    9900012    2    1    2    0    0 -0.21282422190E+02  0.51198428584E+01 -0.23185709822E+02  0.59301773740E+02  0.49999689435E+02 0.  0.
        -12    1    1    2    0    0  0.21282422190E+02 -0.51198428584E+01  0.23185709822E+02  0.31886226260E+02  0.00000000000E+00 0.  1.
         11    1    3    3    0    0 -0.92412575670E+01 -0.61955017514E+01 -0.25767748581E+02  0.28067097295E+02  0.51100000000E-03 0. -1.
        -11    1    3    3    0    0  0.81896684902E+01  0.49546505141E+01  0.29761973547E+01  0.10023820761E+02  0.51100000000E-03 0.  1.
         12    1    3    3    0    0 -0.20230833113E+02  0.63606940957E+01 -0.39415859533E+00  0.21210855683E+02  0.00000000000E+00 0. -1.
</event>
<event>
 7    1  0.5987893E-013  0.5930191E+02  0.7816164E-02  0.1266605E+00
        -11   -1    0    0    0    0  0.00000000000E+00  0.00000000000E+00  0.45593999997E+02  0.45594000000E+02  0.51100000000E-03 0.  1.
         11   -1    0    0    0    0 -0.00000000000E+00 -0.00000000000E+00 -0.45593999997E+02  0.45594000000E+02  0.51100000000E-03 0. -1.
    9900012    2    1    2    0    0 -0.22967321608E+02 -0.11569889945E+02 -0.18851066392E+02  0.59301907118E+02  0.49999932686E+02 0.  0.
        -12    1    1    2    0    0  0.22967321608E+02  0.11569889945E+02  0.18851066392E+02  0.31886092882E+02  0.00000000000E+00 0.  1.
         11    1    3    3    0    0  0.21956819072E+01 -0.69486342091E+01 -0.28936761357E+01  0.78407842879E+01  0.51100000000E-03 0. -1.
        -11    1    3    3    0    0 -0.18262372103E+02  0.16542154388E+02 -0.15666398090E+02  0.29199197523E+02  0.51100000000E-03 0.  1.
        -12    1    3    3    0    0 -0.69006314120E+01 -0.21163410124E+02 -0.29099216608E+00  0.22261925307E+02  0.00000000000E+00 0.  1.
</event>
<event>
 7    1  0.5987893E-013  0.5930195E+02  0.7816164E-02  0.1266605E+00
        -11   -1    0    0    0    0  0.00000000000E+00  0.00000000000E+00  0.45593999997E+02  0.45594000000E+02  0.51100000000E-03 0.  1.
         11   -1    0    0    0    0 -0.00000000000E+00 -0.00000000000E+00 -0.45593999997E+02  0.45594000000E+02  0.51100000000E-03 0. -1.
    9900012    2    1    2    0    0 -0.12102414875E+01 -0.15551067460E+02 -0.27810428685E+02  0.59301947763E+02  0.50000006812E+02 0.  0.
        -12    1    1    2    0    0  0.12102414875E+01  0.15551067460E+02  0.27810428685E+02  0.31886052237E+02  0.00000000000E+00 0.  1.
         11    1    3    3    0    0 -0.78072464014E+01  0.12333834169E+02 -0.70761598449E+01  0.16221855630E+02  0.51100000000E-03 0. -1.
        -11    1    3    3    0    0 -0.54861119421E+01 -0.22459470670E+02 -0.73747907085E+01  0.24267525322E+02  0.51100000000E-03 0.  1.
        -12    1    3    3    0    0  0.12083116856E+02 -0.54254309594E+01 -0.13359478132E+02  0.18812566810E+02  0.00000000000E+00 0.  1.
</event>
<event>
 7    1  0.5987893E-013  0.5930195E+02  0.7816164E-02  0.1266605E+00
        -11   -1    0    0    0    0  0.00000000000E+00  0.00000000000E+00  0.45593999997E+02  0.45594000000E+02  0.51100000000E-03 0.  1.
         11   -1    0    0    0    0 -0.00000000000E+00 -0.00000000000E+00 -0.45593999997E+02  0.45594000000E+02  0.51100000000E-03 0. -1.
    9900012    2    1    2    0    0  0.29924165587E+02  0.98368000773E+01 -0.49499268719E+01  0.59301951360E+02  0.50000013373E+02 0.  0.
        -12    1    1    2    0    0 -0.29924165587E+02 -0.98368000773E+01  0.49499268719E+01  0.31886048640E+02  0.00000000000E+00 0.  1.
         11    1    3    3    0    0  0.17342444506E+02 -0.14703939661E+02  0.10913595040E+02  0.25220483342E+02  0.51100000000E-03 0. -1.
        -11    1    3    3    0    0 -0.23832836272E+01  0.30137072541E+01 -0.11174796015E+01  0.40014039014E+01  0.51100000000E-03 0.  1.
         12    1    3    3    0    0  0.14965004707E+02  0.21527032485E+02 -0.14746042310E+02  0.30080064117E+02  0.00000000000E+00 0. -1.
</event>
<event>
 7    1  0.5987893E-013  0.5930196E+02  0.7816164E-02  0.1266605E+00
        -11   -1    0    0    0    0  0.00000000000E+00  0.00000000000E+00  0.45593999997E+02  0.45594000000E+02  0.51100000000E-03 0. -1.
         11   -1    0    0    0    0 -0.00000000000E+00 -0.00000000000E+00 -0.45593999997E+02  0.45594000000E+02  0.51100000000E-03 0.  1.
    9900012    2    1    2    0    0 -0.28017280325E+02  0.99414086570E+01 -0.11529100904E+02  0.59301956492E+02  0.50000022733E+02 0.  0.
        -12    1    1    2    0    0  0.28017280325E+02 -0.99414086570E+01  0.11529100904E+02  0.31886043508E+02  0.00000000000E+00 0.  1.
         11    1    3    3    0    0 -0.21826112646E+02  0.21295297462E+02 -0.20440857748E-01  0.30493758465E+02  0.51100000000E-03 0. -1.
        -11    1    3    3    0    0 -0.66925578011E+01 -0.17330752028E+02 -0.12941854833E+02  0.22641486315E+02  0.51100000000E-03 0.  1.
         12    1    3    3    0    0  0.50139012160E+00  0.59768632235E+01  0.14331947870E+01  0.61667117124E+01  0.00000000000E+00 0. -1.
</event>
<event>
 7    1  0.5987893E-013  0.5930199E+02  0.7816164E-02  0.1266605E+00
        -11   -1    0    0    0    0  0.00000000000E+00  0.00000000000E+00  0.45593999997E+02  0.45594000000E+02  0.51100000000E-03 0.  1.
         11   -1    0    0    0    0 -0.00000000000E+00 -0.00000000000E+00 -0.45593999997E+02  0.45594000000E+02  0.51100000000E-03 0. -1.
    9900012    2    1    2    0    0 -0.18809791982E+02 -0.11829132862E+02 -0.22868773554E+02  0.59301992684E+02  0.50000088738E+02 0.  0.
        -12    1    1    2    0    0  0.18809791982E+02  0.11829132862E+02  0.22868773554E+02  0.31886007316E+02  0.00000000000E+00 0.  1.
         11    1    3    3    0    0 -0.25408885806E+02 -0.12082239066E+02 -0.28765570263E+02  0.40237420538E+02  0.51100000000E-03 0. -1.
        -11    1    3    3    0    0 -0.16767759212E+01  0.68910664481E+01  0.44109825404E+01  0.83519543530E+01  0.51100000000E-03 0.  1.
         12    1    3    3    0    0  0.82758697452E+01 -0.66379602437E+01  0.14858141688E+01  0.10712617793E+02  0.00000000000E+00 0. -1.
</event>
<event>
 7    1  0.5987893E-013  0.5930195E+02  0.7816164E-02  0.1266605E+00
        -11   -1    0    0    0    0  0.00000000000E+00  0.00000000000E+00  0.45593999997E+02  0.45594000000E+02  0.51100000000E-03 0. -1.
         11   -1    0    0    0    0 -0.00000000000E+00 -0.00000000000E+00 -0.45593999997E+02  0.45594000000E+02  0.51100000000E-03 0.  1.
    9900012    2    1    2    0    0  0.23571253975E+02  0.19877659142E+02  0.81237347021E+01  0.59301946428E+02  0.50000004377E+02 0.  0.
        -12    1    1    2    0    0 -0.23571253975E+02 -0.19877659142E+02 -0.81237347021E+01  0.31886053572E+02  0.00000000000E+00 0.  1.
         11    1    3    3    0    0  0.50066656748E+01 -0.14515207923E+02  0.50547380546E+01  0.16165034466E+02  0.51100000000E-03 0. -1.
        -11    1    3    3    0    0  0.10449776030E+02  0.33986801420E+01  0.73522867327E+00  0.11013147018E+02  0.51100000000E-03 0.  1.
         12    1    3    3    0    0  0.81148122699E+01  0.30994186923E+02  0.23337679743E+01  0.32123764943E+02  0.00000000000E+00 0. -1.
</event>
<event>
 7    1  0.5987893E-013  0.5930195E+02  0.7816164E-02  0.1266605E+00
        -11   -1    0    0    0    0  0.00000000000E+00  0.00000000000E+00  0.45593999997E+02  0.45594000000E+02  0.51100000000E-03 0.  1.
         11   -1    0    0    0    0 -0.00000000000E+00 -0.00000000000E+00 -0.45593999997E+02  0.45594000000E+02  0.51100000000E-03 0. -1.
    9900012    2    1    2    0    0 -0.11455341284E+02  0.25464623736E+02 -0.15396366587E+02  0.59301952738E+02  0.50000015885E+02 0.  0.
        -12    1    1    2    0    0  0.11455341284E+02 -0.25464623736E+02  0.15396366587E+02  0.31886047262E+02  0.00000000000E+00 0.  1.
         11    1    3    3    0    0  0.80591099994E+01  0.35887619176E+01 -0.21682001047E+02  0.23408067749E+02  0.51100000000E-03 0. -1.
        -11    1    3    3    0    0 -0.87506177101E+01  0.20486824666E+02 -0.18146557143E+01  0.22351202895E+02  0.51100000000E-03 0.  1.
         12    1    3    3    0    0 -0.10763833573E+02  0.13890371518E+01  0.81002901742E+01  0.13542682094E+02  0.00000000000E+00 0. -1.
</event>
<event>
 7    1  0.5987893E-013  0.5930203E+02  0.7816164E-02  0.1266604E+00
        -11   -1    0    0    0    0  0.00000000000E+00  0.00000000000E+00  0.45593999997E+02  0.45594000000E+02  0.51100000000E-03 0.  1.
         11   -1    0    0    0    0 -0.00000000000E+00 -0.00000000000E+00 -0.45593999997E+02  0.45594000000E+02  0.51100000000E-03 0. -1.
    9900012    2    1    2    0    0 -0.11131145339E+02  0.28651918222E+02 -0.84782280195E+01  0.59302028717E+02  0.50000154452E+02 0.  0.
        -12    1    1    2    0    0  0.11131145339E+02 -0.28651918222E+02  0.84782280195E+01  0.31885971283E+02  0.00000000000E+00 0.  1.
         11    1    3    3    0    0 -0.82990680475E+01  0.41900523903E+02 -0.66579262307E+01  0.43230271983E+02  0.51100000000E-03 0. -1.
        -11    1    3    3    0    0 -0.19936998997E+01 -0.35991954480E+01 -0.44245519857E+01  0.60419953408E+01  0.51100000000E-03 0.  1.
         12    1    3    3    0    0 -0.83837739182E+00 -0.96494102334E+01  0.26042501969E+01  0.10029761393E+02  0.00000000000E+00 0. -1.
</event>
<event>
 7    1  0.5987893E-013  0.5930190E+02  0.7816164E-02  0.1266605E+00
        -11   -1    0    0    0    0  0.00000000000E+00  0.00000000000E+00  0.45593999997E+02  0.45594000000E+02  0.51100000000E-03 0. -1.
         11   -1    0    0    0    0 -0.00000000000E+00 -0.00000000000E+00 -0.45593999997E+02  0.45594000000E+02  0.51100000000E-03 0.  1.
    9900012    2    1    2    0    0  0.14991394268E+02  0.28014573917E+02  0.26767660525E+01  0.59301900672E+02  0.49999920930E+02 0.  0.
        -12    1    1    2    0    0 -0.14991394268E+02 -0.28014573917E+02 -0.26767660525E+01  0.31886099328E+02  0.00000000000E+00 0.  1.
         11    1    3    3    0    0  0.13261408396E+02  0.27625955218E+02  0.12698200746E+02  0.33170810313E+02  0.51100000000E-03 0. -1.
        -11    1    3    3    0    0  0.44233577586E+01 -0.68998064455E+01 -0.14865128857E+02  0.16974848425E+02  0.51100000000E-03 0.  1.
        -12    1    3    3    0    0 -0.26933718870E+01  0.72884251444E+01  0.48436941637E+01  0.91562419342E+01  0.00000000000E+00 0.  1.
</event>
<event>
 7    1  0.5987893E-013  0.5930187E+02  0.7816164E-02  0.1266605E+00
        -11   -1    0    0    0    0  0.00000000000E+00  0.00000000000E+00  0.45593999997E+02  0.45594000000E+02  0.51100000000E-03 0.  1.
         11   -1    0    0    0    0 -0.00000000000E+00 -0.00000000000E+00 -0.45593999997E+02  0.45594000000E+02  0.51100000000E-03 0. -1.
    9900012    2    1    2    0    0  0.31009141150E+02 -0.69312303842E+01  0.26676372843E+01  0.59301873265E+02  0.49999870945E+02 0.  0.
        -12    1    1    2    0    0 -0.31009141150E+02  0.69312303842E+01 -0.26676372843E+01  0.31886126735E+02  0.00000000000E+00 0.  1.
         11    1    3    3    0    0  0.17772391291E+02 -0.18489588880E+02 -0.16470607025E+02  0.30479561762E+02  0.51100000000E-03 0. -1.
        -11    1    3    3    0    0  0.15379890919E+02  0.11812803114E+02  0.17193231670E+02  0.25916993992E+02  0.51100000000E-03 0.  1.
         12    1    3    3    0    0 -0.21431410597E+01 -0.25444461801E+00  0.19450126398E+01  0.29053175101E+01  0.00000000000E+00 0. -1.
</event>
<event>
 7    1  0.5987893E-013  0.5930194E+02  0.7816164E-02  0.1266605E+00
        -11   -1    0    0    0    0  0.00000000000E+00  0.00000000000E+00  0.45593999997E+02  0.45594000000E+02  0.51100000000E-03 0.  1.
         11   -1    0    0    0    0 -0.00000000000E+00 -0.00000000000E+00 -0.45593999997E+02  0.45594000000E+02  0.51100000000E-03 0. -1.
    9900012    2    1    2    0    0  0.10742525982E+02  0.29297356354E+02  0.65562073918E+01  0.59301940206E+02  0.49999993030E+02 0.  0.
        -12    1    1    2    0    0 -0.10742525982E+02 -0.29297356354E+02 -0.65562073918E+01  0.31886059794E+02  0.00000000000E+00 0.  1.
         11    1    3    3    0    0  0.15799762771E+02  0.61426113572E+00 -0.92673309853E+01  0.18327390546E+02  0.51100000000E-03 0. -1.
        -11    1    3    3    0    0 -0.19946665835E+01  0.95799941197E+01  0.18996821485E+02  0.21369001121E+02  0.51100000000E-03 0.  1.
         12    1    3    3    0    0 -0.30625702060E+01  0.19103101099E+02 -0.31732831075E+01  0.19605548540E+02  0.00000000000E+00 0. -1.
</event>
<event>
 7    1  0.5987893E-013  0.5930196E+02  0.7816164E-02  0.1266605E+00
        -11   -1    0    0    0    0  0.00000000000E+00  0.00000000000E+00  0.45593999997E+02  0.45594000000E+02  0.51100000000E-03 0. -1.
         11   -1    0    0    0    0 -0.00000000000E+00 -0.00000000000E+00 -0.45593999997E+02  0.45594000000E+02  0.51100000000E-03 0.  1.
    9900012    2    1    2    0    0 -0.26629057767E+02 -0.17299147265E+02  0.28900851568E+01  0.59301955939E+02  0.50000021723E+02 0.  0.
        -12    1    1    2    0    0  0.26629057767E+02  0.17299147265E+02 -0.28900851568E+01  0.31886044061E+02  0.00000000000E+00 0.  1.
         11    1    3    3    0    0 -0.37735865040E+01 -0.77096754470E+01  0.12869600918E+02  0.15469508029E+02  0.51100000000E-03 0. -1.
        -11    1    3    3    0    0 -0.28347063860E+02  0.33856323728E+01 -0.76077946720E+01  0.29544831631E+02  0.51100000000E-03 0.  1.
        -12    1    3    3    0    0  0.54915925971E+01 -0.12975104190E+02 -0.23717210895E+01  0.14287616279E+02  0.00000000000E+00 0.  1.
</event>
<event>
 7    1  0.5987893E-013  0.5930191E+02  0.7816164E-02  0.1266605E+00
        -11   -1    0    0    0    0  0.00000000000E+00  0.00000000000E+00  0.45593999997E+02  0.45594000000E+02  0.51100000000E-03 0.  1.
         11   -1    0    0    0    0 -0.00000000000E+00 -0.00000000000E+00 -0.45593999997E+02  0.45594000000E+02  0.51100000000E-03 0. -1.
    9900012    2    1    2    0    0 -0.31201030962E+02 -0.72559534285E+00  0.65338937393E+01  0.59301912295E+02  0.49999942128E+02 0.  0.
        -12    1    1    2    0    0  0.31201030962E+02  0.72559534285E+00 -0.65338937393E+01  0.31886087705E+02  0.00000000000E+00 0.  1.
         11    1    3    3    0    0 -0.24785882660E+02 -0.19211669419E+02 -0.31377033360E+01  0.31516240315E+02  0.51100000000E-03 0. -1.
        -11    1    3    3    0    0 -0.63991233135E+01  0.90985318206E+01  0.13634137724E+02  0.17596072636E+02  0.51100000000E-03 0.  1.
         12    1    3    3    0    0 -0.16024988753E-01  0.93875422556E+01 -0.39625406490E+01  0.10189599344E+02  0.00000000000E+00 0. -1.
</event>
<event>
 7    1  0.5987893E-013  0.5930183E+02  0.7816164E-02  0.1266605E+00
        -11   -1    0    0    0    0  0.00000000000E+00  0.00000000000E+00  0.45593999997E+02  0.45594000000E+02  0.51100000000E-03 0. -1.
         11   -1    0    0    0    0 -0.00000000000E+00 -0.00000000000E+00 -0.45593999997E+02  0.45594000000E+02  0.51100000000E-03 0.  1.
    9900012    2    1    2    0    0  0.61651577245E+01 -0.31240756210E+02  0.16535124639E+01  0.59301825539E+02  0.49999783904E+02 0.  0.
        -12    1    1    2    0    0 -0.61651577245E+01  0.31240756210E+02 -0.16535124639E+01  0.31886174461E+02  0.00000000000E+00 0.  1.
         11    1    3    3    0    0  0.16844713527E+02 -0.21829346701E+02  0.10070737367E+02  0.29354463078E+02  0.51100000000E-03 0. -1.
        -11    1    3    3    0    0 -0.22540752976E+01  0.90126197884E+00 -0.14927978452E+02  0.15124075824E+02  0.51100000000E-03 0.  1.
         12    1    3    3    0    0 -0.84254805047E+01 -0.10312671487E+02  0.65107535489E+01  0.14823286637E+02  0.00000000000E+00 0. -1.
</event>
<event>
 7    1  0.5987893E-013  0.5930196E+02  0.7816164E-02  0.1266605E+00
        -11   -1    0    0    0    0  0.00000000000E+00  0.00000000000E+00  0.45593999997E+02  0.45594000000E+02  0.51100000000E-03 0.  1.
         11   -1    0    0    0    0 -0.00000000000E+00 -0.00000000000E+00 -0.45593999997E+02  0.45594000000E+02  0.51100000000E-03 0. -1.
    9900012    2    1    2    0    0  0.33273921486E+01  0.87981087398E+01 -0.30467049210E+02  0.59301963190E+02  0.50000034947E+02 0.  0.
        -12    1    1    2    0    0 -0.33273921486E+01 -0.87981087398E+01  0.30467049210E+02  0.31886036810E+02  0.00000000000E+00 0.  1.
         11    1    3    3    0    0  0.14614707059E+02 -0.15950351852E+02 -0.21460951963E+02  0.30472542494E+02  0.51100000000E-03 0. -1.
        -11    1    3    3    0    0 -0.58511608209E+01  0.11066616746E+02 -0.26603668146E+01  0.12797798287E+02  0.51100000000E-03 0.  1.
         12    1    3    3    0    0 -0.54361540894E+01  0.13681843846E+02 -0.63457304324E+01  0.16031622408E+02  0.00000000000E+00 0. -1.
</event>
<event>
 7    1  0.5987893E-013  0.5930191E+02  0.7816164E-02  0.1266605E+00
        -11   -1    0    0    0    0  0.00000000000E+00  0.00000000000E+00  0.45593999997E+02  0.45594000000E+02  0.51100000000E-03 0.  1.
         11   -1    0    0    0    0 -0.00000000000E+00 -0.00000000000E+00 -0.45593999997E+02  0.45594000000E+02  0.51100000000E-03 0. -1.
    9900012    2    1    2    0    0 -0.12005360081E+02 -0.26836578841E+02 -0.12344716935E+02  0.59301911014E+02  0.49999939792E+02 0.  0.
        -12    1    1    2    0    0  0.12005360081E+02  0.26836578841E+02  0.12344716935E+02  0.31886088986E+02  0.00000000000E+00 0.  1.
         11    1    3    3    0    0 -0.72318173554E+01 -0.15698197173E+02 -0.30943548584E+02  0.35443416539E+02  0.51100000000E-03 0. -1.
        -11    1    3    3    0    0 -0.23778136252E+01 -0.22231070708E+01  0.12198221947E+02  0.12625086995E+02  0.51100000000E-03 0.  1.
         12    1    3    3    0    0 -0.23957291007E+01 -0.89152745973E+01  0.64006097017E+01  0.11233407480E+02  0.00000000000E+00 0. -1.
</event>
<event>
 7    1  0.5987893E-013  0.5930194E+02  0.7816164E-02  0.1266605E+00
        -11   -1    0    0    0    0  0.00000000000E+00  0.00000000000E+00  0.45593999997E+02  0.45594000000E+02  0.51100000000E-03 0. -1.
         11   -1    0    0    0    0 -0.00000000000E+00 -0.00000000000E+00 -0.45593999997E+02  0.45594000000E+02  0.51100000000E-03 0.  1.
    9900012    2    1    2    0    0 -0.13964939515E+02 -0.11373707097E+02  0.26312354659E+02  0.59301941033E+02  0.49999994538E+02 0.  0.
        -12    1    1    2    0    0  0.13964939515E+02  0.11373707097E+02 -0.26312354659E+02  0.31886058967E+02  0.00000000000E+00 0.  1.
         11    1    3    3    0    0 -0.11771980340E+02 -0.23537160236E+02  0.21576743634E+02  0.34031357587E+02  0.51100000000E-03 0. -1.
        -11    1    3    3    0    0 -0.11750270852E+02  0.60872995534E+01  0.71481792327E+00  0.13252737297E+02  0.51100000000E-03 0.  1.
         12    1    3    3    0    0  0.95573116770E+01  0.60761535856E+01  0.40207931012E+01  0.12017846149E+02  0.00000000000E+00 0. -1.
</event>
<event>
 7    1  0.5987893E-013  0.5930196E+02  0.7816164E-02  0.1266605E+00
        -11   -1    0    0    0    0  0.00000000000E+00  0.00000000000E+00  0.45593999997E+02  0.45594000000E+02  0.51100000000E-03 0.  1.
         11   -1    0    0    0    0 -0.00000000000E+00 -0.00000000000E+00 -0.45593999997E+02  0.45594000000E+02  0.51100000000E-03 0. -1.
    9900012    2    1    2    0    0  0.28673246894E+02  0.54697558267E+01  0.12831449715E+02  0.59301962020E+02  0.50000032814E+02 0.  0.
        -12    1    1    2    0    0 -0.28673246894E+02 -0.54697558267E+01 -0.12831449715E+02  0.31886037980E+02  0.00000000000E+00 0.  1.
         11    1    3    3    0    0  0.21950313700E+02 -0.13317526166E+02  0.13208928624E+02  0.28872973009E+02  0.51100000000E-03 0. -1.
        -11    1    3    3    0    0 -0.53836471433E+01  0.17430237590E+02 -0.76913491892E-01  0.18242882309E+02  0.51100000000E-03 0.  1.
        -12    1    3    3    0    0  0.12106580338E+02  0.13570444035E+01 -0.30056541720E+00  0.12186106702E+02  0.00000000000E+00 0.  1.
</event>
<event>
 7    1  0.5987893E-013  0.5930196E+02  0.7816164E-02  0.1266605E+00
        -11   -1    0    0    0    0  0.00000000000E+00  0.00000000000E+00  0.45593999997E+02  0.45594000000E+02  0.51100000000E-03 0.  1.
         11   -1    0    0    0    0 -0.00000000000E+00 -0.00000000000E+00 -0.45593999997E+02  0.45594000000E+02  0.51100000000E-03 0. -1.
    9900012    2    1    2    0    0 -0.15940497735E+02  0.13118819282E+02 -0.24300551886E+02  0.59301957452E+02  0.50000024483E+02 0.  0.
        -12    1    1    2    0    0  0.15940497735E+02 -0.13118819282E+02  0.24300551886E+02  0.31886042548E+02  0.00000000000E+00 0.  1.
         11    1    3    3    0    0 -0.30335540805E+02  0.12832986088E+02 -0.10817258301E+02  0.34669058904E+02  0.51100000000E-03 0. -1.
        -11    1    3    3    0    0  0.78785132740E+01 -0.41935696140E+01  0.88430270266E-01  0.89255149818E+01  0.51100000000E-03 0.  1.
         12    1    3    3    0    0  0.65165297959E+01  0.44794028075E+01 -0.13571723855E+02  0.15707383566E+02  0.00000000000E+00 0. -1.
</event>
<event>
 7    1  0.5987893E-013  0.5930191E+02  0.7816164E-02  0.1266605E+00
        -11   -1    0    0    0    0  0.00000000000E+00  0.00000000000E+00  0.45593999997E+02  0.45594000000E+02  0.51100000000E-03 0.  1.
         11   -1    0    0    0    0 -0.00000000000E+00 -0.00000000000E+00 -0.45593999997E+02  0.45594000000E+02  0.51100000000E-03 0. -1.
    9900012    2    1    2    0    0  0.22802849026E+02 -0.18196965960E+02  0.12869470041E+02  0.59301909725E+02  0.49999937440E+02 0.  0.
        -12    1    1    2    0    0 -0.22802849026E+02  0.18196965960E+02 -0.12869470041E+02  0.31886090275E+02  0.00000000000E+00 0.  1.
         11    1    3    3    0    0  0.25632840213E+02 -0.11288774604E+02 -0.84528077421E+01  0.29256262379E+02  0.51100000000E-03 0. -1.
        -11    1    3    3    0    0 -0.50050385414E-01 -0.28119122742E+01  0.24170965396E+02  0.24334028111E+02  0.51100000000E-03 0.  1.
         12    1    3    3    0    0 -0.27799408009E+01 -0.40962790817E+01 -0.28486876124E+01  0.57116192350E+01  0.00000000000E+00 0. -1.
</event>
<event>
 7    1  0.5987893E-013  0.5930191E+02  0.7816164E-02  0.1266605E+00
        -11   -1    0    0    0    0  0.00000000000E+00  0.00000000000E+00  0.45593999997E+02  0.45594000000E+02  0.51100000000E-03 0.  1.
         11   -1    0    0    0    0 -0.00000000000E+00 -0.00000000000E+00 -0.45593999997E+02  0.45594000000E+02  0.51100000000E-03 0. -1.
    9900012    2    1    2    0    0  0.81628456279E+01 -0.50828214827E+01 -0.30401571288E+02  0.59301911188E+02  0.49999940108E+02 0.  0.
        -12    1    1    2    0    0 -0.81628456279E+01  0.50828214827E+01  0.30401571288E+02  0.31886088812E+02  0.00000000000E+00 0.  1.
         11    1    3    3    0    0  0.12302344247E+02 -0.22657600058E+01  0.68224135535E+01  0.14248742728E+02  0.51100000000E-03 0. -1.
        -11    1    3    3    0    0 -0.41010392353E+01  0.92107258779E+01 -0.63411244762E+01  0.11910745312E+02  0.51100000000E-03 0.  1.
         12    1    3    3    0    0 -0.38459383427E-01 -0.12027787355E+02 -0.30882860365E+02  0.33142423148E+02  0.00000000000E+00 0. -1.
</event>
<event>
 7    1  0.5987893E-013  0.5930206E+02  0.7816164E-02  0.1266604E+00
        -11   -1    0    0    0    0  0.00000000000E+00  0.00000000000E+00  0.45593999997E+02  0.45594000000E+02  0.51100000000E-03 0. -1.
         11   -1    0    0    0    0 -0.00000000000E+00 -0.00000000000E+00 -0.45593999997E+02  0.45594000000E+02  0.51100000000E-03 0.  1.
    9900012    2    1    2    0    0 -0.24890355348E+02 -0.13334014869E+01 -0.19884806940E+02  0.59302058021E+02  0.50000207895E+02 0.  0.
        -12    1    1    2    0    0  0.24890355348E+02  0.13334014869E+01  0.19884806940E+02  0.31885941979E+02  0.00000000000E+00 0.  1.
         11    1    3    3    0    0 -0.12584416502E+02 -0.42681087934E+01 -0.87612719034E+01  0.15916789154E+02  0.51100000000E-03 0. -1.
        -11    1    3    3    0    0  0.10070196199E+01  0.13567340698E+02  0.95304661143E+01  0.16610737694E+02  0.51100000000E-03 0.  1.
        -12    1    3    3    0    0 -0.13312958466E+02 -0.10632633391E+02 -0.20654001151E+02  0.26774531172E+02  0.00000000000E+00 0.  1.
</event>
<event>
 7    1  0.5987893E-013  0.5930183E+02  0.7816164E-02  0.1266605E+00
        -11   -1    0    0    0    0  0.00000000000E+00  0.00000000000E+00  0.45593999997E+02  0.45594000000E+02  0.51100000000E-03 0. -1.
         11   -1    0    0    0    0 -0.00000000000E+00 -0.00000000000E+00 -0.45593999997E+02  0.45594000000E+02  0.51100000000E-03 0.  1.
    9900012    2    1    2    0    0 -0.20145027232E+02  0.22989258576E+02  0.90774299618E+01  0.59301829537E+02  0.49999791197E+02 0.  0.
        -12    1    1    2    0    0  0.20145027232E+02 -0.22989258576E+02 -0.90774299618E+01  0.31886170463E+02  0.00000000000E+00 0.  1.
         11    1    3    3    0    0 -0.10922681448E+02  0.23918387222E+02  0.17153705972E+02  0.31394965299E+02  0.51100000000E-03 0. -1.
        -11    1    3    3    0    0  0.62137996921E+01 -0.74331795110E+01 -0.49036951044E+01  0.10858622850E+02  0.51100000000E-03 0.  1.
        -12    1    3    3    0    0 -0.15436145477E+02  0.65040508654E+01 -0.31725809059E+01  0.17048241389E+02  0.00000000000E+00 0.  1.
</event>
<event>
 7    1  0.5987893E-013  0.5930192E+02  0.7816164E-02  0.1266605E+00
        -11   -1    0    0    0    0  0.00000000000E+00  0.00000000000E+00  0.45593999997E+02  0.45594000000E+02  0.51100000000E-03 0.  1.
         11   -1    0    0    0    0 -0.00000000000E+00 -0.00000000000E+00 -0.45593999997E+02  0.45594000000E+02  0.51100000000E-03 0. -1.
    9900012    2    1    2    0    0 -0.10947102698E+02  0.94251395065E+01 -0.28426213745E+02  0.59301922473E+02  0.49999960689E+02 0.  0.
        -12    1    1    2    0    0  0.10947102698E+02 -0.94251395065E+01  0.28426213745E+02  0.31886077527E+02  0.00000000000E+00 0.  1.
         11    1    3    3    0    0  0.10886739360E+02  0.17744552154E+02 -0.16837589317E+02  0.26774888222E+02  0.51100000000E-03 0. -1.
        -11    1    3    3    0    0 -0.78855520780E+01 -0.46380101639E+01  0.50949308176E+01  0.10471455971E+02  0.51100000000E-03 0.  1.
         12    1    3    3    0    0 -0.13948289979E+02 -0.36814024836E+01 -0.16683555246E+02  0.22055578280E+02  0.00000000000E+00 0. -1.
</event>
<event>
 7    1  0.5987893E-013  0.5930195E+02  0.7816164E-02  0.1266605E+00
        -11   -1    0    0    0    0  0.00000000000E+00  0.00000000000E+00  0.45593999997E+02  0.45594000000E+02  0.51100000000E-03 0. -1.
         11   -1    0    0    0    0 -0.00000000000E+00 -0.00000000000E+00 -0.45593999997E+02  0.45594000000E+02  0.51100000000E-03 0.  1.
    9900012    2    1    2    0    0  0.29793657883E+02 -0.11251382886E+02  0.15699714864E+01  0.59301945409E+02  0.50000002520E+02 0.  0.
        -12    1    1    2    0    0 -0.29793657883E+02  0.11251382886E+02 -0.15699714864E+01  0.31886054591E+02  0.00000000000E+00 0.  1.
         11    1    3    3    0    0 -0.70142838618E+01  0.70269567356E+01  0.11923436079E+02  0.15516011963E+02  0.51100000000E-03 0. -1.
        -11    1    3    3    0    0  0.13739972848E+02 -0.89303086056E+01  0.10232995272E+01  0.16419025788E+02  0.51100000000E-03 0.  1.
         12    1    3    3    0    0  0.23067968897E+02 -0.93480310160E+01 -0.11376764120E+02  0.27366907658E+02  0.00000000000E+00 0. -1.
</event>
<event>
 7    1  0.5987893E-013  0.5930187E+02  0.7816164E-02  0.1266605E+00
        -11   -1    0    0    0    0  0.00000000000E+00  0.00000000000E+00  0.45593999997E+02  0.45594000000E+02  0.51100000000E-03 0.  1.
         11   -1    0    0    0    0 -0.00000000000E+00 -0.00000000000E+00 -0.45593999997E+02  0.45594000000E+02  0.51100000000E-03 0. -1.
    9900012    2    1    2    0    0  0.16019845587E+02 -0.49734980023E+01 -0.27117414720E+02  0.59301869534E+02  0.49999864142E+02 0.  0.
        -12    1    1    2    0    0 -0.16019845587E+02  0.49734980023E+01  0.27117414720E+02  0.31886130466E+02  0.00000000000E+00 0.  1.
         11    1    3    3    0    0  0.24312254061E+02  0.28079797375E+01 -0.29087689290E+02  0.38013998951E+02  0.51100000000E-03 0. -1.
        -11    1    3    3    0    0 -0.46612865851E+00 -0.11502132027E+02 -0.21203531990E+01  0.11705221700E+02  0.51100000000E-03 0.  1.
        -12    1    3    3    0    0 -0.78262798164E+01  0.37206542869E+01  0.40906277689E+01  0.95826488839E+01  0.00000000000E+00 0.  1.
</event>
<event>
 7    1  0.5987893E-013  0.5930195E+02  0.7816164E-02  0.1266605E+00
        -11   -1    0    0    0    0  0.00000000000E+00  0.00000000000E+00  0.45593999997E+02  0.45594000000E+02  0.51100000000E-03 0.  1.
         11   -1    0    0    0    0 -0.00000000000E+00 -0.00000000000E+00 -0.45593999997E+02  0.45594000000E+02  0.51100000000E-03 0. -1.
    9900012    2    1    2    0    0  0.20763486730E+02  0.13910891450E+02 -0.19801131007E+02  0.59301951777E+02  0.50000014133E+02 0.  0.
        -12    1    1    2    0    0 -0.20763486730E+02 -0.13910891450E+02  0.19801131007E+02  0.31886048223E+02  0.00000000000E+00 0.  1.
         11    1    3    3    0    0  0.67211913288E+01 -0.84281024714E+01 -0.75330745732E+01  0.13151218078E+02  0.51100000000E-03 0.  1.
        -11    1    3    3    0    0  0.22693211350E+02  0.25570897780E+02 -0.13650566247E+02  0.36812913682E+02  0.51100000000E-03 0. -1.
        -12    1    3    3    0    0 -0.86509159482E+01 -0.32319038583E+01  0.13825098134E+01  0.93378200173E+01  0.00000000000E+00 0.  1.
</event>
<event>
 7    1  0.5987893E-013  0.5930195E+02  0.7816164E-02  0.1266605E+00
        -11   -1    0    0    0    0  0.00000000000E+00  0.00000000000E+00  0.45593999997E+02  0.45594000000E+02  0.51100000000E-03 0.  1.
         11   -1    0    0    0    0 -0.00000000000E+00 -0.00000000000E+00 -0.45593999997E+02  0.45594000000E+02  0.51100000000E-03 0. -1.
    9900012    2    1    2    0    0  0.11961596776E+02  0.29415992465E+02  0.28879062249E+01  0.59301946426E+02  0.50000004375E+02 0.  0.
        -12    1    1    2    0    0 -0.11961596776E+02 -0.29415992465E+02 -0.28879062249E+01  0.31886053574E+02  0.00000000000E+00 0.  1.
         11    1    3    3    0    0  0.16416450530E+02  0.11476308798E+02 -0.83563059102E+01  0.21703302983E+02  0.51100000000E-03 0. -1.
        -11    1    3    3    0    0 -0.54850674226E+01  0.25566009064E+02  0.13701660156E+02  0.29520201141E+02  0.51100000000E-03 0.  1.
        -12    1    3    3    0    0  0.10302136682E+01 -0.76263253968E+01 -0.24574480214E+01  0.80784423027E+01  0.00000000000E+00 0.  1.
</event>
<event>
 7    1  0.5987893E-013  0.5930186E+02  0.7816164E-02  0.1266605E+00
        -11   -1    0    0    0    0  0.00000000000E+00  0.00000000000E+00  0.45593999997E+02  0.45594000000E+02  0.51100000000E-03 0.  1.
         11   -1    0    0    0    0 -0.00000000000E+00 -0.00000000000E+00 -0.45593999997E+02  0.45594000000E+02  0.51100000000E-03 0. -1.
    9900012    2    1    2    0    0 -0.56437423741E+01  0.97614934013E+01 -0.29825946083E+02  0.59301864437E+02  0.49999854845E+02 0.  0.
        -12    1    1    2    0    0  0.56437423741E+01 -0.97614934013E+01  0.29825946083E+02  0.31886135563E+02  0.00000000000E+00 0.  1.
         11    1    3    3    0    0 -0.10033005247E+02  0.17068615452E+02 -0.24881369948E+02  0.31797506168E+02  0.51100000000E-03 0. -1.
        -11    1    3    3    0    0  0.65817982441E+01 -0.16250289066E+02 -0.52169906588E+01  0.18292319554E+02  0.51100000000E-03 0.  1.
        -12    1    3    3    0    0 -0.21925353711E+01  0.89431670157E+01  0.27241452375E+00  0.92120387156E+01  0.00000000000E+00 0.  1.
</event>
<event>
 7    1  0.5987893E-013  0.5930198E+02  0.7816164E-02  0.1266605E+00
        -11   -1    0    0    0    0  0.00000000000E+00  0.00000000000E+00  0.45593999997E+02  0.45594000000E+02  0.51100000000E-03 0. -1.
         11   -1    0    0    0    0 -0.00000000000E+00 -0.00000000000E+00 -0.45593999997E+02  0.45594000000E+02  0.51100000000E-03 0.  1.
    9900012    2    1    2    0    0 -0.28323688161E+02 -0.13578246713E+02 -0.54880075026E+01  0.59301979220E+02  0.50000064182E+02 0.  0.
        -12    1    1    2    0    0  0.28323688161E+02  0.13578246713E+02  0.54880075026E+01  0.31886020780E+02  0.00000000000E+00 0.  1.
         11    1    3    3    0    0 -0.12399719888E+02 -0.37046933929E+00  0.69644132650E+01  0.14226501792E+02  0.51100000000E-03 0. -1.
        -11    1    3    3    0    0  0.10564764378E+02 -0.73640135191E+01 -0.12504019843E+02  0.17949748020E+02  0.51100000000E-03 0.  1.
        -12    1    3    3    0    0 -0.26488732651E+02 -0.58437638543E+01  0.51599075605E-01  0.27125729408E+02  0.00000000000E+00 0.  1.
</event>
<event>
 7    1  0.5987893E-013  0.5930195E+02  0.7816164E-02  0.1266605E+00
        -11   -1    0    0    0    0  0.00000000000E+00  0.00000000000E+00  0.45593999997E+02  0.45594000000E+02  0.51100000000E-03 0.  1.
         11   -1    0    0    0    0 -0.00000000000E+00 -0.00000000000E+00 -0.45593999997E+02  0.45594000000E+02  0.51100000000E-03 0. -1.
    9900012    2    1    2    0    0  0.14156284256E+02 -0.28569867543E+02  0.28704165554E+00  0.59301951197E+02  0.50000013075E+02 0.  0.
        -12    1    1    2    0    0 -0.14156284256E+02  0.28569867543E+02 -0.28704165554E+00  0.31886048803E+02  0.00000000000E+00 0.  1.
         11    1    3    3    0    0 -0.10866320403E+02 -0.18179246615E+02 -0.72516752111E+01  0.22386351203E+02  0.51100000000E-03 0. -1.
        -11    1    3    3    0    0  0.23189725823E+02  0.18995977121E+01  0.21343147830E+01  0.23365084102E+02  0.51100000000E-03 0.  1.
        -12    1    3    3    0    0  0.18328788356E+01 -0.12290218640E+02  0.54044020836E+01  0.13550515892E+02  0.00000000000E+00 0.  1.
</event>
<event>
 7    1  0.5987893E-013  0.5930206E+02  0.7816164E-02  0.1266604E+00
        -11   -1    0    0    0    0  0.00000000000E+00  0.00000000000E+00  0.45593999997E+02  0.45594000000E+02  0.51100000000E-03 0. -1.
         11   -1    0    0    0    0 -0.00000000000E+00 -0.00000000000E+00 -0.45593999997E+02  0.45594000000E+02  0.51100000000E-03 0.  1.
    9900012    2    1    2    0    0 -0.49057481125E+01 -0.19681979734E+02  0.24602168607E+02  0.59302056530E+02  0.50000205177E+02 0.  0.
        -12    1    1    2    0    0  0.49057481125E+01  0.19681979734E+02 -0.24602168607E+02  0.31885943470E+02  0.00000000000E+00 0.  1.
         11    1    3    3    0    0 -0.19153379042E+02 -0.11726706459E+02 -0.17069752019E+00  0.22458778039E+02  0.51100000000E-03 0.  1.
        -11    1    3    3    0    0  0.15932544023E+02  0.23170267286E+01  0.10670468944E+02  0.19315110138E+02  0.51100000000E-03 0. -1.
         12    1    3    3    0    0 -0.16849130936E+01 -0.10272300003E+02  0.14102397183E+02  0.17528168353E+02  0.00000000000E+00 0. -1.
</event>
<event>
 7    1  0.5987893E-013  0.5930194E+02  0.7816164E-02  0.1266605E+00
        -11   -1    0    0    0    0  0.00000000000E+00  0.00000000000E+00  0.45593999997E+02  0.45594000000E+02  0.51100000000E-03 0. -1.
         11   -1    0    0    0    0 -0.00000000000E+00 -0.00000000000E+00 -0.45593999997E+02  0.45594000000E+02  0.51100000000E-03 0.  1.
    9900012    2    1    2    0    0  0.39024218597E+01 -0.11303124493E+02  0.29558951200E+02  0.59301935400E+02  0.49999984264E+02 0.  0.
        -12    1    1    2    0    0 -0.39024218597E+01  0.11303124493E+02 -0.29558951200E+02  0.31886064600E+02  0.00000000000E+00 0.  1.
         11    1    3    3    0    0  0.29071786758E+01 -0.17079814069E+02  0.27874696035E+02  0.32820274462E+02  0.51100000000E-03 0. -1.
        -11    1    3    3    0    0 -0.62202859795E+00 -0.48653517734E+01 -0.96657427866E+01  0.10839056755E+02  0.51100000000E-03 0.  1.
        -12    1    3    3    0    0  0.16172717819E+01  0.10642041350E+02  0.11349997952E+02  0.15642604183E+02  0.00000000000E+00 0.  1.
</event>
<event>
 7    1  0.5987893E-013  0.5930198E+02  0.7816164E-02  0.1266605E+00
        -11   -1    0    0    0    0  0.00000000000E+00  0.00000000000E+00  0.45593999997E+02  0.45594000000E+02  0.51100000000E-03 0.  1.
         11   -1    0    0    0    0 -0.00000000000E+00 -0.00000000000E+00 -0.45593999997E+02  0.45594000000E+02  0.51100000000E-03 0. -1.
    9900012    2    1    2    0    0 -0.12283033325E+02  0.24685764343E+02 -0.16014318343E+02  0.59301980166E+02  0.50000065907E+02 0.  0.
        -12    1    1    2    0    0  0.12283033325E+02 -0.24685764343E+02  0.16014318343E+02  0.31886019834E+02  0.00000000000E+00 0.  1.
         11    1    3    3    0    0 -0.10759349934E+02  0.27037729026E+02 -0.29564293931E+02  0.41483127628E+02  0.51100000000E-03 0. -1.
        -11    1    3    3    0    0 -0.39868355955E+01  0.33928340662E+01  0.51032758476E+01  0.73109237244E+01  0.51100000000E-03 0.  1.
         12    1    3    3    0    0  0.24631522048E+01 -0.57447987487E+01  0.84466997404E+01  0.10507928814E+02  0.00000000000E+00 0. -1.
</event>
<event>
 7    1  0.5987893E-013  0.5930196E+02  0.7816164E-02  0.1266605E+00
        -11   -1    0    0    0    0  0.00000000000E+00  0.00000000000E+00  0.45593999997E+02  0.45594000000E+02  0.51100000000E-03 0.  1.
         11   -1    0    0    0    0 -0.00000000000E+00 -0.00000000000E+00 -0.45593999997E+02  0.45594000000E+02  0.51100000000E-03 0. -1.
    9900012    2    1    2    0    0 -0.19360688648E+02 -0.77431187440E+01 -0.24123172453E+02  0.59301959136E+02  0.50000027553E+02 0.  0.
        -12    1    1    2    0    0  0.19360688648E+02  0.77431187440E+01  0.24123172453E+02  0.31886040864E+02  0.00000000000E+00 0.  1.
         11    1    3    3    0    0 -0.20264792210E+02 -0.12202485080E+02 -0.17281953884E+01  0.23718117654E+02  0.51100000000E-03 0.  1.
        -11    1    3    3    0    0  0.11970212428E+02  0.85286752357E+01 -0.72448745633E+01  0.16386350861E+02  0.51100000000E-03 0. -1.
        -12    1    3    3    0    0 -0.11066108866E+02 -0.40693088994E+01 -0.15150102501E+02  0.19197490621E+02  0.00000000000E+00 0.  1.
</event>
<event>
 7    1  0.5987893E-013  0.5930202E+02  0.7816164E-02  0.1266604E+00
        -11   -1    0    0    0    0  0.00000000000E+00  0.00000000000E+00  0.45593999997E+02  0.45594000000E+02  0.51100000000E-03 0. -1.
         11   -1    0    0    0    0 -0.00000000000E+00 -0.00000000000E+00 -0.45593999997E+02  0.45594000000E+02  0.51100000000E-03 0.  1.
    9900012    2    1    2    0    0 -0.20371122820E+02 -0.20792661106E+02  0.13015301875E+02  0.59302023713E+02  0.50000145327E+02 0.  0.
        -12    1    1    2    0    0  0.20371122820E+02  0.20792661106E+02 -0.13015301875E+02  0.31885976287E+02  0.00000000000E+00 0.  1.
         11    1    3    3    0    0 -0.24376088575E+02 -0.15116343478E+02  0.24242162495E+02  0.37555025989E+02  0.51100000000E-03 0. -1.
        -11    1    3    3    0    0  0.66409740759E+01 -0.98234745017E+01 -0.11885636967E+02  0.16789030774E+02  0.51100000000E-03 0.  1.
        -12    1    3    3    0    0 -0.26360083210E+01  0.41471568734E+01  0.65877634776E+00  0.49579669500E+01  0.00000000000E+00 0.  1.
</event>
<event>
 7    1  0.5987893E-013  0.5930194E+02  0.7816164E-02  0.1266605E+00
        -11   -1    0    0    0    0  0.00000000000E+00  0.00000000000E+00  0.45593999997E+02  0.45594000000E+02  0.51100000000E-03 0. -1.
         11   -1    0    0    0    0 -0.00000000000E+00 -0.00000000000E+00 -0.45593999997E+02  0.45594000000E+02  0.51100000000E-03 0.  1.
    9900012    2    1    2    0    0  0.43662086001E+01  0.10390335995E+02  0.29827807999E+02  0.59301937376E+02  0.49999987869E+02 0.  0.
        -12    1    1    2    0    0 -0.43662086001E+01 -0.10390335995E+02 -0.29827807999E+02  0.31886062624E+02  0.00000000000E+00 0.  1.
         11    1    3    3    0    0 -0.50143371563E+01  0.95847211117E+01 -0.98369393808E+01  0.14621074945E+02  0.51100000000E-03 0. -1.
        -11    1    3    3    0    0  0.96575465135E+01 -0.53212840879E+01  0.11803761321E+02  0.16152803180E+02  0.51100000000E-03 0.  1.
         12    1    3    3    0    0 -0.27700075717E+00  0.61268989710E+01  0.27860986059E+02  0.28528059251E+02  0.00000000000E+00 0. -1.
</event>
<event>
 7    1  0.5987893E-013  0.5930191E+02  0.7816164E-02  0.1266605E+00
        -11   -1    0    0    0    0  0.00000000000E+00  0.00000000000E+00  0.45593999997E+02  0.45594000000E+02  0.51100000000E-03 0.  1.
         11   -1    0    0    0    0 -0.00000000000E+00 -0.00000000000E+00 -0.45593999997E+02  0.45594000000E+02  0.51100000000E-03 0. -1.
    9900012    2    1    2    0    0  0.21931570275E+02  0.23108589966E+02  0.13123413987E+01  0.59301906716E+02  0.49999931953E+02 0.  0.
        -12    1    1    2    0    0 -0.21931570275E+02 -0.23108589966E+02 -0.13123413987E+01  0.31886093284E+02  0.00000000000E+00 0.  1.
         11    1    3    3    0    0  0.16894330153E+02  0.91293811471E+01 -0.21035986246E+02  0.28482919602E+02  0.51100000000E-03 0. -1.
        -11    1    3    3    0    0  0.25991746751E+00  0.38509675774E+01  0.18620634498E+02  0.19016454395E+02  0.51100000000E-03 0.  1.
        -12    1    3    3    0    0  0.47773226543E+01  0.10128241242E+02  0.37276931472E+01  0.11802532719E+02  0.00000000000E+00 0.  1.
</event>
<event>
 7    1  0.5987893E-013  0.5930196E+02  0.7816164E-02  0.1266605E+00
        -11   -1    0    0    0    0  0.00000000000E+00  0.00000000000E+00  0.45593999997E+02  0.45594000000E+02  0.51100000000E-03 0. -1.
         11   -1    0    0    0    0 -0.00000000000E+00 -0.00000000000E+00 -0.45593999997E+02  0.45594000000E+02  0.51100000000E-03 0.  1.
    9900012    2    1    2    0    0  0.21864455467E+02  0.13806797095E+02  0.18655765138E+02  0.59301958669E+02  0.50000026702E+02 0.  0.
        -12    1    1    2    0    0 -0.21864455467E+02 -0.13806797095E+02 -0.18655765138E+02  0.31886041331E+02  0.00000000000E+00 0.  1.
         11    1    3    3    0    0  0.31242801238E+02 -0.12018757869E+01  0.18029108704E+01  0.31317848306E+02  0.51100000000E-03 0. -1.
        -11    1    3    3    0    0 -0.62897114119E+01  0.12324490039E+02  0.38642070695E+01  0.14366127555E+02  0.51100000000E-03 0.  1.
         12    1    3    3    0    0 -0.30886343598E+01  0.26841828430E+01  0.12988647198E+02  0.13617982809E+02  0.00000000000E+00 0. -1.
</event>
<event>
 7    1  0.5987893E-013  0.5930193E+02  0.7816164E-02  0.1266605E+00
        -11   -1    0    0    0    0  0.00000000000E+00  0.00000000000E+00  0.45593999997E+02  0.45594000000E+02  0.51100000000E-03 0.  1.
         11   -1    0    0    0    0 -0.00000000000E+00 -0.00000000000E+00 -0.45593999997E+02  0.45594000000E+02  0.51100000000E-03 0. -1.
    9900012    2    1    2    0    0  0.50708508355E+01  0.44085812194E+01 -0.31170054850E+02  0.59301930378E+02  0.49999975107E+02 0.  0.
        -12    1    1    2    0    0 -0.50708508355E+01 -0.44085812194E+01  0.31170054850E+02  0.31886069622E+02  0.00000000000E+00 0.  1.
         11    1    3    3    0    0  0.14871383878E+02 -0.96792129655E+00 -0.14207852945E+02  0.20590240787E+02  0.51100000000E-03 0. -1.
        -11    1    3    3    0    0 -0.10405734735E+02  0.18503156373E+02 -0.74822159317E+01  0.22508435455E+02  0.51100000000E-03 0.  1.
        -12    1    3    3    0    0  0.60520169169E+00 -0.13126653857E+02 -0.94799859729E+01  0.16203254136E+02  0.00000000000E+00 0.  1.
</event>
<event>
 7    1  0.5987893E-013  0.5930195E+02  0.7816164E-02  0.1266605E+00
        -11   -1    0    0    0    0  0.00000000000E+00  0.00000000000E+00  0.45593999997E+02  0.45594000000E+02  0.51100000000E-03 0. -1.
         11   -1    0    0    0    0 -0.00000000000E+00 -0.00000000000E+00 -0.45593999997E+02  0.45594000000E+02  0.51100000000E-03 0.  1.
    9900012    2    1    2    0    0 -0.34100420944E+01  0.20967602008E+02  0.23779219171E+02  0.59301953123E+02  0.50000016588E+02 0.  0.
        -12    1    1    2    0    0  0.34100420944E+01 -0.20967602008E+02 -0.23779219171E+02  0.31886046877E+02  0.00000000000E+00 0.  1.
         11    1    3    3    0    0 -0.65099391167E+01 -0.31843785326E+01 -0.78082533607E+01  0.10653093201E+02  0.51100000000E-03 0. -1.
        -11    1    3    3    0    0  0.14548398070E+02  0.15306769680E+02  0.11971599460E+02  0.24274931068E+02  0.51100000000E-03 0.  1.
         12    1    3    3    0    0 -0.11448501048E+02  0.88452108597E+01  0.19615873073E+02  0.24373928854E+02  0.00000000000E+00 0. -1.
</event>
<event>
 7    1  0.6430188E-013  0.5930187E+02  0.7816164E-02  0.1266605E+00
        -11   -1    0    0    0    0  0.00000000000E+00  0.00000000000E+00  0.45593999997E+02  0.45594000000E+02  0.51100000000E-03 0. -1.
         11   -1    0    0    0    0 -0.00000000000E+00 -0.00000000000E+00 -0.45593999997E+02  0.45594000000E+02  0.51100000000E-03 0.  1.
    9900012    2    1    2    0    0 -0.17738095815E+02  0.30268283002E+00  0.26495167655E+02  0.59301865566E+02  0.49999856905E+02 0.  0.
        -12    1    1    2    0    0  0.17738095815E+02 -0.30268283002E+00 -0.26495167655E+02  0.31886134434E+02  0.00000000000E+00 0.  1.
         11    1    3    3    0    0 -0.98023439137E+01 -0.40807243006E+01  0.32257366605E+02  0.33959916926E+02  0.51100000000E-03 0. -1.
        -11    1    3    3    0    0 -0.14318432513E+02  0.88965444006E+01 -0.41441789884E+01  0.17359154117E+02  0.51100000000E-03 0.  1.
        -12    1    3    3    0    0  0.63826806121E+01 -0.45131372700E+01 -0.16180199618E+01  0.79827945239E+01  0.00000000000E+00 0.  1.
</event>
<event>
 7    1  0.5987893E-013  0.5930194E+02  0.7816164E-02  0.1266605E+00
        -11   -1    0    0    0    0  0.00000000000E+00  0.00000000000E+00  0.45593999997E+02  0.45594000000E+02  0.51100000000E-03 0.  1.
         11   -1    0    0    0    0 -0.00000000000E+00 -0.00000000000E+00 -0.45593999997E+02  0.45594000000E+02  0.51100000000E-03 0. -1.
    9900012    2    1    2    0    0 -0.17153125696E+02 -0.14706995224E+02 -0.22498781537E+02  0.59301943481E+02  0.49999999004E+02 0.  0.
        -12    1    1    2    0    0  0.17153125696E+02  0.14706995224E+02  0.22498781537E+02  0.31886056519E+02  0.00000000000E+00 0.  1.
         11    1    3    3    0    0 -0.90210328834E+01 -0.12271082915E+02 -0.16159153953E+02  0.22205331948E+02  0.51100000000E-03 0.  1.
        -11    1    3    3    0    0 -0.19367852863E+02  0.81563298898E+01 -0.49674556670E+01  0.21594329299E+02  0.51100000000E-03 0. -1.
        -12    1    3    3    0    0  0.11235760050E+02 -0.10592242198E+02 -0.13721719169E+01  0.15502282234E+02  0.00000000000E+00 0.  1.
</event>
<event>
 7    1  0.5987893E-013  0.5930187E+02  0.7816164E-02  0.1266605E+00
        -11   -1    0    0    0    0  0.00000000000E+00  0.00000000000E+00  0.45593999997E+02  0.45594000000E+02  0.51100000000E-03 0. -1.
         11   -1    0    0    0    0 -0.00000000000E+00 -0.00000000000E+00 -0.45593999997E+02  0.45594000000E+02  0.51100000000E-03 0.  1.
    9900012    2    1    2    0    0 -0.13871951984E+02 -0.25085854307E+02  0.13964023061E+02  0.59301873264E+02  0.49999870944E+02 0.  0.
        -12    1    1    2    0    0  0.13871951984E+02  0.25085854307E+02 -0.13964023061E+02  0.31886126736E+02  0.00000000000E+00 0.  1.
         11    1    3    3    0    0  0.35715119713E+01 -0.30910020539E+02  0.27280329172E+01  0.31235032117E+02  0.51100000000E-03 0. -1.
        -11    1    3    3    0    0 -0.20322916820E+02  0.80520216652E+01  0.10853751462E+02  0.24406145169E+02  0.51100000000E-03 0.  1.
         12    1    3    3    0    0  0.28794528644E+01 -0.22278554326E+01  0.38223868236E+00  0.36606959772E+01  0.00000000000E+00 0. -1.
</event>
<event>
 7    1  0.5987893E-013  0.5930219E+02  0.7816164E-02  0.1266604E+00
        -11   -1    0    0    0    0  0.00000000000E+00  0.00000000000E+00  0.45593999997E+02  0.45594000000E+02  0.51100000000E-03 0.  1.
         11   -1    0    0    0    0 -0.00000000000E+00 -0.00000000000E+00 -0.45593999997E+02  0.45594000000E+02  0.51100000000E-03 0. -1.
    9900012    2    1    2    0    0  0.18215653254E+02 -0.15905270963E+02 -0.20782623804E+02  0.59302186225E+02  0.50000441708E+02 0.  0.
        -12    1    1    2    0    0 -0.18215653254E+02  0.15905270963E+02  0.20782623804E+02  0.31885813775E+02  0.00000000000E+00 0.  1.
         11    1    3    3    0    0 -0.32201160477E+01 -0.73557155131E+01 -0.20756090132E+02  0.22255133698E+02  0.51100000000E-03 0. -1.
        -11    1    3    3    0    0  0.68810983649E+01 -0.85220650801E+01  0.13357399200E+02  0.17274119995E+02  0.51100000000E-03 0.  1.
        -12    1    3    3    0    0  0.14554670937E+02 -0.27490370113E-01 -0.13383932872E+02  0.19772932533E+02  0.00000000000E+00 0.  1.
</event>
<event>
 7    1  0.5987893E-013  0.5930196E+02  0.7816164E-02  0.1266605E+00
        -11   -1    0    0    0    0  0.00000000000E+00  0.00000000000E+00  0.45593999997E+02  0.45594000000E+02  0.51100000000E-03 0. -1.
         11   -1    0    0    0    0 -0.00000000000E+00 -0.00000000000E+00 -0.45593999997E+02  0.45594000000E+02  0.51100000000E-03 0.  1.
    9900012    2    1    2    0    0 -0.12922556958E+02 -0.25230022200E+02  0.14600449675E+02  0.59301958708E+02  0.50000026774E+02 0.  0.
        -12    1    1    2    0    0  0.12922556958E+02  0.25230022200E+02 -0.14600449675E+02  0.31886041292E+02  0.00000000000E+00 0.  1.
         11    1    3    3    0    0 -0.28418212106E+01 -0.47545343958E+01 -0.66453314520E+01  0.86511256772E+01  0.51100000000E-03 0. -1.
        -11    1    3    3    0    0 -0.55634783526E+01 -0.24198942276E+01  0.29624764915E+02  0.30239624270E+02  0.51100000000E-03 0.  1.
        -12    1    3    3    0    0 -0.45172573948E+01 -0.18055593577E+02 -0.83789837882E+01  0.20411208762E+02  0.00000000000E+00 0.  1.
</event>
<event>
 7    1  0.5987893E-013  0.5930193E+02  0.7816164E-02  0.1266605E+00
        -11   -1    0    0    0    0  0.00000000000E+00  0.00000000000E+00  0.45593999997E+02  0.45594000000E+02  0.51100000000E-03 0. -1.
         11   -1    0    0    0    0 -0.00000000000E+00 -0.00000000000E+00 -0.45593999997E+02  0.45594000000E+02  0.51100000000E-03 0.  1.
    9900012    2    1    2    0    0 -0.15979949351E+02  0.16209707782E+02 -0.22329536155E+02  0.59301927922E+02  0.49999970627E+02 0.  0.
        -12    1    1    2    0    0  0.15979949351E+02 -0.16209707782E+02  0.22329536155E+02  0.31886072078E+02  0.00000000000E+00 0.  1.
         11    1    3    3    0    0  0.24673343797E+00  0.10904050148E+00  0.63437749498E+01  0.63495077049E+01  0.51100000000E-03 0. -1.
        -11    1    3    3    0    0 -0.19279854884E+02  0.26543312100E+02 -0.25697981635E+02  0.41673090622E+02  0.51100000000E-03 0.  1.
        -12    1    3    3    0    0  0.30531720950E+01 -0.10442644820E+02 -0.29753294705E+01  0.11279329596E+02  0.00000000000E+00 0.  1.
</event>
<event>
 7    1  0.5987893E-013  0.5930196E+02  0.7816164E-02  0.1266605E+00
        -11   -1    0    0    0    0  0.00000000000E+00  0.00000000000E+00  0.45593999997E+02  0.45594000000E+02  0.51100000000E-03 0. -1.
         11   -1    0    0    0    0 -0.00000000000E+00 -0.00000000000E+00 -0.45593999997E+02  0.45594000000E+02  0.51100000000E-03 0.  1.
    9900012    2    1    2    0    0  0.24711910903E+02  0.18264677050E+02  0.85113285850E+01  0.59301957874E+02  0.50000025252E+02 0.  0.
        -12    1    1    2    0    0 -0.24711910903E+02 -0.18264677050E+02 -0.85113285850E+01  0.31886042126E+02  0.00000000000E+00 0.  1.
         11    1    3    3    0    0  0.69950136734E+01  0.12889515995E+02  0.20433095962E+02  0.25151167959E+02  0.51100000000E-03 0. -1.
        -11    1    3    3    0    0  0.19636399292E+02  0.63131765867E+01 -0.18206906540E+02  0.27512466661E+02  0.51100000000E-03 0.  1.
         12    1    3    3    0    0 -0.19195020628E+01 -0.93801553166E+00  0.62851391633E+01  0.66383232528E+01  0.00000000000E+00 0. -1.
</event>
<event>
 7    1  0.5987893E-013  0.5930195E+02  0.7816164E-02  0.1266605E+00
        -11   -1    0    0    0    0  0.00000000000E+00  0.00000000000E+00  0.45593999997E+02  0.45594000000E+02  0.51100000000E-03 0. -1.
         11   -1    0    0    0    0 -0.00000000000E+00 -0.00000000000E+00 -0.45593999997E+02  0.45594000000E+02  0.51100000000E-03 0.  1.
    9900012    2    1    2    0    0 -0.11772699059E+02  0.29297311507E+02  0.44487606290E+01  0.59301947002E+02  0.50000005424E+02 0.  0.
        -12    1    1    2    0    0  0.11772699059E+02 -0.29297311507E+02 -0.44487606290E+01  0.31886052998E+02  0.00000000000E+00 0.  1.
         11    1    3    3    0    0 -0.11884787859E+02 -0.42929476986E+01  0.18728913983E+02  0.22593136162E+02  0.51100000000E-03 0. -1.
        -11    1    3    3    0    0 -0.61854316561E+00  0.26335049684E+02 -0.95643890589E+01  0.28024899212E+02  0.51100000000E-03 0.  1.
         12    1    3    3    0    0  0.73063196544E+00  0.72552095219E+01 -0.47157642954E+01  0.86839116281E+01  0.00000000000E+00 0. -1.
</event>
<event>
 7    1  0.5987893E-013  0.5930199E+02  0.7816164E-02  0.1266605E+00
        -11   -1    0    0    0    0  0.00000000000E+00  0.00000000000E+00  0.45593999997E+02  0.45594000000E+02  0.51100000000E-03 0.  1.
         11   -1    0    0    0    0 -0.00000000000E+00 -0.00000000000E+00 -0.45593999997E+02  0.45594000000E+02  0.51100000000E-03 0. -1.
    9900012    2    1    2    0    0  0.26742405017E+01  0.18689859654E+02 -0.25695437212E+02  0.59301985673E+02  0.50000075951E+02 0.  0.
        -12    1    1    2    0    0 -0.26742405017E+01 -0.18689859654E+02  0.25695437212E+02  0.31886014327E+02  0.00000000000E+00 0.  1.
         11    1    3    3    0    0  0.10181529374E+02 -0.73280163470E+01 -0.59010722477E+01  0.13863117179E+02  0.51100000000E-03 0. -1.
        -11    1    3    3    0    0  0.30338858466E+01  0.22190092555E+02 -0.24573394624E+02  0.33248404391E+02  0.51100000000E-03 0.  1.
        -12    1    3    3    0    0 -0.10541174719E+02  0.38277834455E+01  0.47790296600E+01  0.12190464103E+02  0.00000000000E+00 0.  1.
</event>
<event>
 7    1  0.5987893E-013  0.5930193E+02  0.7816164E-02  0.1266605E+00
        -11   -1    0    0    0    0  0.00000000000E+00  0.00000000000E+00  0.45593999997E+02  0.45594000000E+02  0.51100000000E-03 0. -1.
         11   -1    0    0    0    0 -0.00000000000E+00 -0.00000000000E+00 -0.45593999997E+02  0.45594000000E+02  0.51100000000E-03 0.  1.
    9900012    2    1    2    0    0  0.23446294924E+02 -0.89454376145E+01  0.19671607691E+02  0.59301925470E+02  0.49999966156E+02 0.  0.
        -12    1    1    2    0    0 -0.23446294924E+02  0.89454376145E+01 -0.19671607691E+02  0.31886074530E+02  0.00000000000E+00 0.  1.
         11    1    3    3    0    0  0.27258668542E+01  0.64078913163E+01  0.45799609380E+00  0.69786232103E+01  0.51100000000E-03 0. -1.
        -11    1    3    3    0    0  0.87281183003E+01 -0.24691901036E+02  0.24859527535E+02  0.36109086604E+02  0.51100000000E-03 0.  1.
        -12    1    3    3    0    0  0.11992309769E+02  0.93385721053E+01 -0.56459159380E+01  0.16214215656E+02  0.00000000000E+00 0.  1.
</event>
<event>
 7    1  0.5987893E-013  0.5930193E+02  0.7816164E-02  0.1266605E+00
        -11   -1    0    0    0    0  0.00000000000E+00  0.00000000000E+00  0.45593999997E+02  0.45594000000E+02  0.51100000000E-03 0. -1.
         11   -1    0    0    0    0 -0.00000000000E+00 -0.00000000000E+00 -0.45593999997E+02  0.45594000000E+02  0.51100000000E-03 0.  1.
    9900012    2    1    2    0    0 -0.17805672272E+02 -0.16497016826E+02  0.20676754751E+02  0.59301925982E+02  0.49999967089E+02 0.  0.
        -12    1    1    2    0    0  0.17805672272E+02  0.16497016826E+02 -0.20676754751E+02  0.31886074018E+02  0.00000000000E+00 0.  1.
         11    1    3    3    0    0 -0.12835756070E+02 -0.82476812411E+01  0.21168415306E+02  0.26093728874E+02  0.51100000000E-03 0. -1.
        -11    1    3    3    0    0 -0.13758566640E+01  0.10449371400E+02  0.71017679577E+01  0.12708951672E+02  0.51100000000E-03 0.  1.
        -12    1    3    3    0    0 -0.35940595382E+01 -0.18698706985E+02 -0.75934285119E+01  0.20499245436E+02  0.00000000000E+00 0.  1.
</event>
<event>
 7    1  0.5987893E-013  0.5930194E+02  0.7816164E-02  0.1266605E+00
        -11   -1    0    0    0    0  0.00000000000E+00  0.00000000000E+00  0.45593999997E+02  0.45594000000E+02  0.51100000000E-03 0.  1.
         11   -1    0    0    0    0 -0.00000000000E+00 -0.00000000000E+00 -0.45593999997E+02  0.45594000000E+02  0.51100000000E-03 0. -1.
    9900012    2    1    2    0    0 -0.15452080573E+02 -0.25942196451E+02 -0.10244835421E+02  0.59301937159E+02  0.49999987473E+02 0.  0.
        -12    1    1    2    0    0  0.15452080573E+02  0.25942196451E+02  0.10244835421E+02  0.31886062841E+02  0.00000000000E+00 0.  1.
         11    1    3    3    0    0 -0.58954223514E+01 -0.19532919543E+02 -0.13404122027E+02  0.24412321442E+02  0.51100000000E-03 0. -1.
        -11    1    3    3    0    0 -0.18376183600E+02  0.42465364547E+01 -0.40514877033E+01  0.19290716639E+02  0.51100000000E-03 0.  1.
        -12    1    3    3    0    0  0.88195253782E+01 -0.10655813362E+02  0.72107743102E+01  0.15598899078E+02  0.00000000000E+00 0.  1.
</event>
<event>
 7    1  0.5987893E-013  0.5930194E+02  0.7816164E-02  0.1266605E+00
        -11   -1    0    0    0    0  0.00000000000E+00  0.00000000000E+00  0.45593999997E+02  0.45594000000E+02  0.51100000000E-03 0. -1.
         11   -1    0    0    0    0 -0.00000000000E+00 -0.00000000000E+00 -0.45593999997E+02  0.45594000000E+02  0.51100000000E-03 0.  1.
    9900012    2    1    2    0    0 -0.57043302673E+01  0.25070684778E+02  0.18858471560E+02  0.59301943978E+02  0.49999999910E+02 0.  0.
        -12    1    1    2    0    0  0.57043302673E+01 -0.25070684778E+02 -0.18858471560E+02  0.31886056022E+02  0.00000000000E+00 0.  1.
         11    1    3    3    0    0 -0.97512640315E+01  0.16527382230E+02  0.29822436499E+01  0.19419971448E+02  0.51100000000E-03 0. -1.
        -11    1    3    3    0    0 -0.10758065293E+02 -0.86851965100E+01  0.69550748165E+01  0.15477133883E+02  0.51100000000E-03 0.  1.
        -12    1    3    3    0    0  0.14804999057E+02  0.17228499058E+02  0.89211530938E+01  0.24404838648E+02  0.00000000000E+00 0.  1.
</event>
<event>
 7    1  0.5987893E-013  0.5930194E+02  0.7816164E-02  0.1266605E+00
        -11   -1    0    0    0    0  0.00000000000E+00  0.00000000000E+00  0.45593999997E+02  0.45594000000E+02  0.51100000000E-03 0.  1.
         11   -1    0    0    0    0 -0.00000000000E+00 -0.00000000000E+00 -0.45593999997E+02  0.45594000000E+02  0.51100000000E-03 0. -1.
    9900012    2    1    2    0    0  0.55333258389E+01 -0.29885110439E+02  0.96427920693E+01  0.59301937847E+02  0.49999988727E+02 0.  0.
        -12    1    1    2    0    0 -0.55333258389E+01  0.29885110439E+02 -0.96427920693E+01  0.31886062153E+02  0.00000000000E+00 0.  1.
         11    1    3    3    0    0  0.94258906361E+01 -0.10385895747E+02 -0.28782180171E+01  0.14317764629E+02  0.51100000000E-03 0. -1.
        -11    1    3    3    0    0 -0.76719896269E+01  0.16794971410E+01  0.20567012726E+02  0.22015497910E+02  0.51100000000E-03 0.  1.
        -12    1    3    3    0    0  0.37794248297E+01 -0.21178711832E+02 -0.80460026396E+01  0.22968675308E+02  0.00000000000E+00 0.  1.
</event>
<event>
 7    1  0.5987893E-013  0.5930195E+02  0.7816164E-02  0.1266605E+00
        -11   -1    0    0    0    0  0.00000000000E+00  0.00000000000E+00  0.45593999997E+02  0.45594000000E+02  0.51100000000E-03 0.  1.
         11   -1    0    0    0    0 -0.00000000000E+00 -0.00000000000E+00 -0.45593999997E+02  0.45594000000E+02  0.51100000000E-03 0. -1.
    9900012    2    1    2    0    0 -0.10643302644E+02 -0.30029616836E+02 -0.12894182620E+01  0.59301946969E+02  0.50000005364E+02 0.  0.
        -12    1    1    2    0    0  0.10643302644E+02  0.30029616836E+02  0.12894182620E+01  0.31886053031E+02  0.00000000000E+00 0.  1.
         11    1    3    3    0    0 -0.18045480449E+02 -0.32797022538E+02 -0.13480825575E+02  0.39787142526E+02  0.51100000000E-03 0. -1.
        -11    1    3    3    0    0  0.10915223427E+02  0.13897361668E+01  0.68032438024E+01  0.12936676372E+02  0.51100000000E-03 0.  1.
         12    1    3    3    0    0 -0.35130456220E+01  0.13776695355E+01  0.53881635104E+01  0.65781280701E+01  0.00000000000E+00 0. -1.
</event>
<event>
 7    1  0.5987893E-013  0.5930195E+02  0.7816164E-02  0.1266605E+00
        -11   -1    0    0    0    0  0.00000000000E+00  0.00000000000E+00  0.45593999997E+02  0.45594000000E+02  0.51100000000E-03 0.  1.
         11   -1    0    0    0    0 -0.00000000000E+00 -0.00000000000E+00 -0.45593999997E+02  0.45594000000E+02  0.51100000000E-03 0. -1.
    9900012    2    1    2    0    0 -0.19053008753E+02  0.17617507229E+02 -0.18529072465E+02  0.59301949289E+02  0.50000009595E+02 0.  0.
        -12    1    1    2    0    0  0.19053008753E+02 -0.17617507229E+02  0.18529072465E+02  0.31886050711E+02  0.00000000000E+00 0.  1.
         11    1    3    3    0    0 -0.25098801254E+02  0.16825683119E+01 -0.25581885293E+02  0.35877760743E+02  0.51100000000E-03 0. -1.
        -11    1    3    3    0    0 -0.16213182811E+01  0.11149921206E+02 -0.10103514935E+01  0.11312392597E+02  0.51100000000E-03 0.  1.
         12    1    3    3    0    0  0.76671107820E+01  0.47850177114E+01  0.80631643213E+01  0.12111795949E+02  0.00000000000E+00 0. -1.
</event>
<event>
 7    1  0.5987893E-013  0.5930196E+02  0.7816164E-02  0.1266605E+00
        -11   -1    0    0    0    0  0.00000000000E+00  0.00000000000E+00  0.45593999997E+02  0.45594000000E+02  0.51100000000E-03 0.  1.
         11   -1    0    0    0    0 -0.00000000000E+00 -0.00000000000E+00 -0.45593999997E+02  0.45594000000E+02  0.51100000000E-03 0. -1.
    9900012    2    1    2    0    0 -0.65817662084E+00 -0.23814270899E+02 -0.21193557364E+02  0.59301959658E+02  0.50000028507E+02 0.  0.
        -12    1    1    2    0    0  0.65817662084E+00  0.23814270899E+02  0.21193557364E+02  0.31886040342E+02  0.00000000000E+00 0.  1.
         11    1    3    3    0    0 -0.45859139359E+01 -0.44453700140E+01 -0.12722089300E+02  0.14235289867E+02  0.51100000000E-03 0. -1.
        -11    1    3    3    0    0  0.74739561802E+01 -0.27935572066E+02  0.43506943652E+01  0.29243542011E+02  0.51100000000E-03 0.  1.
        -12    1    3    3    0    0 -0.35462188651E+01  0.85666711812E+01 -0.12822162429E+02  0.15823127780E+02  0.00000000000E+00 0.  1.
</event>
<event>
 7    1  0.5987893E-013  0.5930197E+02  0.7816164E-02  0.1266605E+00
        -11   -1    0    0    0    0  0.00000000000E+00  0.00000000000E+00  0.45593999997E+02  0.45594000000E+02  0.51100000000E-03 0.  1.
         11   -1    0    0    0    0 -0.00000000000E+00 -0.00000000000E+00 -0.45593999997E+02  0.45594000000E+02  0.51100000000E-03 0. -1.
    9900012    2    1    2    0    0  0.13169978442E+02 -0.28120294426E+02  0.72470620589E+01  0.59301965451E+02  0.50000039071E+02 0.  0.
        -12    1    1    2    0    0 -0.13169978442E+02  0.28120294426E+02 -0.72470620589E+01  0.31886034549E+02  0.00000000000E+00 0.  1.
         11    1    3    3    0    0 -0.29110093127E+01 -0.12300235389E+02 -0.17988845229E+02  0.21985638922E+02  0.51100000000E-03 0. -1.
        -11    1    3    3    0    0  0.14598451936E+02 -0.14737865915E+02  0.12022900777E+02  0.23976439144E+02  0.51100000000E-03 0.  1.
         12    1    3    3    0    0  0.14825358184E+01 -0.10821931224E+01  0.13213006511E+02  0.13339887386E+02  0.00000000000E+00 0. -1.
</event>
<event>
 7    1  0.5987893E-013  0.5930193E+02  0.7816164E-02  0.1266605E+00
        -11   -1    0    0    0    0  0.00000000000E+00  0.00000000000E+00  0.45593999997E+02  0.45594000000E+02  0.51100000000E-03 0.  1.
         11   -1    0    0    0    0 -0.00000000000E+00 -0.00000000000E+00 -0.45593999997E+02  0.45594000000E+02  0.51100000000E-03 0. -1.
    9900012    2    1    2    0    0 -0.20576939328E+02 -0.24112500203E+02  0.34493722869E+01  0.59301933022E+02  0.49999979928E+02 0.  0.
        -12    1    1    2    0    0  0.20576939328E+02  0.24112500203E+02 -0.34493722869E+01  0.31886066978E+02  0.00000000000E+00 0.  1.
         11    1    3    3    0    0 -0.14114465706E+02 -0.33255886345E+02 -0.33776069501E+01  0.36284712314E+02  0.51100000000E-03 0. -1.
        -11    1    3    3    0    0 -0.11453075636E+02  0.45272679329E+01 -0.13434485488E+01  0.12388460385E+02  0.51100000000E-03 0.  1.
         12    1    3    3    0    0  0.49906020140E+01  0.46161182091E+01  0.81704277859E+01  0.10628760322E+02  0.00000000000E+00 0. -1.
</event>
<event>
 7    1  0.5987893E-013  0.5930192E+02  0.7816164E-02  0.1266605E+00
        -11   -1    0    0    0    0  0.00000000000E+00  0.00000000000E+00  0.45593999997E+02  0.45594000000E+02  0.51100000000E-03 0.  1.
         11   -1    0    0    0    0 -0.00000000000E+00 -0.00000000000E+00 -0.45593999997E+02  0.45594000000E+02  0.51100000000E-03 0. -1.
    9900012    2    1    2    0    0  0.26194782293E+02  0.11285981717E+02 -0.14254203751E+02  0.59301916401E+02  0.49999949616E+02 0.  0.
        -12    1    1    2    0    0 -0.26194782293E+02 -0.11285981717E+02  0.14254203751E+02  0.31886083599E+02  0.00000000000E+00 0.  1.
         11    1    3    3    0    0  0.21728484448E+02 -0.12490009056E+02 -0.15660179504E+02  0.29552810103E+02  0.51100000000E-03 0. -1.
        -11    1    3    3    0    0  0.24175736614E+01  0.11040046838E+02  0.92909632434E+01  0.14630423604E+02  0.51100000000E-03 0.  1.
        -12    1    3    3    0    0  0.20487241843E+01  0.12735943935E+02 -0.78849874898E+01  0.15118682694E+02  0.00000000000E+00 0.  1.
</event>
<event>
 7    1  0.5987893E-013  0.5930195E+02  0.7816164E-02  0.1266605E+00
        -11   -1    0    0    0    0  0.00000000000E+00  0.00000000000E+00  0.45593999997E+02  0.45594000000E+02  0.51100000000E-03 0. -1.
         11   -1    0    0    0    0 -0.00000000000E+00 -0.00000000000E+00 -0.45593999997E+02  0.45594000000E+02  0.51100000000E-03 0.  1.
    9900012    2    1    2    0    0 -0.26037942762E+02 -0.11343477994E+02  0.14493825971E+02  0.59301953717E+02  0.50000017672E+02 0.  0.
        -12    1    1    2    0    0  0.26037942762E+02  0.11343477994E+02 -0.14493825971E+02  0.31886046283E+02  0.00000000000E+00 0.  1.
         11    1    3    3    0    0 -0.84618758842E+01  0.13879673608E+02  0.66820284450E+01  0.17575499633E+02  0.51100000000E-03 0. -1.
        -11    1    3    3    0    0 -0.12662636925E+02 -0.28156670288E+02  0.13465816744E+02  0.33681874598E+02  0.51100000000E-03 0.  1.
        -12    1    3    3    0    0 -0.49134299527E+01  0.29335186859E+01 -0.56540192182E+01  0.80445794856E+01  0.00000000000E+00 0.  1.
</event>
<event>
 7    1  0.5987893E-013  0.5930187E+02  0.7816164E-02  0.1266605E+00
        -11   -1    0    0    0    0  0.00000000000E+00  0.00000000000E+00  0.45593999997E+02  0.45594000000E+02  0.51100000000E-03 0.  1.
         11   -1    0    0    0    0 -0.00000000000E+00 -0.00000000000E+00 -0.45593999997E+02  0.45594000000E+02  0.51100000000E-03 0. -1.
    9900012    2    1    2    0    0  0.28850651560E+02 -0.13500464776E+02 -0.14501547821E+01  0.59301865184E+02  0.49999856208E+02 0.  0.
        -12    1    1    2    0    0 -0.28850651560E+02  0.13500464776E+02  0.14501547821E+01  0.31886134816E+02  0.00000000000E+00 0.  1.
         11    1    3    3    0    0  0.20427703050E+02 -0.62544077661E+01 -0.45348116636E+01  0.21839715783E+02  0.51100000000E-03 0. -1.
        -11    1    3    3    0    0  0.20569526435E+01  0.92358651243E+01  0.13848966585E+02  0.16772779570E+02  0.51100000000E-03 0.  1.
        -12    1    3    3    0    0  0.63659958659E+01 -0.16481922134E+02 -0.10764309703E+02  0.20689369831E+02  0.00000000000E+00 0.  1.
</event>
<event>
 7    1  0.5987893E-013  0.5930199E+02  0.7816164E-02  0.1266605E+00
        -11   -1    0    0    0    0  0.00000000000E+00  0.00000000000E+00  0.45593999997E+02  0.45594000000E+02  0.51100000000E-03 0.  1.
         11   -1    0    0    0    0 -0.00000000000E+00 -0.00000000000E+00 -0.45593999997E+02  0.45594000000E+02  0.51100000000E-03 0. -1.
    9900012    2    1    2    0    0  0.12949950950E+02  0.93244952497E+01 -0.27605619148E+02  0.59301989747E+02  0.50000083382E+02 0.  0.
        -12    1    1    2    0    0 -0.12949950950E+02 -0.93244952497E+01  0.27605619148E+02  0.31886010253E+02  0.00000000000E+00 0.  1.
         11    1    3    3    0    0 -0.12827374182E+02 -0.35376855703E+01 -0.22796745303E+02  0.26395991064E+02  0.51100000000E-03 0. -1.
        -11    1    3    3    0    0  0.47009805228E+01  0.70596058521E+01  0.39497262315E+01  0.93561525334E+01  0.51100000000E-03 0.  1.
         12    1    3    3    0    0  0.21076344610E+02  0.58025749679E+01 -0.87586000770E+01  0.23549846150E+02  0.00000000000E+00 0. -1.
</event>
<event>
 7    1  0.5987893E-013  0.5930193E+02  0.7816164E-02  0.1266605E+00
        -11   -1    0    0    0    0  0.00000000000E+00  0.00000000000E+00  0.45593999997E+02  0.45594000000E+02  0.51100000000E-03 0.  1.
         11   -1    0    0    0    0 -0.00000000000E+00 -0.00000000000E+00 -0.45593999997E+02  0.45594000000E+02  0.51100000000E-03 0. -1.
    9900012    2    1    2    0    0 -0.27099032018E+02 -0.37544686108E+01 -0.16378885451E+02  0.59301930009E+02  0.49999974434E+02 0.  0.
        -12    1    1    2    0    0  0.27099032018E+02  0.37544686108E+01  0.16378885451E+02  0.31886069991E+02  0.00000000000E+00 0.  1.
         11    1    3    3    0    0  0.24752122917E+01 -0.51442649699E+00 -0.27409453399E+02  0.27525796018E+02  0.51100000000E-03 0. -1.
        -11    1    3    3    0    0 -0.49177909980E+01 -0.97827566911E+00  0.23612902831E+01  0.55423265554E+01  0.51100000000E-03 0.  1.
         12    1    3    3    0    0 -0.24656453312E+02 -0.22617664447E+01  0.86692776654E+01  0.26233807436E+02  0.00000000000E+00 0. -1.
</event>
<event>
 7    1  0.5987893E-013  0.5930190E+02  0.7816164E-02  0.1266605E+00
        -11   -1    0    0    0    0  0.00000000000E+00  0.00000000000E+00  0.45593999997E+02  0.45594000000E+02  0.51100000000E-03 0.  1.
         11   -1    0    0    0    0 -0.00000000000E+00 -0.00000000000E+00 -0.45593999997E+02  0.45594000000E+02  0.51100000000E-03 0. -1.
    9900012    2    1    2    0    0 -0.44925316798E+01  0.17915057337E+02 -0.25992141621E+02  0.59301897285E+02  0.49999914753E+02 0.  0.
        -12    1    1    2    0    0  0.44925316798E+01 -0.17915057337E+02  0.25992141621E+02  0.31886102715E+02  0.00000000000E+00 0.  1.
         11    1    3    3    0    0  0.13209805524E+02  0.51232460233E+01 -0.49688381337E+01  0.15014525116E+02  0.51100000000E-03 0. -1.
        -11    1    3    3    0    0 -0.17688533243E+02 -0.57923668368E+01 -0.38994526452E+01  0.19016872852E+02  0.51100000000E-03 0.  1.
        -12    1    3    3    0    0 -0.13803960786E-01  0.18584178150E+02 -0.17123850843E+02  0.25270499317E+02  0.00000000000E+00 0.  1.
</event>
<event>
 7    1  0.5987893E-013  0.5930189E+02  0.7816164E-02  0.1266605E+00
        -11   -1    0    0    0    0  0.00000000000E+00  0.00000000000E+00  0.45593999997E+02  0.45594000000E+02  0.51100000000E-03 0.  1.
         11   -1    0    0    0    0 -0.00000000000E+00 -0.00000000000E+00 -0.45593999997E+02  0.45594000000E+02  0.51100000000E-03 0. -1.
    9900012    2    1    2    0    0  0.13279087742E+02  0.28743855083E+02  0.37657049472E+01  0.59301891581E+02  0.49999904350E+02 0.  0.
        -12    1    1    2    0    0 -0.13279087742E+02 -0.28743855083E+02 -0.37657049472E+01  0.31886108419E+02  0.00000000000E+00 0.  1.
         11    1    3    3    0    0  0.56540881342E+01  0.11002837781E+02 -0.14987665230E+02  0.19433508720E+02  0.51100000000E-03 0. -1.
        -11    1    3    3    0    0 -0.78677436470E+01  0.29306352474E+01  0.16248611399E+02  0.18289543070E+02  0.51100000000E-03 0.  1.
        -12    1    3    3    0    0  0.15492743255E+02  0.14810382055E+02  0.25047587786E+01  0.21578839791E+02  0.00000000000E+00 0.  1.
</event>
<event>
 7    1  0.5987893E-013  0.5930193E+02  0.7816164E-02  0.1266605E+00
        -11   -1    0    0    0    0  0.00000000000E+00  0.00000000000E+00  0.45593999997E+02  0.45594000000E+02  0.51100000000E-03 0.  1.
         11   -1    0    0    0    0 -0.00000000000E+00 -0.00000000000E+00 -0.45593999997E+02  0.45594000000E+02  0.51100000000E-03 0. -1.
    9900012    2    1    2    0    0  0.13183489275E+02 -0.24938594621E+02 -0.14865513139E+02  0.59301931380E+02  0.49999976934E+02 0.  0.
        -12    1    1    2    0    0 -0.13183489275E+02  0.24938594621E+02  0.14865513139E+02  0.31886068620E+02  0.00000000000E+00 0.  1.
         11    1    3    3    0    0  0.17275252450E+02 -0.31419302899E+02 -0.12343884628E+01  0.35876603197E+02  0.51100000000E-03 0. -1.
        -11    1    3    3    0    0 -0.10213524630E+02  0.75351707786E+01 -0.77518037573E+01  0.14872301294E+02  0.51100000000E-03 0.  1.
        -12    1    3    3    0    0  0.61217614560E+01 -0.10544625013E+01 -0.58793209188E+01  0.85530268886E+01  0.00000000000E+00 0.  1.
</event>
<event>
 7    1  0.5987893E-013  0.5930196E+02  0.7816164E-02  0.1266605E+00
        -11   -1    0    0    0    0  0.00000000000E+00  0.00000000000E+00  0.45593999997E+02  0.45594000000E+02  0.51100000000E-03 0.  1.
         11   -1    0    0    0    0 -0.00000000000E+00 -0.00000000000E+00 -0.45593999997E+02  0.45594000000E+02  0.51100000000E-03 0. -1.
    9900012    2    1    2    0    0  0.14286525830E+02  0.28415129373E+02 -0.22792564752E+01  0.59301962183E+02  0.50000033111E+02 0.  0.
        -12    1    1    2    0    0 -0.14286525830E+02 -0.28415129373E+02  0.22792564752E+01  0.31886037817E+02  0.00000000000E+00 0.  1.
         11    1    3    3    0    0  0.23647722506E+02  0.12864620028E+02  0.33981820436E+01  0.27134127398E+02  0.51100000000E-03 0. -1.
        -11    1    3    3    0    0 -0.85274971283E+01  0.11589613915E+02  0.89804748534E+01  0.16961317367E+02  0.51100000000E-03 0.  1.
         12    1    3    3    0    0 -0.83369954803E+00  0.39608954299E+01 -0.14657913372E+02  0.15206517418E+02  0.00000000000E+00 0. -1.
</event>
<event>
 7    1  0.5987893E-013  0.5930196E+02  0.7816164E-02  0.1266605E+00
        -11   -1    0    0    0    0  0.00000000000E+00  0.00000000000E+00  0.45593999997E+02  0.45594000000E+02  0.51100000000E-03 0.  1.
         11   -1    0    0    0    0 -0.00000000000E+00 -0.00000000000E+00 -0.45593999997E+02  0.45594000000E+02  0.51100000000E-03 0. -1.
    9900012    2    1    2    0    0  0.31302960539E+02  0.79733597327E+00 -0.60173315405E+01  0.59301962898E+02  0.50000034415E+02 0.  0.
        -12    1    1    2    0    0 -0.31302960539E+02 -0.79733597327E+00  0.60173315405E+01  0.31886037102E+02  0.00000000000E+00 0.  1.
         11    1    3    3    0    0 -0.10777384971E+01  0.77011812846E+01 -0.69046260493E+01  0.10399210287E+02  0.51100000000E-03 0. -1.
        -11    1    3    3    0    0  0.23737602524E+02 -0.15733800775E+02 -0.12130722380E+02  0.30954493795E+02  0.51100000000E-03 0.  1.
        -12    1    3    3    0    0  0.86430965125E+01  0.88299554638E+01  0.13018016889E+02  0.17948258816E+02  0.00000000000E+00 0.  1.
</event>
<event>
 7    1  0.5987893E-013  0.5930194E+02  0.7816164E-02  0.1266605E+00
        -11   -1    0    0    0    0  0.00000000000E+00  0.00000000000E+00  0.45593999997E+02  0.45594000000E+02  0.51100000000E-03 0.  1.
         11   -1    0    0    0    0 -0.00000000000E+00 -0.00000000000E+00 -0.45593999997E+02  0.45594000000E+02  0.51100000000E-03 0. -1.
    9900012    2    1    2    0    0 -0.15775711481E+02  0.15271706619E+02 -0.23121913703E+02  0.59301937385E+02  0.49999987886E+02 0.  0.
        -12    1    1    2    0    0  0.15775711481E+02 -0.15271706619E+02  0.23121913703E+02  0.31886062615E+02  0.00000000000E+00 0.  1.
         11    1    3    3    0    0 -0.11744643660E+01 -0.47692970699E+01 -0.16239463017E+02  0.16966016634E+02  0.51100000000E-03 0. -1.
        -11    1    3    3    0    0 -0.24731675093E+02  0.17099032624E+02 -0.63106078122E+00  0.30073757789E+02  0.51100000000E-03 0.  1.
        -12    1    3    3    0    0  0.10130427978E+02  0.29419710646E+01 -0.62513899046E+01  0.12262162962E+02  0.00000000000E+00 0.  1.
</event>
<event>
 7    1  0.5987893E-013  0.5930196E+02  0.7816164E-02  0.1266605E+00
        -11   -1    0    0    0    0  0.00000000000E+00  0.00000000000E+00  0.45593999997E+02  0.45594000000E+02  0.51100000000E-03 0.  1.
         11   -1    0    0    0    0 -0.00000000000E+00 -0.00000000000E+00 -0.45593999997E+02  0.45594000000E+02  0.51100000000E-03 0. -1.
    9900012    2    1    2    0    0 -0.24728401945E+02 -0.13843802264E+02  0.14614205762E+02  0.59301957066E+02  0.50000023779E+02 0.  0.
        -12    1    1    2    0    0  0.24728401945E+02  0.13843802264E+02 -0.14614205762E+02  0.31886042934E+02  0.00000000000E+00 0.  1.
         11    1    3    3    0    0 -0.25875256138E+01 -0.10979897246E+02 -0.91088422395E-01  0.11281034070E+02  0.51100000000E-03 0. -1.
        -11    1    3    3    0    0  0.54959330027E+01  0.73295759879E+01  0.16107840999E+02  0.18530798839E+02  0.51100000000E-03 0.  1.
        -12    1    3    3    0    0 -0.27636809334E+02 -0.10193481006E+02 -0.14025468138E+01  0.29490124156E+02  0.00000000000E+00 0.  1.
</event>
<event>
 7    1  0.5987893E-013  0.5930213E+02  0.7816164E-02  0.1266604E+00
        -11   -1    0    0    0    0  0.00000000000E+00  0.00000000000E+00  0.45593999997E+02  0.45594000000E+02  0.51100000000E-03 0.  1.
         11   -1    0    0    0    0 -0.00000000000E+00 -0.00000000000E+00 -0.45593999997E+02  0.45594000000E+02  0.51100000000E-03 0. -1.
    9900012    2    1    2    0    0  0.30596038596E+02 -0.70468861159E+01  0.55616988854E+01  0.59302130463E+02  0.50000340011E+02 0.  0.
        -12    1    1    2    0    0 -0.30596038596E+02  0.70468861159E+01 -0.55616988854E+01  0.31885869537E+02  0.00000000000E+00 0.  1.
         11    1    3    3    0    0  0.16259340414E+02 -0.19164516002E+02  0.10348689570E+02  0.27179775576E+02  0.51100000000E-03 0. -1.
        -11    1    3    3    0    0 -0.52897093799E+01  0.83260449401E+01 -0.68758700282E+01  0.12024210518E+02  0.51100000000E-03 0.  1.
        -12    1    3    3    0    0  0.19626407561E+02  0.37915849456E+01  0.20888793432E+01  0.20098144369E+02  0.00000000000E+00 0.  1.
</event>
<event>
 7    1  0.5987893E-013  0.5930196E+02  0.7816164E-02  0.1266605E+00
        -11   -1    0    0    0    0  0.00000000000E+00  0.00000000000E+00  0.45593999997E+02  0.45594000000E+02  0.51100000000E-03 0.  1.
         11   -1    0    0    0    0 -0.00000000000E+00 -0.00000000000E+00 -0.45593999997E+02  0.45594000000E+02  0.51100000000E-03 0. -1.
    9900012    2    1    2    0    0 -0.25094486307E+02  0.12497850223E+02 -0.15191777453E+02  0.59301959083E+02  0.50000027457E+02 0.  0.
        -12    1    1    2    0    0  0.25094486307E+02 -0.12497850223E+02  0.15191777453E+02  0.31886040917E+02  0.00000000000E+00 0.  1.
         11    1    3    3    0    0 -0.47114143768E+01  0.14869127325E+01 -0.29105083668E+02  0.29521419859E+02  0.51100000000E-03 0. -1.
        -11    1    3    3    0    0 -0.13247663036E+02  0.60999883672E+01  0.15151503687E+02  0.21030418404E+02  0.51100000000E-03 0.  1.
         12    1    3    3    0    0 -0.71354088943E+01  0.49109491231E+01 -0.12381974718E+01  0.87501208196E+01  0.00000000000E+00 0. -1.
</event>
<event>
 7    1  0.5987893E-013  0.5930195E+02  0.7816164E-02  0.1266605E+00
        -11   -1    0    0    0    0  0.00000000000E+00  0.00000000000E+00  0.45593999997E+02  0.45594000000E+02  0.51100000000E-03 0.  1.
         11   -1    0    0    0    0 -0.00000000000E+00 -0.00000000000E+00 -0.45593999997E+02  0.45594000000E+02  0.51100000000E-03 0. -1.
    9900012    2    1    2    0    0 -0.13805290019E+02 -0.21599235747E+02 -0.18963307023E+02  0.59301952414E+02  0.50000015295E+02 0.  0.
        -12    1    1    2    0    0  0.13805290019E+02  0.21599235747E+02  0.18963307023E+02  0.31886047586E+02  0.00000000000E+00 0.  1.
         11    1    3    3    0    0  0.10235421355E+02 -0.17698004717E+02 -0.92595368238E+01  0.22443757344E+02  0.51100000000E-03 0. -1.
        -11    1    3    3    0    0 -0.15191162644E+02  0.84067232976E+01 -0.12564396462E+02  0.21431483331E+02  0.51100000000E-03 0.  1.
        -12    1    3    3    0    0 -0.88495487302E+01 -0.12307954327E+02  0.28606262624E+01  0.15426711739E+02  0.00000000000E+00 0.  1.
</event>
<event>
 7    1  0.5987893E-013  0.5930196E+02  0.7816164E-02  0.1266605E+00
        -11   -1    0    0    0    0  0.00000000000E+00  0.00000000000E+00  0.45593999997E+02  0.45594000000E+02  0.51100000000E-03 0.  1.
         11   -1    0    0    0    0 -0.00000000000E+00 -0.00000000000E+00 -0.45593999997E+02  0.45594000000E+02  0.51100000000E-03 0. -1.
    9900012    2    1    2    0    0 -0.15812360641E+02  0.16093818019E+02 -0.22531706717E+02  0.59301960185E+02  0.50000029468E+02 0.  0.
        -12    1    1    2    0    0  0.15812360641E+02 -0.16093818019E+02  0.22531706717E+02  0.31886039815E+02  0.00000000000E+00 0.  1.
         11    1    3    3    0    0  0.71782906190E+00 -0.43458187036E+01 -0.28782088099E+02  0.29117177308E+02  0.51100000000E-03 0. -1.
        -11    1    3    3    0    0 -0.11950597585E+02  0.42306539703E+01  0.23015288779E+01  0.12884574152E+02  0.51100000000E-03 0.  1.
         12    1    3    3    0    0 -0.45795921181E+01  0.16208982753E+02  0.39488525043E+01  0.17300208725E+02  0.00000000000E+00 0. -1.
</event>
<event>
 7    1  0.5987893E-013  0.5930194E+02  0.7816164E-02  0.1266605E+00
        -11   -1    0    0    0    0  0.00000000000E+00  0.00000000000E+00  0.45593999997E+02  0.45594000000E+02  0.51100000000E-03 0. -1.
         11   -1    0    0    0    0 -0.00000000000E+00 -0.00000000000E+00 -0.45593999997E+02  0.45594000000E+02  0.51100000000E-03 0.  1.
    9900012    2    1    2    0    0  0.27128182450E+02  0.52465195740E+00 -0.16748354949E+02  0.59301938214E+02  0.49999989397E+02 0.  0.
        -12    1    1    2    0    0 -0.27128182450E+02 -0.52465195740E+00  0.16748354949E+02  0.31886061786E+02  0.00000000000E+00 0.  1.
         11    1    3    3    0    0  0.18234804067E+01  0.10554290404E+02  0.13403244582E+02  0.17157071204E+02  0.51100000000E-03 0. -1.
        -11    1    3    3    0    0  0.20098687150E+02 -0.66613968487E+01 -0.15517032061E+02  0.26250899363E+02  0.51100000000E-03 0.  1.
         12    1    3    3    0    0  0.52060148934E+01 -0.33682415978E+01 -0.14634567469E+02  0.15893967647E+02  0.00000000000E+00 0. -1.
</event>
<event>
 7    1  0.5987893E-013  0.5930193E+02  0.7816164E-02  0.1266605E+00
        -11   -1    0    0    0    0  0.00000000000E+00  0.00000000000E+00  0.45593999997E+02  0.45594000000E+02  0.51100000000E-03 0.  1.
         11   -1    0    0    0    0 -0.00000000000E+00 -0.00000000000E+00 -0.45593999997E+02  0.45594000000E+02  0.51100000000E-03 0. -1.
    9900012    2    1    2    0    0 -0.11389702859E+02 -0.22432538815E+02 -0.19590241508E+02  0.59301926374E+02  0.49999967804E+02 0.  0.
        -12    1    1    2    0    0  0.11389702859E+02  0.22432538815E+02  0.19590241508E+02  0.31886073626E+02  0.00000000000E+00 0.  1.
         11    1    3    3    0    0  0.56538683231E+01 -0.15964621188E+01 -0.60533921026E+01  0.84355482643E+01  0.51100000000E-03 0. -1.
        -11    1    3    3    0    0 -0.11968500034E+02  0.11292574615E+02 -0.56372942884E+01  0.17393858734E+02  0.51100000000E-03 0.  1.
        -12    1    3    3    0    0 -0.50750711482E+01 -0.32128651312E+02 -0.78995551173E+01  0.33472519375E+02  0.00000000000E+00 0.  1.
</event>
<event>
 7    1  0.5987893E-013  0.5930190E+02  0.7816164E-02  0.1266605E+00
        -11   -1    0    0    0    0  0.00000000000E+00  0.00000000000E+00  0.45593999997E+02  0.45594000000E+02  0.51100000000E-03 0. -1.
         11   -1    0    0    0    0 -0.00000000000E+00 -0.00000000000E+00 -0.45593999997E+02  0.45594000000E+02  0.51100000000E-03 0.  1.
    9900012    2    1    2    0    0 -0.28154102260E+02 -0.82498653720E+01  0.12490377627E+02  0.59301901368E+02  0.49999922199E+02 0.  0.
        -12    1    1    2    0    0  0.28154102260E+02  0.82498653720E+01 -0.12490377627E+02  0.31886098632E+02  0.00000000000E+00 0.  1.
         11    1    3    3    0    0 -0.62007020478E+01 -0.39437862649E+01  0.12554649138E+02  0.14547211803E+02  0.51100000000E-03 0. -1.
        -11    1    3    3    0    0 -0.14010193184E+02  0.11603671992E+02 -0.13343991017E+02  0.22560869072E+02  0.51100000000E-03 0.  1.
        -12    1    3    3    0    0 -0.79432070279E+01 -0.15909751099E+02  0.13279719506E+02  0.22193820493E+02  0.00000000000E+00 0.  1.
</event>
<event>
 7    1  0.5987893E-013  0.5930193E+02  0.7816164E-02  0.1266605E+00
        -11   -1    0    0    0    0  0.00000000000E+00  0.00000000000E+00  0.45593999997E+02  0.45594000000E+02  0.51100000000E-03 0.  1.
         11   -1    0    0    0    0 -0.00000000000E+00 -0.00000000000E+00 -0.45593999997E+02  0.45594000000E+02  0.51100000000E-03 0. -1.
    9900012    2    1    2    0    0  0.24794763223E+00 -0.12001734854E+02 -0.29540112829E+02  0.59301931200E+02  0.49999976606E+02 0.  0.
        -12    1    1    2    0    0 -0.24794763223E+00  0.12001734854E+02  0.29540112829E+02  0.31886068800E+02  0.00000000000E+00 0.  1.
         11    1    3    3    0    0  0.22545967132E+02 -0.10661243760E+02 -0.75913328642E+01  0.26069351495E+02  0.51100000000E-03 0. -1.
        -11    1    3    3    0    0 -0.14569824665E+02  0.19666699519E+01 -0.74708861223E+01  0.16491261964E+02  0.51100000000E-03 0.  1.
         12    1    3    3    0    0 -0.77281948351E+01 -0.33071610464E+01 -0.14477893842E+02  0.16741317741E+02  0.00000000000E+00 0. -1.
</event>
<event>
 7    1  0.5987893E-013  0.5930194E+02  0.7816164E-02  0.1266605E+00
        -11   -1    0    0    0    0  0.00000000000E+00  0.00000000000E+00  0.45593999997E+02  0.45594000000E+02  0.51100000000E-03 0.  1.
         11   -1    0    0    0    0 -0.00000000000E+00 -0.00000000000E+00 -0.45593999997E+02  0.45594000000E+02  0.51100000000E-03 0. -1.
    9900012    2    1    2    0    0  0.22336343651E+01  0.71655086879E+00 -0.31799659608E+02  0.59301938487E+02  0.49999989894E+02 0.  0.
        -12    1    1    2    0    0 -0.22336343651E+01 -0.71655086879E+00  0.31799659608E+02  0.31886061513E+02  0.00000000000E+00 0.  1.
         11    1    3    3    0    0  0.17669259717E+02 -0.41394843956E-01 -0.30245858634E+02  0.35028794117E+02  0.51100000000E-03 0.  1.
        -11    1    3    3    0    0 -0.81003189635E+01 -0.26568405180E+01  0.80432623816E+01  0.11720411206E+02  0.51100000000E-03 0. -1.
         12    1    3    3    0    0 -0.73353063885E+01  0.34147862308E+01 -0.95970633557E+01  0.12552733163E+02  0.00000000000E+00 0. -1.
</event>
<event>
 7    1  0.5987893E-013  0.5930189E+02  0.7816164E-02  0.1266605E+00
        -11   -1    0    0    0    0  0.00000000000E+00  0.00000000000E+00  0.45593999997E+02  0.45594000000E+02  0.51100000000E-03 0.  1.
         11   -1    0    0    0    0 -0.00000000000E+00 -0.00000000000E+00 -0.45593999997E+02  0.45594000000E+02  0.51100000000E-03 0. -1.
    9900012    2    1    2    0    0  0.31384338729E+02 -0.36120818440E+01  0.43243818085E+01  0.59301888122E+02  0.49999898041E+02 0.  0.
        -12    1    1    2    0    0 -0.31384338729E+02  0.36120818440E+01 -0.43243818085E+01  0.31886111878E+02  0.00000000000E+00 0.  1.
         11    1    3    3    0    0  0.38344919729E+01  0.15254600894E+02 -0.10215459612E+02  0.18755313713E+02  0.51100000000E-03 0.  1.
        -11    1    3    3    0    0  0.11202385682E+02 -0.18065603180E+02  0.60105481094E+01  0.22090408599E+02  0.51100000000E-03 0. -1.
        -12    1    3    3    0    0  0.16347461074E+02 -0.80107955773E+00  0.85292933110E+01  0.18456165810E+02  0.00000000000E+00 0.  1.
</event>
<event>
 7    1  0.5987893E-013  0.5930194E+02  0.7816164E-02  0.1266605E+00
        -11   -1    0    0    0    0  0.00000000000E+00  0.00000000000E+00  0.45593999997E+02  0.45594000000E+02  0.51100000000E-03 0.  1.
         11   -1    0    0    0    0 -0.00000000000E+00 -0.00000000000E+00 -0.45593999997E+02  0.45594000000E+02  0.51100000000E-03 0. -1.
    9900012    2    1    2    0    0 -0.10765001977E+02  0.24601885331E+02 -0.17192519655E+02  0.59301940953E+02  0.49999994393E+02 0.  0.
        -12    1    1    2    0    0  0.10765001977E+02 -0.24601885331E+02  0.17192519655E+02  0.31886059047E+02  0.00000000000E+00 0.  1.
         11    1    3    3    0    0  0.28650165568E+01  0.27538815379E+02 -0.51842476968E+00  0.27692299234E+02  0.51100000000E-03 0. -1.
        -11    1    3    3    0    0 -0.11034991685E+02 -0.10068213850E+02 -0.18526015511E+02  0.23798176875E+02  0.51100000000E-03 0.  1.
         12    1    3    3    0    0 -0.25950268491E+01  0.71312838027E+01  0.18519206249E+01  0.78114648449E+01  0.00000000000E+00 0. -1.
</event>
<event>
 7    1  0.5987893E-013  0.5930190E+02  0.7816164E-02  0.1266605E+00
        -11   -1    0    0    0    0  0.00000000000E+00  0.00000000000E+00  0.45593999997E+02  0.45594000000E+02  0.51100000000E-03 0. -1.
         11   -1    0    0    0    0 -0.00000000000E+00 -0.00000000000E+00 -0.45593999997E+02  0.45594000000E+02  0.51100000000E-03 0.  1.
    9900012    2    1    2    0    0 -0.19863084738E+00  0.23516154420E+02  0.21533104051E+02  0.59301897337E+02  0.49999914848E+02 0.  0.
        -12    1    1    2    0    0  0.19863084738E+00 -0.23516154420E+02 -0.21533104051E+02  0.31886102663E+02  0.00000000000E+00 0.  1.
         11    1    3    3    0    0 -0.16201838165E+02  0.69599476932E+01  0.25015391799E+02  0.30605722650E+02  0.51100000000E-03 0. -1.
        -11    1    3    3    0    0  0.87469365338E+01 -0.13971522937E+01 -0.29094131018E+01  0.93233909130E+01  0.51100000000E-03 0.  1.
         12    1    3    3    0    0  0.72562707838E+01  0.17953359021E+02 -0.57287464602E+00  0.19372783774E+02  0.00000000000E+00 0. -1.
</event>
<event>
 7    1  0.5987893E-013  0.5930196E+02  0.7816164E-02  0.1266605E+00
        -11   -1    0    0    0    0  0.00000000000E+00  0.00000000000E+00  0.45593999997E+02  0.45594000000E+02  0.51100000000E-03 0.  1.
         11   -1    0    0    0    0 -0.00000000000E+00 -0.00000000000E+00 -0.45593999997E+02  0.45594000000E+02  0.51100000000E-03 0. -1.
    9900012    2    1    2    0    0  0.30061911283E+01  0.31245892948E+02  0.56014828359E+01  0.59301958835E+02  0.50000027004E+02 0.  0.
        -12    1    1    2    0    0 -0.30061911283E+01 -0.31245892948E+02 -0.56014828359E+01  0.31886041165E+02  0.00000000000E+00 0.  1.
         11    1    3    3    0    0 -0.63659733560E+01 -0.42349745189E+01 -0.76122633184E+01  0.10789215867E+02  0.51100000000E-03 0. -1.
        -11    1    3    3    0    0  0.92377731001E+01  0.56218218583E+01  0.15123965703E+02  0.18592355195E+02  0.51100000000E-03 0.  1.
         12    1    3    3    0    0  0.13439138420E+00  0.29859045609E+02 -0.19102195485E+01  0.29920387772E+02  0.00000000000E+00 0. -1.
</event>
<event>
 7    1  0.5987893E-013  0.5930195E+02  0.7816164E-02  0.1266605E+00
        -11   -1    0    0    0    0  0.00000000000E+00  0.00000000000E+00  0.45593999997E+02  0.45594000000E+02  0.51100000000E-03 0.  1.
         11   -1    0    0    0    0 -0.00000000000E+00 -0.00000000000E+00 -0.45593999997E+02  0.45594000000E+02  0.51100000000E-03 0. -1.
    9900012    2    1    2    0    0  0.16482876191E+02 -0.26744163139E+02  0.54575428423E+01  0.59301949078E+02  0.50000009211E+02 0.  0.
        -12    1    1    2    0    0 -0.16482876191E+02  0.26744163139E+02 -0.54575428423E+01  0.31886050922E+02  0.00000000000E+00 0.  1.
         11    1    3    3    0    0  0.15347588196E+02 -0.22645945885E+02 -0.93185815799E+01  0.28900229954E+02  0.51100000000E-03 0. -1.
        -11    1    3    3    0    0  0.23400262897E+01  0.99783372629E+01  0.12380017506E+02  0.16071956050E+02  0.51100000000E-03 0.  1.
        -12    1    3    3    0    0 -0.12047382943E+01 -0.14076554516E+02  0.23961069163E+01  0.14329763074E+02  0.00000000000E+00 0.  1.
</event>
<event>
 7    1  0.5987893E-013  0.5930193E+02  0.7816164E-02  0.1266605E+00
        -11   -1    0    0    0    0  0.00000000000E+00  0.00000000000E+00  0.45593999997E+02  0.45594000000E+02  0.51100000000E-03 0. -1.
         11   -1    0    0    0    0 -0.00000000000E+00 -0.00000000000E+00 -0.45593999997E+02  0.45594000000E+02  0.51100000000E-03 0.  1.
    9900012    2    1    2    0    0  0.11309955128E+00 -0.35183642419E+01  0.31691160592E+02  0.59301931912E+02  0.49999977904E+02 0.  0.
        -12    1    1    2    0    0 -0.11309955128E+00  0.35183642419E+01 -0.31691160592E+02  0.31886068088E+02  0.00000000000E+00 0.  1.
         11    1    3    3    0    0 -0.10281385271E+02  0.15768525801E+02  0.14411315577E+02  0.23707368179E+02  0.51100000000E-03 0. -1.
        -11    1    3    3    0    0  0.12045856445E+02 -0.12043148348E+02  0.27299009662E+00  0.17035686176E+02  0.51100000000E-03 0.  1.
         12    1    3    3    0    0 -0.16513716227E+01 -0.72437416953E+01  0.17006854918E+02  0.18558877557E+02  0.00000000000E+00 0. -1.
</event>
<event>
 7    1  0.5987893E-013  0.5930194E+02  0.7816164E-02  0.1266605E+00
        -11   -1    0    0    0    0  0.00000000000E+00  0.00000000000E+00  0.45593999997E+02  0.45594000000E+02  0.51100000000E-03 0.  1.
         11   -1    0    0    0    0 -0.00000000000E+00 -0.00000000000E+00 -0.45593999997E+02  0.45594000000E+02  0.51100000000E-03 0. -1.
    9900012    2    1    2    0    0  0.15671408909E+02  0.25283971654E+02 -0.11482533344E+02  0.59301939538E+02  0.49999991812E+02 0.  0.
        -12    1    1    2    0    0 -0.15671408909E+02 -0.25283971654E+02  0.11482533344E+02  0.31886060462E+02  0.00000000000E+00 0.  1.
         11    1    3    3    0    0 -0.14279898346E+02  0.10034941178E+02 -0.39154393167E+01  0.17887040184E+02  0.51100000000E-03 0. -1.
        -11    1    3    3    0    0  0.21661963159E+02 -0.17017433129E+01 -0.56328206162E+01  0.22446942922E+02  0.51100000000E-03 0.  1.
         12    1    3    3    0    0  0.82893440969E+01  0.16950773788E+02 -0.19342734109E+01  0.18967956432E+02  0.00000000000E+00 0. -1.
</event>
<event>
 7    1  0.5987893E-013  0.5930182E+02  0.7816164E-02  0.1266605E+00
        -11   -1    0    0    0    0  0.00000000000E+00  0.00000000000E+00  0.45593999997E+02  0.45594000000E+02  0.51100000000E-03 0.  1.
         11   -1    0    0    0    0 -0.00000000000E+00 -0.00000000000E+00 -0.45593999997E+02  0.45594000000E+02  0.51100000000E-03 0. -1.
    9900012    2    1    2    0    0 -0.25051873949E+02 -0.17722462382E+02  0.86629457273E+01  0.59301816630E+02  0.49999767656E+02 0.  0.
        -12    1    1    2    0    0  0.25051873949E+02  0.17722462382E+02 -0.86629457273E+01  0.31886183370E+02  0.00000000000E+00 0.  1.
         11    1    3    3    0    0 -0.25568749012E+02 -0.29565166407E+02 -0.22632694020E+01  0.39153318880E+02  0.51100000000E-03 0. -1.
        -11    1    3    3    0    0 -0.57282040538E+01  0.57569092499E+01  0.62930197301E+01  0.10274065572E+02  0.51100000000E-03 0.  1.
         12    1    3    3    0    0  0.62450791168E+01  0.60857947751E+01  0.46331953992E+01  0.98744321774E+01  0.00000000000E+00 0. -1.
</event>
<event>
 7    1  0.5987893E-013  0.5930194E+02  0.7816164E-02  0.1266605E+00
        -11   -1    0    0    0    0  0.00000000000E+00  0.00000000000E+00  0.45593999997E+02  0.45594000000E+02  0.51100000000E-03 0. -1.
         11   -1    0    0    0    0 -0.00000000000E+00 -0.00000000000E+00 -0.45593999997E+02  0.45594000000E+02  0.51100000000E-03 0.  1.
    9900012    2    1    2    0    0  0.11382474365E+02 -0.28136866216E+02  0.97712319696E+01  0.59301938197E+02  0.49999989366E+02 0.  0.
        -12    1    1    2    0    0 -0.11382474365E+02  0.28136866216E+02 -0.97712319696E+01  0.31886061803E+02  0.00000000000E+00 0.  1.
         11    1    3    3    0    0  0.28024143418E+02 -0.11131863064E+02  0.16454565093E+02  0.34351473073E+02  0.51100000000E-03 0. -1.
        -11    1    3    3    0    0 -0.56011480309E+01 -0.48219770347E+01 -0.36058692852E+01  0.82235403173E+01  0.51100000000E-03 0.  1.
         12    1    3    3    0    0 -0.11040521022E+02 -0.12183026117E+02 -0.30774638385E+01  0.16726924807E+02  0.00000000000E+00 0. -1.
</event>
<event>
 7    1  0.5987893E-013  0.5930197E+02  0.7816164E-02  0.1266605E+00
        -11   -1    0    0    0    0  0.00000000000E+00  0.00000000000E+00  0.45593999997E+02  0.45594000000E+02  0.51100000000E-03 0. -1.
         11   -1    0    0    0    0 -0.00000000000E+00 -0.00000000000E+00 -0.45593999997E+02  0.45594000000E+02  0.51100000000E-03 0.  1.
    9900012    2    1    2    0    0 -0.76224222660E+01 -0.39994315213E+01  0.30702146839E+02  0.59301974939E+02  0.50000056374E+02 0.  0.
        -12    1    1    2    0    0  0.76224222660E+01  0.39994315213E+01 -0.30702146839E+02  0.31886025061E+02  0.00000000000E+00 0.  1.
         11    1    3    3    0    0 -0.76683846434E+01 -0.81013499497E+01  0.34786012506E+02  0.36530845328E+02  0.51100000000E-03 0. -1.
        -11    1    3    3    0    0  0.34827685368E+01 -0.35082017525E+01 -0.10915297178E+02  0.11982523481E+02  0.51100000000E-03 0.  1.
         12    1    3    3    0    0 -0.34368061594E+01  0.76101201810E+01  0.68314315110E+01  0.10788606130E+02  0.00000000000E+00 0. -1.
</event>
<event>
 7    1  0.5987893E-013  0.5930196E+02  0.7816164E-02  0.1266605E+00
        -11   -1    0    0    0    0  0.00000000000E+00  0.00000000000E+00  0.45593999997E+02  0.45594000000E+02  0.51100000000E-03 0.  1.
         11   -1    0    0    0    0 -0.00000000000E+00 -0.00000000000E+00 -0.45593999997E+02  0.45594000000E+02  0.51100000000E-03 0. -1.
    9900012    2    1    2    0    0 -0.19384150000E+02  0.25258985473E+02  0.17199104820E+01  0.59301957436E+02  0.50000024454E+02 0.  0.
        -12    1    1    2    0    0  0.19384150000E+02 -0.25258985473E+02 -0.17199104820E+01  0.31886042564E+02  0.00000000000E+00 0.  1.
         11    1    3    3    0    0 -0.18867448209E+02  0.77935750663E+01 -0.12932310216E+02  0.24165369064E+02  0.51100000000E-03 0. -1.
        -11    1    3    3    0    0  0.14091440192E+01  0.18197871073E+02  0.21373554973E+02  0.28106530396E+02  0.51100000000E-03 0.  1.
        -12    1    3    3    0    0 -0.19258458102E+01 -0.73246066691E+00 -0.67213342750E+01  0.70300579762E+01  0.00000000000E+00 0.  1.
</event>
<event>
 7    1  0.5987893E-013  0.5930194E+02  0.7816164E-02  0.1266605E+00
        -11   -1    0    0    0    0  0.00000000000E+00  0.00000000000E+00  0.45593999997E+02  0.45594000000E+02  0.51100000000E-03 0. -1.
         11   -1    0    0    0    0 -0.00000000000E+00 -0.00000000000E+00 -0.45593999997E+02  0.45594000000E+02  0.51100000000E-03 0.  1.
    9900012    2    1    2    0    0 -0.29229446209E+02  0.68289396730E+01 -0.10757608333E+02  0.59301935963E+02  0.49999985291E+02 0.  0.
        -12    1    1    2    0    0  0.29229446209E+02 -0.68289396730E+01  0.10757608333E+02  0.31886064037E+02  0.00000000000E+00 0.  1.
         11    1    3    3    0    0  0.78390484829E+01 -0.38070412568E+01 -0.38130073544E+01  0.95122694240E+01  0.51100000000E-03 0. -1.
        -11    1    3    3    0    0 -0.42065850892E+02  0.89469970832E+01 -0.28302683234E+01  0.43099825836E+02  0.51100000000E-03 0.  1.
        -12    1    3    3    0    0  0.49973562000E+01  0.16889838467E+01 -0.41143326554E+01  0.66898407024E+01  0.00000000000E+00 0.  1.
</event>
<event>
 7    1  0.5987893E-013  0.5930194E+02  0.7816164E-02  0.1266605E+00
        -11   -1    0    0    0    0  0.00000000000E+00  0.00000000000E+00  0.45593999997E+02  0.45594000000E+02  0.51100000000E-03 0.  1.
         11   -1    0    0    0    0 -0.00000000000E+00 -0.00000000000E+00 -0.45593999997E+02  0.45594000000E+02  0.51100000000E-03 0. -1.
    9900012    2    1    2    0    0  0.15639429050E+02 -0.70446847120E+01 -0.26879390907E+02  0.59301937540E+02  0.49999988167E+02 0.  0.
        -12    1    1    2    0    0 -0.15639429050E+02  0.70446847120E+01  0.26879390907E+02  0.31886062460E+02  0.00000000000E+00 0.  1.
         11    1    3    3    0    0  0.22443695335E+02  0.97681483224E+01 -0.31704304301E+02  0.40053702618E+02  0.51100000000E-03 0. -1.
        -11    1    3    3    0    0 -0.20812367160E+00 -0.74370309606E+00  0.13178619912E+01  0.15274718481E+01  0.51100000000E-03 0.  1.
         12    1    3    3    0    0 -0.65961426139E+01 -0.16069129938E+02  0.35070514030E+01  0.17720763073E+02  0.00000000000E+00 0. -1.
</event>
<event>
 7    1  0.5987893E-013  0.5930199E+02  0.7816164E-02  0.1266605E+00
        -11   -1    0    0    0    0  0.00000000000E+00  0.00000000000E+00  0.45593999997E+02  0.45594000000E+02  0.51100000000E-03 0.  1.
         11   -1    0    0    0    0 -0.00000000000E+00 -0.00000000000E+00 -0.45593999997E+02  0.45594000000E+02  0.51100000000E-03 0. -1.
    9900012    2    1    2    0    0 -0.81855370246E+01  0.86617290022E+01 -0.29575146960E+02  0.59301986085E+02  0.50000076703E+02 0.  0.
        -12    1    1    2    0    0  0.81855370246E+01 -0.86617290022E+01  0.29575146960E+02  0.31886013915E+02  0.00000000000E+00 0.  1.
         11    1    3    3    0    0 -0.17536953209E+02 -0.63961319834E+01 -0.32255222298E+02  0.37267339561E+02  0.51100000000E-03 0. -1.
        -11    1    3    3    0    0  0.92177241146E+01  0.36811177304E+01  0.37423156183E+01  0.10607638382E+02  0.51100000000E-03 0.  1.
         12    1    3    3    0    0  0.13369206960E+00  0.11376743255E+02 -0.10622402796E+01  0.11427008142E+02  0.00000000000E+00 0. -1.
</event>
<event>
 7    1  0.5987893E-013  0.5930197E+02  0.7816164E-02  0.1266605E+00
        -11   -1    0    0    0    0  0.00000000000E+00  0.00000000000E+00  0.45593999997E+02  0.45594000000E+02  0.51100000000E-03 0.  1.
         11   -1    0    0    0    0 -0.00000000000E+00 -0.00000000000E+00 -0.45593999997E+02  0.45594000000E+02  0.51100000000E-03 0. -1.
    9900012    2    1    2    0    0  0.24563906930E+02 -0.12174599950E+02 -0.16282278347E+02  0.59301968642E+02  0.50000044890E+02 0.  0.
        -12    1    1    2    0    0 -0.24563906930E+02  0.12174599950E+02  0.16282278347E+02  0.31886031358E+02  0.00000000000E+00 0.  1.
         11    1    3    3    0    0  0.46722956487E+01  0.82766340962E+01 -0.20926623137E+01  0.97320221132E+01  0.51100000000E-03 0. -1.
        -11    1    3    3    0    0  0.20872262232E+02 -0.23405098826E+02 -0.23863916254E+02  0.39407315069E+02  0.51100000000E-03 0.  1.
        -12    1    3    3    0    0 -0.98065095139E+00  0.29538647800E+01  0.96743002202E+01  0.10162631459E+02  0.00000000000E+00 0.  1.
</event>
<event>
 7    1  0.5987893E-013  0.5930194E+02  0.7816164E-02  0.1266605E+00
        -11   -1    0    0    0    0  0.00000000000E+00  0.00000000000E+00  0.45593999997E+02  0.45594000000E+02  0.51100000000E-03 0. -1.
         11   -1    0    0    0    0 -0.00000000000E+00 -0.00000000000E+00 -0.45593999997E+02  0.45594000000E+02  0.51100000000E-03 0.  1.
    9900012    2    1    2    0    0 -0.16150056596E+02 -0.25330642004E+02  0.10689005607E+02  0.59301943592E+02  0.49999999205E+02 0.  0.
        -12    1    1    2    0    0  0.16150056596E+02  0.25330642004E+02 -0.10689005607E+02  0.31886056408E+02  0.00000000000E+00 0.  1.
         11    1    3    3    0    0 -0.20013658490E+02 -0.27406609050E+02  0.58151570737E+01  0.34430869838E+02  0.51100000000E-03 0. -1.
        -11    1    3    3    0    0  0.11175396576E+01  0.96697260427E+01 -0.59185139682E+01  0.11392159781E+02  0.51100000000E-03 0.  1.
        -12    1    3    3    0    0  0.27460622366E+01 -0.75937589968E+01  0.10792362502E+02  0.13478913972E+02  0.00000000000E+00 0.  1.
</event>
<event>
 7    1  0.5987893E-013  0.5930194E+02  0.7816164E-02  0.1266605E+00
        -11   -1    0    0    0    0  0.00000000000E+00  0.00000000000E+00  0.45593999997E+02  0.45594000000E+02  0.51100000000E-03 0.  1.
         11   -1    0    0    0    0 -0.00000000000E+00 -0.00000000000E+00 -0.45593999997E+02  0.45594000000E+02  0.51100000000E-03 0. -1.
    9900012    2    1    2    0    0 -0.97144383174E+01 -0.16868855836E+02 -0.25254545239E+02  0.59301942479E+02  0.49999997175E+02 0.  0.
        -12    1    1    2    0    0  0.97144383174E+01  0.16868855836E+02  0.25254545239E+02  0.31886057521E+02  0.00000000000E+00 0.  1.
         11    1    3    3    0    0 -0.23305909274E+02 -0.10155284080E+02 -0.56011275581E+01  0.26032053934E+02  0.51100000000E-03 0. -1.
        -11    1    3    3    0    0  0.53280617141E+01  0.79234784504E+01 -0.10256141583E+02  0.14012786761E+02  0.51100000000E-03 0.  1.
         12    1    3    3    0    0  0.82634092423E+01 -0.14637050206E+02 -0.93972760984E+01  0.19257101784E+02  0.00000000000E+00 0. -1.
</event>
<event>
 7    1  0.5987893E-013  0.5930208E+02  0.7816164E-02  0.1266604E+00
        -11   -1    0    0    0    0  0.00000000000E+00  0.00000000000E+00  0.45593999997E+02  0.45594000000E+02  0.51100000000E-03 0.  1.
         11   -1    0    0    0    0 -0.00000000000E+00 -0.00000000000E+00 -0.45593999997E+02  0.45594000000E+02  0.51100000000E-03 0. -1.
    9900012    2    1    2    0    0 -0.92075086202E+01 -0.21068656038E+02 -0.22091751846E+02  0.59302078626E+02  0.50000245475E+02 0.  0.
        -12    1    1    2    0    0  0.92075086202E+01  0.21068656038E+02  0.22091751846E+02  0.31885921374E+02  0.00000000000E+00 0.  1.
         11    1    3    3    0    0 -0.11809068344E+01 -0.88639902272E+01 -0.26028873756E+02  0.27522120793E+02  0.51100000000E-03 0. -1.
        -11    1    3    3    0    0 -0.98149838369E+01 -0.20390233047E+02  0.26280133135E+00  0.22631053361E+02  0.51100000000E-03 0.  1.
        -12    1    3    3    0    0  0.17883820511E+01  0.81855672360E+01  0.36743205788E+01  0.91489044727E+01  0.00000000000E+00 0.  1.
</event>
<event>
 7    1  0.5987893E-013  0.5930201E+02  0.7816164E-02  0.1266605E+00
        -11   -1    0    0    0    0  0.00000000000E+00  0.00000000000E+00  0.45593999997E+02  0.45594000000E+02  0.51100000000E-03 0. -1.
         11   -1    0    0    0    0 -0.00000000000E+00 -0.00000000000E+00 -0.45593999997E+02  0.45594000000E+02  0.51100000000E-03 0.  1.
    9900012    2    1    2    0    0 -0.73788031527E+01  0.11426547585E+02  0.28839277141E+02  0.59302005713E+02  0.50000112499E+02 0.  0.
        -12    1    1    2    0    0  0.73788031527E+01 -0.11426547585E+02 -0.28839277141E+02  0.31885994287E+02  0.00000000000E+00 0.  1.
         11    1    3    3    0    0 -0.41666998584E+01  0.19546021414E+01  0.26759277297E+02  0.27152178163E+02  0.51100000000E-03 0. -1.
        -11    1    3    3    0    0 -0.52358833743E+01  0.10738016786E+02 -0.12549669284E+02  0.17326675347E+02  0.51100000000E-03 0.  1.
        -12    1    3    3    0    0  0.20237800800E+01 -0.12660713421E+01  0.14629669127E+02  0.14823152203E+02  0.00000000000E+00 0.  1.
</event>
<event>
 7    1  0.5987893E-013  0.5930189E+02  0.7816164E-02  0.1266605E+00
        -11   -1    0    0    0    0  0.00000000000E+00  0.00000000000E+00  0.45593999997E+02  0.45594000000E+02  0.51100000000E-03 0.  1.
         11   -1    0    0    0    0 -0.00000000000E+00 -0.00000000000E+00 -0.45593999997E+02  0.45594000000E+02  0.51100000000E-03 0. -1.
    9900012    2    1    2    0    0 -0.24654137542E+02 -0.16412229238E+02 -0.11812549029E+02  0.59301888900E+02  0.49999899460E+02 0.  0.
        -12    1    1    2    0    0  0.24654137542E+02  0.16412229238E+02  0.11812549029E+02  0.31886111100E+02  0.00000000000E+00 0.  1.
         11    1    3    3    0    0 -0.17301923735E+02 -0.86610608237E+01 -0.29123731409E+02  0.34965157957E+02  0.51100000000E-03 0. -1.
        -11    1    3    3    0    0 -0.10588593336E+02 -0.74219054598E+01  0.10039441013E+02  0.16370502913E+02  0.51100000000E-03 0.  1.
        -12    1    3    3    0    0  0.32363795285E+01 -0.32926295446E+00  0.72717413657E+01  0.79662280306E+01  0.00000000000E+00 0.  1.
</event>
<event>
 7    1  0.5987893E-013  0.5930195E+02  0.7816164E-02  0.1266605E+00
        -11   -1    0    0    0    0  0.00000000000E+00  0.00000000000E+00  0.45593999997E+02  0.45594000000E+02  0.51100000000E-03 0. -1.
         11   -1    0    0    0    0 -0.00000000000E+00 -0.00000000000E+00 -0.45593999997E+02  0.45594000000E+02  0.51100000000E-03 0.  1.
    9900012    2    1    2    0    0 -0.29156823641E+02 -0.47279244067E+01  0.12010275941E+02  0.59301947215E+02  0.50000005813E+02 0.  0.
        -12    1    1    2    0    0  0.29156823641E+02  0.47279244067E+01 -0.12010275941E+02  0.31886052785E+02  0.00000000000E+00 0.  1.
         11    1    3    3    0    0  0.79077669026E+01  0.76490668605E+01  0.11329930433E+02  0.15792666814E+02  0.51100000000E-03 0. -1.
        -11    1    3    3    0    0 -0.44899895274E+01 -0.95831216850E+01 -0.17429776944E+01  0.10725399698E+02  0.51100000000E-03 0.  1.
         12    1    3    3    0    0 -0.32574601016E+02 -0.27938695823E+01  0.24233232020E+01  0.32783880703E+02  0.00000000000E+00 0. -1.
</event>
<event>
 7    1  0.5987893E-013  0.5930193E+02  0.7816164E-02  0.1266605E+00
        -11   -1    0    0    0    0  0.00000000000E+00  0.00000000000E+00  0.45593999997E+02  0.45594000000E+02  0.51100000000E-03 0.  1.
         11   -1    0    0    0    0 -0.00000000000E+00 -0.00000000000E+00 -0.45593999997E+02  0.45594000000E+02  0.51100000000E-03 0. -1.
    9900012    2    1    2    0    0  0.15727422398E+02 -0.11357956008E+01 -0.27714247073E+02  0.59301931917E+02  0.49999977913E+02 0.  0.
        -12    1    1    2    0    0 -0.15727422398E+02  0.11357956008E+01  0.27714247073E+02  0.31886068083E+02  0.00000000000E+00 0.  1.
         11    1    3    3    0    0  0.84242907111E+01  0.23214457945E+02 -0.15557586312E+02  0.29187638201E+02  0.51100000000E-03 0. -1.
        -11    1    3    3    0    0  0.76982763910E+01 -0.10428108983E+02 -0.25916319803E+01  0.13218376335E+02  0.51100000000E-03 0.  1.
         12    1    3    3    0    0 -0.39514470427E+00 -0.13922144562E+02 -0.95650287816E+01  0.16895917381E+02  0.00000000000E+00 0. -1.
</event>
<event>
 7    1  0.5987893E-013  0.5930198E+02  0.7816164E-02  0.1266605E+00
        -11   -1    0    0    0    0  0.00000000000E+00  0.00000000000E+00  0.45593999997E+02  0.45594000000E+02  0.51100000000E-03 0.  1.
         11   -1    0    0    0    0 -0.00000000000E+00 -0.00000000000E+00 -0.45593999997E+02  0.45594000000E+02  0.51100000000E-03 0. -1.
    9900012    2    1    2    0    0  0.11798742994E+02 -0.22008520640E+02 -0.19827579183E+02  0.59301980912E+02  0.50000067268E+02 0.  0.
        -12    1    1    2    0    0 -0.11798742994E+02  0.22008520640E+02  0.19827579183E+02  0.31886019088E+02  0.00000000000E+00 0.  1.
         11    1    3    3    0    0  0.28788160038E+02 -0.18422865148E+02 -0.17597717990E+02  0.38442681973E+02  0.51100000000E-03 0. -1.
        -11    1    3    3    0    0 -0.56731087869E+01  0.10703184822E+01  0.41013641667E+01  0.70817323622E+01  0.51100000000E-03 0.  1.
         12    1    3    3    0    0 -0.11316308257E+02 -0.46559739748E+01 -0.63312253599E+01  0.13777566577E+02  0.00000000000E+00 0. -1.
</event>
<event>
 7    1  0.5987893E-013  0.5930194E+02  0.7816164E-02  0.1266605E+00
        -11   -1    0    0    0    0  0.00000000000E+00  0.00000000000E+00  0.45593999997E+02  0.45594000000E+02  0.51100000000E-03 0.  1.
         11   -1    0    0    0    0 -0.00000000000E+00 -0.00000000000E+00 -0.45593999997E+02  0.45594000000E+02  0.51100000000E-03 0. -1.
    9900012    2    1    2    0    0 -0.37251466868E+01  0.16631490157E+02 -0.26948791353E+02  0.59301944457E+02  0.50000000783E+02 0.  0.
        -12    1    1    2    0    0  0.37251466868E+01 -0.16631490157E+02  0.26948791353E+02  0.31886055543E+02  0.00000000000E+00 0.  1.
         11    1    3    3    0    0 -0.80129839406E+01  0.13464917797E+02  0.45326611387E+01  0.16311251950E+02  0.51100000000E-03 0. -1.
        -11    1    3    3    0    0  0.44113010490E+01  0.50146712905E+01 -0.36778057196E+02  0.37379566563E+02  0.51100000000E-03 0.  1.
        -12    1    3    3    0    0 -0.12346379519E+00 -0.18480989303E+01  0.52966047044E+01  0.56111259440E+01  0.00000000000E+00 0.  1.
</event>
<event>
 7    1  0.5987893E-013  0.5930194E+02  0.7816164E-02  0.1266605E+00
        -11   -1    0    0    0    0  0.00000000000E+00  0.00000000000E+00  0.45593999997E+02  0.45594000000E+02  0.51100000000E-03 0.  1.
         11   -1    0    0    0    0 -0.00000000000E+00 -0.00000000000E+00 -0.45593999997E+02  0.45594000000E+02  0.51100000000E-03 0. -1.
    9900012    2    1    2    0    0 -0.26066897837E+02  0.11108391043E+02 -0.14623306832E+02  0.59301943217E+02  0.49999998522E+02 0.  0.
        -12    1    1    2    0    0  0.26066897837E+02 -0.11108391043E+02  0.14623306832E+02  0.31886056783E+02  0.00000000000E+00 0.  1.
         11    1    3    3    0    0 -0.43178335209E+01 -0.13054473938E+02  0.71088727920E+01  0.15478987330E+02  0.51100000000E-03 0. -1.
        -11    1    3    3    0    0 -0.12427036080E+02  0.13329481150E+02 -0.50246787013E+00  0.18230709467E+02  0.51100000000E-03 0.  1.
         12    1    3    3    0    0 -0.93220282366E+01  0.10833383832E+02 -0.21229711754E+02  0.25592246421E+02  0.00000000000E+00 0. -1.
</event>
<event>
 7    1  0.5987893E-013  0.5930196E+02  0.7816164E-02  0.1266605E+00
        -11   -1    0    0    0    0  0.00000000000E+00  0.00000000000E+00  0.45593999997E+02  0.45594000000E+02  0.51100000000E-03 0.  1.
         11   -1    0    0    0    0 -0.00000000000E+00 -0.00000000000E+00 -0.45593999997E+02  0.45594000000E+02  0.51100000000E-03 0. -1.
    9900012    2    1    2    0    0  0.23030374840E+02  0.20779399178E+02  0.73849914662E+01  0.59301957686E+02  0.50000024910E+02 0.  0.
        -12    1    1    2    0    0 -0.23030374840E+02 -0.20779399178E+02 -0.73849914662E+01  0.31886042314E+02  0.00000000000E+00 0.  1.
         11    1    3    3    0    0  0.21201261554E+02  0.13057218931E+02 -0.42887356111E+01  0.25266137637E+02  0.51100000000E-03 0. -1.
        -11    1    3    3    0    0  0.77621021654E+01 -0.17994961006E+01  0.19022837799E+02  0.20624179363E+02  0.51100000000E-03 0.  1.
        -12    1    3    3    0    0 -0.59329888788E+01  0.95216763472E+01 -0.73491107213E+01  0.13411640686E+02  0.00000000000E+00 0.  1.
</event>
<event>
 7    1  0.5987893E-013  0.5930196E+02  0.7816164E-02  0.1266605E+00
        -11   -1    0    0    0    0  0.00000000000E+00  0.00000000000E+00  0.45593999997E+02  0.45594000000E+02  0.51100000000E-03 0. -1.
         11   -1    0    0    0    0 -0.00000000000E+00 -0.00000000000E+00 -0.45593999997E+02  0.45594000000E+02  0.51100000000E-03 0.  1.
    9900012    2    1    2    0    0 -0.10293329235E+02  0.21575046662E+02  0.21101756888E+02  0.59301962163E+02  0.50000033074E+02 0.  0.
        -12    1    1    2    0    0  0.10293329235E+02 -0.21575046662E+02 -0.21101756888E+02  0.31886037837E+02  0.00000000000E+00 0.  1.
         11    1    3    3    0    0 -0.15209919329E+02  0.88483128535E+01 -0.17824045799E+01  0.17686470895E+02  0.51100000000E-03 0. -1.
        -11    1    3    3    0    0  0.12232395537E+02  0.16654189203E+02  0.25581727894E+02  0.32884925435E+02  0.51100000000E-03 0.  1.
        -12    1    3    3    0    0 -0.73158054422E+01 -0.39274553947E+01 -0.26975664261E+01  0.87305658332E+01  0.00000000000E+00 0.  1.
</event>
<event>
 7    1  0.5987893E-013  0.5930189E+02  0.7816164E-02  0.1266605E+00
        -11   -1    0    0    0    0  0.00000000000E+00  0.00000000000E+00  0.45593999997E+02  0.45594000000E+02  0.51100000000E-03 0.  1.
         11   -1    0    0    0    0 -0.00000000000E+00 -0.00000000000E+00 -0.45593999997E+02  0.45594000000E+02  0.51100000000E-03 0. -1.
    9900012    2    1    2    0    0  0.20698244293E+02 -0.20138958160E+02 -0.13517732118E+02  0.59301889635E+02  0.49999900801E+02 0.  0.
        -12    1    1    2    0    0 -0.20698244293E+02  0.20138958160E+02  0.13517732118E+02  0.31886110365E+02  0.00000000000E+00 0.  1.
         11    1    3    3    0    0  0.30664658726E+02 -0.71218346547E+01 -0.19647547952E+02  0.37108866386E+02  0.51100000000E-03 0. -1.
        -11    1    3    3    0    0  0.98468044710E+00  0.11770257325E+01  0.38205921729E+01  0.41172697229E+01  0.51100000000E-03 0.  1.
         12    1    3    3    0    0 -0.10951094879E+02 -0.14194149238E+02  0.23092236613E+01  0.18075753527E+02  0.00000000000E+00 0. -1.
</event>
<event>
 7    1  0.5987893E-013  0.5930191E+02  0.7816164E-02  0.1266605E+00
        -11   -1    0    0    0    0  0.00000000000E+00  0.00000000000E+00  0.45593999997E+02  0.45594000000E+02  0.51100000000E-03 0. -1.
         11   -1    0    0    0    0 -0.00000000000E+00 -0.00000000000E+00 -0.45593999997E+02  0.45594000000E+02  0.51100000000E-03 0.  1.
    9900012    2    1    2    0    0  0.22058772402E+02 -0.12010439674E+02  0.19643887735E+02  0.59301914847E+02  0.49999946781E+02 0.  0.
        -12    1    1    2    0    0 -0.22058772402E+02  0.12010439674E+02 -0.19643887735E+02  0.31886085153E+02  0.00000000000E+00 0.  1.
         11    1    3    3    0    0 -0.11593141060E+02 -0.65687027576E+01 -0.67723863534E+01  0.14947039598E+02  0.51100000000E-03 0.  1.
        -11    1    3    3    0    0  0.20403363040E+02  0.77363606604E+00  0.11390161577E+02  0.23380152205E+02  0.51100000000E-03 0. -1.
        -12    1    3    3    0    0  0.13248550422E+02 -0.62153729825E+01  0.15026112511E+02  0.20974723044E+02  0.00000000000E+00 0.  1.
</event>
<event>
 7    1  0.5987893E-013  0.5930196E+02  0.7816164E-02  0.1266605E+00
        -11   -1    0    0    0    0  0.00000000000E+00  0.00000000000E+00  0.45593999997E+02  0.45594000000E+02  0.51100000000E-03 0. -1.
         11   -1    0    0    0    0 -0.00000000000E+00 -0.00000000000E+00 -0.45593999997E+02  0.45594000000E+02  0.51100000000E-03 0.  1.
    9900012    2    1    2    0    0  0.40612541792E+00 -0.11729202977E+02  0.29647608048E+02  0.59301955979E+02  0.50000021797E+02 0.  0.
        -12    1    1    2    0    0 -0.40612541792E+00  0.11729202977E+02 -0.29647608048E+02  0.31886044021E+02  0.00000000000E+00 0.  1.
         11    1    3    3    0    0  0.12652484954E+01 -0.12112665294E+02  0.13947318728E+02  0.18516079883E+02  0.51100000000E-03 0. -1.
        -11    1    3    3    0    0  0.98243825954E+01 -0.37957679666E+01 -0.88052784502E+01  0.13728047082E+02  0.51100000000E-03 0.  1.
        -12    1    3    3    0    0 -0.10683505673E+02  0.41792302834E+01  0.24505567771E+02  0.27057829015E+02  0.00000000000E+00 0.  1.
</event>
<event>
 7    1  0.5987893E-013  0.5930189E+02  0.7816164E-02  0.1266605E+00
        -11   -1    0    0    0    0  0.00000000000E+00  0.00000000000E+00  0.45593999997E+02  0.45594000000E+02  0.51100000000E-03 0.  1.
         11   -1    0    0    0    0 -0.00000000000E+00 -0.00000000000E+00 -0.45593999997E+02  0.45594000000E+02  0.51100000000E-03 0. -1.
    9900012    2    1    2    0    0 -0.16881035602E+02  0.20715736727E+02 -0.17395773072E+02  0.59301889671E+02  0.49999900867E+02 0.  0.
        -12    1    1    2    0    0  0.16881035602E+02 -0.20715736727E+02  0.17395773072E+02  0.31886110329E+02  0.00000000000E+00 0.  1.
         11    1    3    3    0    0  0.62144239744E+00  0.29387060087E+01 -0.13460458969E+02  0.13791524194E+02  0.51100000000E-03 0. -1.
        -11    1    3    3    0    0 -0.20013987150E+01  0.27026324096E+02 -0.32640655224E+00  0.27102293860E+02  0.51100000000E-03 0.  1.
        -12    1    3    3    0    0 -0.15501079284E+02 -0.92492933784E+01 -0.36089075506E+01  0.18408071618E+02  0.00000000000E+00 0.  1.
</event>
<event>
 7    1  0.5987893E-013  0.5930192E+02  0.7816164E-02  0.1266605E+00
        -11   -1    0    0    0    0  0.00000000000E+00  0.00000000000E+00  0.45593999997E+02  0.45594000000E+02  0.51100000000E-03 0.  1.
         11   -1    0    0    0    0 -0.00000000000E+00 -0.00000000000E+00 -0.45593999997E+02  0.45594000000E+02  0.51100000000E-03 0. -1.
    9900012    2    1    2    0    0  0.16639260884E+02 -0.15552129041E+02 -0.22315650572E+02  0.59301921833E+02  0.49999959521E+02 0.  0.
        -12    1    1    2    0    0 -0.16639260884E+02  0.15552129041E+02  0.22315650572E+02  0.31886078167E+02  0.00000000000E+00 0.  1.
         11    1    3    3    0    0  0.63077320656E+01 -0.10671985776E+02  0.11897693100E+02  0.17182370779E+02  0.51100000000E-03 0.  1.
        -11    1    3    3    0    0  0.12713876707E+02  0.62993590876E+00 -0.33782340891E+02  0.36101053122E+02  0.51100000000E-03 0. -1.
         12    1    3    3    0    0 -0.23823478891E+01 -0.55100791730E+01 -0.43100278015E+00  0.60184979317E+01  0.00000000000E+00 0. -1.
</event>
<event>
 7    1  0.5987893E-013  0.5930197E+02  0.7816164E-02  0.1266605E+00
        -11   -1    0    0    0    0  0.00000000000E+00  0.00000000000E+00  0.45593999997E+02  0.45594000000E+02  0.51100000000E-03 0.  1.
         11   -1    0    0    0    0 -0.00000000000E+00 -0.00000000000E+00 -0.45593999997E+02  0.45594000000E+02  0.51100000000E-03 0. -1.
    9900012    2    1    2    0    0 -0.50554737241E+01  0.18602353245E+02 -0.25399085586E+02  0.59301969996E+02  0.50000047359E+02 0.  0.
        -12    1    1    2    0    0  0.50554737241E+01 -0.18602353245E+02  0.25399085586E+02  0.31886030004E+02  0.00000000000E+00 0.  1.
         11    1    3    3    0    0  0.12690992977E+02  0.45117866576E+01  0.64858206680E+01  0.14949360909E+02  0.51100000000E-03 0. -1.
        -11    1    3    3    0    0 -0.33308556437E+01  0.10676181511E+02 -0.25225374104E+01  0.11464669477E+02  0.51100000000E-03 0.  1.
         12    1    3    3    0    0 -0.14415611058E+02  0.34143850763E+01 -0.29362368844E+02  0.32887939609E+02  0.00000000000E+00 0. -1.
</event>
<event>
 7    1  0.5987893E-013  0.5930193E+02  0.7816164E-02  0.1266605E+00
        -11   -1    0    0    0    0  0.00000000000E+00  0.00000000000E+00  0.45593999997E+02  0.45594000000E+02  0.51100000000E-03 0. -1.
         11   -1    0    0    0    0 -0.00000000000E+00 -0.00000000000E+00 -0.45593999997E+02  0.45594000000E+02  0.51100000000E-03 0.  1.
    9900012    2    1    2    0    0 -0.18492441656E+02  0.17299260128E+02  0.19377477197E+02  0.59301930599E+02  0.49999975509E+02 0.  0.
        -12    1    1    2    0    0  0.18492441656E+02 -0.17299260128E+02 -0.19377477197E+02  0.31886069401E+02  0.00000000000E+00 0.  1.
         11    1    3    3    0    0 -0.99010764709E+01  0.22622075405E+02  0.33497978526E+02  0.41616152831E+02  0.51100000000E-03 0. -1.
        -11    1    3    3    0    0 -0.33537049903E+01 -0.27571962994E+01 -0.87018380652E+01  0.97247855796E+01  0.51100000000E-03 0.  1.
         12    1    3    3    0    0 -0.52376601944E+01 -0.25656189771E+01 -0.54186632640E+01  0.79609921879E+01  0.00000000000E+00 0. -1.
</event>
<event>
 7    1  0.5987893E-013  0.5930192E+02  0.7816164E-02  0.1266605E+00
        -11   -1    0    0    0    0  0.00000000000E+00  0.00000000000E+00  0.45593999997E+02  0.45594000000E+02  0.51100000000E-03 0.  1.
         11   -1    0    0    0    0 -0.00000000000E+00 -0.00000000000E+00 -0.45593999997E+02  0.45594000000E+02  0.51100000000E-03 0. -1.
    9900012    2    1    2    0    0  0.13325781327E+02 -0.25914522308E+02 -0.12945380373E+02  0.59301924866E+02  0.49999965054E+02 0.  0.
        -12    1    1    2    0    0 -0.13325781327E+02  0.25914522308E+02  0.12945380373E+02  0.31886075134E+02  0.00000000000E+00 0.  1.
         11    1    3    3    0    0  0.12323192558E+02 -0.23713241324E+02 -0.30171688117E+02  0.40305206276E+02  0.51100000000E-03 0. -1.
        -11    1    3    3    0    0  0.19005424123E+01 -0.39432545327E+01  0.51347450514E+01  0.67473642835E+01  0.51100000000E-03 0.  1.
         12    1    3    3    0    0 -0.89795364290E+00  0.17419735483E+01  0.12091562692E+02  0.12249354306E+02  0.00000000000E+00 0. -1.
</event>
<event>
 7    1  0.5987893E-013  0.5930195E+02  0.7816164E-02  0.1266605E+00
        -11   -1    0    0    0    0  0.00000000000E+00  0.00000000000E+00  0.45593999997E+02  0.45594000000E+02  0.51100000000E-03 0.  1.
         11   -1    0    0    0    0 -0.00000000000E+00 -0.00000000000E+00 -0.45593999997E+02  0.45594000000E+02  0.51100000000E-03 0. -1.
    9900012    2    1    2    0    0  0.19062193156E+02 -0.17583637925E+02 -0.18551790511E+02  0.59301945655E+02  0.50000002967E+02 0.  0.
        -12    1    1    2    0    0 -0.19062193156E+02  0.17583637925E+02  0.18551790511E+02  0.31886054345E+02  0.00000000000E+00 0.  1.
         11    1    3    3    0    0 -0.13406684772E+02  0.57296044360E+01 -0.45160477549E+01  0.15263100968E+02  0.51100000000E-03 0. -1.
        -11    1    3    3    0    0  0.41416375253E+01  0.11648799650E+01 -0.15731008361E+01  0.45809118334E+01  0.51100000000E-03 0.  1.
         12    1    3    3    0    0  0.28327240403E+02 -0.24478122326E+02 -0.12462641920E+02  0.39457932853E+02  0.00000000000E+00 0. -1.
</event>
<event>
 7    1  0.5987893E-013  0.5930194E+02  0.7816164E-02  0.1266605E+00
        -11   -1    0    0    0    0  0.00000000000E+00  0.00000000000E+00  0.45593999997E+02  0.45594000000E+02  0.51100000000E-03 0.  1.
         11   -1    0    0    0    0 -0.00000000000E+00 -0.00000000000E+00 -0.45593999997E+02  0.45594000000E+02  0.51100000000E-03 0. -1.
    9900012    2    1    2    0    0  0.64376875685E+01  0.27799932019E+00 -0.31228185447E+02  0.59301942370E+02  0.49999996977E+02 0.  0.
        -12    1    1    2    0    0 -0.64376875685E+01 -0.27799932019E+00  0.31228185447E+02  0.31886057630E+02  0.00000000000E+00 0.  1.
         11    1    3    3    0    0  0.86301938472E+01  0.12100062348E+01 -0.32293285345E+02  0.33448477388E+02  0.51100000000E-03 0. -1.
        -11    1    3    3    0    0  0.66143511701E+01  0.65249073294E+01  0.81104212910E+01  0.12333004129E+02  0.51100000000E-03 0.  1.
         12    1    3    3    0    0 -0.88068574488E+01 -0.74569142440E+01 -0.70453213934E+01  0.13520460854E+02  0.00000000000E+00 0. -1.
</event>
<event>
 7    1  0.5987893E-013  0.5930195E+02  0.7816164E-02  0.1266605E+00
        -11   -1    0    0    0    0  0.00000000000E+00  0.00000000000E+00  0.45593999997E+02  0.45594000000E+02  0.51100000000E-03 0. -1.
         11   -1    0    0    0    0 -0.00000000000E+00 -0.00000000000E+00 -0.45593999997E+02  0.45594000000E+02  0.51100000000E-03 0.  1.
    9900012    2    1    2    0    0 -0.11507016050E+02  0.14402441915E+02  0.26016890911E+02  0.59301947184E+02  0.50000005757E+02 0.  0.
        -12    1    1    2    0    0  0.11507016050E+02 -0.14402441915E+02 -0.26016890911E+02  0.31886052816E+02  0.00000000000E+00 0.  1.
         11    1    3    3    0    0 -0.21005338193E+02 -0.53389815412E+01  0.18481051917E+02  0.28482946419E+02  0.51100000000E-03 0.  1.
        -11    1    3    3    0    0  0.12913074691E+02  0.17857157465E+02 -0.32995277602E+00  0.22039383834E+02  0.51100000000E-03 0. -1.
         12    1    3    3    0    0 -0.34147525473E+01  0.18842659917E+01  0.78657917701E+01  0.87796169312E+01  0.00000000000E+00 0. -1.
</event>
<event>
 7    1  0.5987893E-013  0.5930197E+02  0.7816164E-02  0.1266605E+00
        -11   -1    0    0    0    0  0.00000000000E+00  0.00000000000E+00  0.45593999997E+02  0.45594000000E+02  0.51100000000E-03 0. -1.
         11   -1    0    0    0    0 -0.00000000000E+00 -0.00000000000E+00 -0.45593999997E+02  0.45594000000E+02  0.51100000000E-03 0.  1.
    9900012    2    1    2    0    0  0.21054023759E+02  0.21940350077E+02  0.95952171238E+01  0.59301967485E+02  0.50000042780E+02 0.  0.
        -12    1    1    2    0    0 -0.21054023759E+02 -0.21940350077E+02 -0.95952171238E+01  0.31886032515E+02  0.00000000000E+00 0.  1.
         11    1    3    3    0    0  0.51351803143E+01  0.14965375952E+02 -0.15198524995E+02  0.21939182221E+02  0.51100000000E-03 0. -1.
        -11    1    3    3    0    0  0.11218838959E+02  0.12758521109E+02  0.24614115447E+02  0.29908140831E+02  0.51100000000E-03 0.  1.
        -12    1    3    3    0    0  0.47000044853E+01 -0.57835469840E+01  0.17962667219E+00  0.74546444328E+01  0.00000000000E+00 0.  1.
</event>
<event>
 7    1  0.5987893E-013  0.5930195E+02  0.7816164E-02  0.1266605E+00
        -11   -1    0    0    0    0  0.00000000000E+00  0.00000000000E+00  0.45593999997E+02  0.45594000000E+02  0.51100000000E-03 0. -1.
         11   -1    0    0    0    0 -0.00000000000E+00 -0.00000000000E+00 -0.45593999997E+02  0.45594000000E+02  0.51100000000E-03 0.  1.
    9900012    2    1    2    0    0 -0.10463845306E+02 -0.30060232301E+02 -0.19001682126E+01  0.59301948758E+02  0.50000008626E+02 0.  0.
        -12    1    1    2    0    0  0.10463845306E+02  0.30060232301E+02  0.19001682126E+01  0.31886051242E+02  0.00000000000E+00 0.  1.
         11    1    3    3    0    0  0.12137810293E+02 -0.21718384773E+02  0.13063049956E+02  0.28100853195E+02  0.51100000000E-03 0. -1.
        -11    1    3    3    0    0 -0.90853952054E+01  0.28926558667E+01 -0.32221777466E+01  0.10064506629E+02  0.51100000000E-03 0.  1.
         12    1    3    3    0    0 -0.13516260394E+02 -0.11234503395E+02 -0.11741040422E+02  0.21136588933E+02  0.00000000000E+00 0. -1.
</event>
<event>
 7    1  0.5987893E-013  0.5930187E+02  0.7816164E-02  0.1266605E+00
        -11   -1    0    0    0    0  0.00000000000E+00  0.00000000000E+00  0.45593999997E+02  0.45594000000E+02  0.51100000000E-03 0. -1.
         11   -1    0    0    0    0 -0.00000000000E+00 -0.00000000000E+00 -0.45593999997E+02  0.45594000000E+02  0.51100000000E-03 0.  1.
    9900012    2    1    2    0    0 -0.20625262579E+02  0.85228678832E+01  0.22774640239E+02  0.59301874939E+02  0.49999873998E+02 0.  0.
        -12    1    1    2    0    0  0.20625262579E+02 -0.85228678832E+01 -0.22774640239E+02  0.31886125061E+02  0.00000000000E+00 0.  1.
         11    1    3    3    0    0 -0.14486632023E+02  0.26397065992E+02  0.16037653242E+02  0.34115596465E+02  0.51100000000E-03 0. -1.
        -11    1    3    3    0    0 -0.10288788041E+02 -0.11699037516E+02  0.81965721800E+01  0.17604273172E+02  0.51100000000E-03 0.  1.
         12    1    3    3    0    0  0.41501574844E+01 -0.61751605929E+01 -0.14595851836E+01  0.75820053021E+01  0.00000000000E+00 0. -1.
</event>
<event>
 7    1  0.5987893E-013  0.5930197E+02  0.7816164E-02  0.1266605E+00
        -11   -1    0    0    0    0  0.00000000000E+00  0.00000000000E+00  0.45593999997E+02  0.45594000000E+02  0.51100000000E-03 0. -1.
         11   -1    0    0    0    0 -0.00000000000E+00 -0.00000000000E+00 -0.45593999997E+02  0.45594000000E+02  0.51100000000E-03 0.  1.
    9900012    2    1    2    0    0 -0.21983484467E+02  0.23091368333E+02 -0.48357229461E+00  0.59301972920E+02  0.50000052692E+02 0.  0.
        -12    1    1    2    0    0  0.21983484467E+02 -0.23091368333E+02  0.48357229461E+00  0.31886027080E+02  0.00000000000E+00 0.  1.
         11    1    3    3    0    0 -0.22934568285E+02  0.97728322668E+01  0.18158964488E+02  0.30842351799E+02  0.51100000000E-03 0. -1.
        -11    1    3    3    0    0  0.59788151647E+01  0.98835236174E+01 -0.33928143946E+01  0.12039163578E+02  0.51100000000E-03 0.  1.
         12    1    3    3    0    0 -0.50277313466E+01  0.34350124487E+01 -0.15249722388E+02  0.16420457544E+02  0.00000000000E+00 0. -1.
</event>
<event>
 7    1  0.5987893E-013  0.5930194E+02  0.7816164E-02  0.1266605E+00
        -11   -1    0    0    0    0  0.00000000000E+00  0.00000000000E+00  0.45593999997E+02  0.45594000000E+02  0.51100000000E-03 0. -1.
         11   -1    0    0    0    0 -0.00000000000E+00 -0.00000000000E+00 -0.45593999997E+02  0.45594000000E+02  0.51100000000E-03 0.  1.
    9900012    2    1    2    0    0  0.12211120226E+02 -0.29351910090E+02  0.24647021601E+01  0.59301939725E+02  0.49999992154E+02 0.  0.
        -12    1    1    2    0    0 -0.12211120226E+02  0.29351910090E+02 -0.24647021601E+01  0.31886060275E+02  0.00000000000E+00 0.  1.
         11    1    3    3    0    0 -0.13586268039E+02 -0.14368424241E+02  0.60797287234E+01  0.20688194605E+02  0.51100000000E-03 0. -1.
        -11    1    3    3    0    0  0.83718924709E+01  0.65663525152E+01 -0.21945047419E+01  0.10863766392E+02  0.51100000000E-03 0.  1.
         12    1    3    3    0    0  0.17425495794E+02 -0.21549838365E+02 -0.14205218214E+01  0.27749978729E+02  0.00000000000E+00 0. -1.
</event>
<event>
 7    1  0.5987893E-013  0.5930193E+02  0.7816164E-02  0.1266605E+00
        -11   -1    0    0    0    0  0.00000000000E+00  0.00000000000E+00  0.45593999997E+02  0.45594000000E+02  0.51100000000E-03 0. -1.
         11   -1    0    0    0    0 -0.00000000000E+00 -0.00000000000E+00 -0.45593999997E+02  0.45594000000E+02  0.51100000000E-03 0.  1.
    9900012    2    1    2    0    0  0.19880681177E+02 -0.51977325897E+01  0.24381619244E+02  0.59301933057E+02  0.49999979992E+02 0.  0.
        -12    1    1    2    0    0 -0.19880681177E+02  0.51977325897E+01 -0.24381619244E+02  0.31886066943E+02  0.00000000000E+00 0.  1.
         11    1    3    3    0    0  0.29284432432E+02 -0.11441102079E+02  0.99982115472E+01  0.32991529732E+02  0.51100000000E-03 0. -1.
        -11    1    3    3    0    0 -0.65993455759E+01  0.12313621451E+02  0.13736302571E+02  0.19592412916E+02  0.51100000000E-03 0.  1.
        -12    1    3    3    0    0 -0.28044056792E+01 -0.60702519621E+01  0.64710512524E+00  0.67179904093E+01  0.00000000000E+00 0.  1.
</event>
<event>
 7    1  0.5987893E-013  0.5930196E+02  0.7816164E-02  0.1266605E+00
        -11   -1    0    0    0    0  0.00000000000E+00  0.00000000000E+00  0.45593999997E+02  0.45594000000E+02  0.51100000000E-03 0.  1.
         11   -1    0    0    0    0 -0.00000000000E+00 -0.00000000000E+00 -0.45593999997E+02  0.45594000000E+02  0.51100000000E-03 0. -1.
    9900012    2    1    2    0    0  0.14079404606E+02 -0.15260111692E+02 -0.24199569871E+02  0.59301955642E+02  0.50000021181E+02 0.  0.
        -12    1    1    2    0    0 -0.14079404606E+02  0.15260111692E+02  0.24199569871E+02  0.31886044358E+02  0.00000000000E+00 0.  1.
         11    1    3    3    0    0 -0.54982130808E+01  0.12977852361E+02 -0.45134646510E+01  0.14799539263E+02  0.51100000000E-03 0. -1.
        -11    1    3    3    0    0  0.13232364176E+02 -0.15488087658E+02 -0.20650783779E+00  0.20372014303E+02  0.51100000000E-03 0.  1.
        -12    1    3    3    0    0  0.63452535103E+01 -0.12749876394E+02 -0.19479597382E+02  0.24130402076E+02  0.00000000000E+00 0.  1.
</event>
<event>
 7    1  0.5987893E-013  0.5930190E+02  0.7816164E-02  0.1266605E+00
        -11   -1    0    0    0    0  0.00000000000E+00  0.00000000000E+00  0.45593999997E+02  0.45594000000E+02  0.51100000000E-03 0. -1.
         11   -1    0    0    0    0 -0.00000000000E+00 -0.00000000000E+00 -0.45593999997E+02  0.45594000000E+02  0.51100000000E-03 0.  1.
    9900012    2    1    2    0    0 -0.31109224703E+02 -0.69710200490E+01  0.58684308275E+00  0.59301900098E+02  0.49999919883E+02 0.  0.
        -12    1    1    2    0    0  0.31109224703E+02  0.69710200490E+01 -0.58684308275E+00  0.31886099902E+02  0.00000000000E+00 0.  1.
         11    1    3    3    0    0 -0.11598171470E+02  0.13864354544E+01  0.14030806797E+02  0.18256596736E+02  0.51100000000E-03 0. -1.
        -11    1    3    3    0    0 -0.28284799430E+02 -0.37885315102E+01 -0.12342302461E+02  0.31092045287E+02  0.51100000000E-03 0.  1.
        -12    1    3    3    0    0  0.87737461978E+01 -0.45689239931E+01 -0.11016612539E+01  0.99532580754E+01  0.00000000000E+00 0.  1.
</event>
<event>
 7    1  0.5987893E-013  0.5930194E+02  0.7816164E-02  0.1266605E+00
        -11   -1    0    0    0    0  0.00000000000E+00  0.00000000000E+00  0.45593999997E+02  0.45594000000E+02  0.51100000000E-03 0. -1.
         11   -1    0    0    0    0 -0.00000000000E+00 -0.00000000000E+00 -0.45593999997E+02  0.45594000000E+02  0.51100000000E-03 0.  1.
    9900012    2    1    2    0    0 -0.29681183993E+02  0.10850109519E+02  0.42453786398E+01  0.59301940357E+02  0.49999993305E+02 0.  0.
        -12    1    1    2    0    0  0.29681183993E+02 -0.10850109519E+02 -0.42453786398E+01  0.31886059643E+02  0.00000000000E+00 0.  1.
         11    1    3    3    0    0 -0.40763990583E+01  0.88999383822E+01  0.22795531132E+02  0.24808510079E+02  0.51100000000E-03 0. -1.
        -11    1    3    3    0    0 -0.97504820331E+01 -0.54270011334E+01 -0.10188061770E+02  0.15110289345E+02  0.51100000000E-03 0.  1.
         12    1    3    3    0    0 -0.15854302901E+02  0.73771722707E+01 -0.83620907217E+01  0.19383140933E+02  0.00000000000E+00 0. -1.
</event>
<event>
 7    1  0.5987893E-013  0.5930193E+02  0.7816164E-02  0.1266605E+00
        -11   -1    0    0    0    0  0.00000000000E+00  0.00000000000E+00  0.45593999997E+02  0.45594000000E+02  0.51100000000E-03 0. -1.
         11   -1    0    0    0    0 -0.00000000000E+00 -0.00000000000E+00 -0.45593999997E+02  0.45594000000E+02  0.51100000000E-03 0.  1.
    9900012    2    1    2    0    0 -0.30224307025E+01 -0.24325698351E+02 -0.20392318269E+02  0.59301932008E+02  0.49999978079E+02 0.  0.
        -12    1    1    2    0    0  0.30224307025E+01  0.24325698351E+02  0.20392318269E+02  0.31886067992E+02  0.00000000000E+00 0.  1.
         11    1    3    3    0    0  0.21615755370E+02 -0.13866372758E+02 -0.13104093078E+02  0.28831136456E+02  0.51100000000E-03 0. -1.
        -11    1    3    3    0    0 -0.11931839402E+02 -0.10927725594E+02 -0.73132913795E+01  0.17755793681E+02  0.51100000000E-03 0.  1.
         12    1    3    3    0    0 -0.12706346670E+02  0.46840000148E+00  0.25066188873E-01  0.12715001871E+02  0.00000000000E+00 0. -1.
</event>
<event>
 7    1  0.5987893E-013  0.5930195E+02  0.7816164E-02  0.1266605E+00
        -11   -1    0    0    0    0  0.00000000000E+00  0.00000000000E+00  0.45593999997E+02  0.45594000000E+02  0.51100000000E-03 0. -1.
         11   -1    0    0    0    0 -0.00000000000E+00 -0.00000000000E+00 -0.45593999997E+02  0.45594000000E+02  0.51100000000E-03 0.  1.
    9900012    2    1    2    0    0 -0.56902013083E+01 -0.20557450233E+02  0.23700911585E+02  0.59301947234E+02  0.50000005848E+02 0.  0.
        -12    1    1    2    0    0  0.56902013083E+01  0.20557450233E+02 -0.23700911585E+02  0.31886052766E+02  0.00000000000E+00 0.  1.
         11    1    3    3    0    0 -0.37757822000E+01  0.50878932803E+01  0.50018181278E+01  0.80722595411E+01  0.51100000000E-03 0. -1.
        -11    1    3    3    0    0 -0.12071050224E+02 -0.21610632293E+02  0.27644162887E+02  0.37106999658E+02  0.51100000000E-03 0.  1.
         12    1    3    3    0    0  0.10156631115E+02 -0.40347112203E+01 -0.89450694296E+01  0.14122688035E+02  0.00000000000E+00 0. -1.
</event>
<event>
 7    1  0.5987893E-013  0.5930197E+02  0.7816164E-02  0.1266605E+00
        -11   -1    0    0    0    0  0.00000000000E+00  0.00000000000E+00  0.45593999997E+02  0.45594000000E+02  0.51100000000E-03 0. -1.
         11   -1    0    0    0    0 -0.00000000000E+00 -0.00000000000E+00 -0.45593999997E+02  0.45594000000E+02  0.51100000000E-03 0.  1.
    9900012    2    1    2    0    0 -0.33544143521E+01 -0.91866588646E+01  0.30349172921E+02  0.59301967106E+02  0.50000042088E+02 0.  0.
        -12    1    1    2    0    0  0.33544143521E+01  0.91866588646E+01 -0.30349172921E+02  0.31886032894E+02  0.00000000000E+00 0.  1.
         11    1    3    3    0    0 -0.87518739452E+01 -0.91661780375E+01  0.20392805949E+02  0.24010011498E+02  0.51100000000E-03 0. -1.
        -11    1    3    3    0    0  0.10891554989E+02 -0.14398269314E+02  0.26256514932E+01  0.18243633831E+02  0.51100000000E-03 0.  1.
        -12    1    3    3    0    0 -0.54940953961E+01  0.14377788487E+02  0.73307154788E+01  0.17048321777E+02  0.00000000000E+00 0.  1.
</event>
<event>
 7    1  0.5987893E-013  0.5930195E+02  0.7816164E-02  0.1266605E+00
        -11   -1    0    0    0    0  0.00000000000E+00  0.00000000000E+00  0.45593999997E+02  0.45594000000E+02  0.51100000000E-03 0. -1.
         11   -1    0    0    0    0 -0.00000000000E+00 -0.00000000000E+00 -0.45593999997E+02  0.45594000000E+02  0.51100000000E-03 0.  1.
    9900012    2    1    2    0    0  0.29920552225E+02  0.25406019613E+01  0.10725023435E+02  0.59301949265E+02  0.50000009552E+02 0.  0.
        -12    1    1    2    0    0 -0.29920552225E+02 -0.25406019613E+01 -0.10725023435E+02  0.31886050735E+02  0.00000000000E+00 0.  1.
         11    1    3    3    0    0  0.29221286574E+02  0.10909880946E+02 -0.77839679151E+01  0.32148083117E+02  0.51100000000E-03 0. -1.
        -11    1    3    3    0    0 -0.55499457833E+01 -0.67338225283E+01  0.13637405688E+01  0.88321035230E+01  0.51100000000E-03 0.  1.
         12    1    3    3    0    0  0.62492114345E+01 -0.16354564568E+01  0.17145250781E+02  0.18321762626E+02  0.00000000000E+00 0. -1.
</event>
<event>
 7    1  0.5987893E-013  0.5930194E+02  0.7816164E-02  0.1266605E+00
        -11   -1    0    0    0    0  0.00000000000E+00  0.00000000000E+00  0.45593999997E+02  0.45594000000E+02  0.51100000000E-03 0.  1.
         11   -1    0    0    0    0 -0.00000000000E+00 -0.00000000000E+00 -0.45593999997E+02  0.45594000000E+02  0.51100000000E-03 0. -1.
    9900012    2    1    2    0    0 -0.15479607056E+02  0.27441451084E+02 -0.49060603431E+01  0.59301938778E+02  0.49999990425E+02 0.  0.
        -12    1    1    2    0    0  0.15479607056E+02 -0.27441451084E+02  0.49060603431E+01  0.31886061222E+02  0.00000000000E+00 0.  1.
         11    1    3    3    0    0  0.98701431211E+01  0.20069441341E+02 -0.59341647425E+01  0.23139068962E+02  0.51100000000E-03 0. -1.
        -11    1    3    3    0    0 -0.28382911845E+01 -0.31805843634E+01 -0.85227556521E+01  0.95293954638E+01  0.51100000000E-03 0.  1.
         12    1    3    3    0    0 -0.22511458992E+02  0.10552594106E+02  0.95508600514E+01  0.26633474352E+02  0.00000000000E+00 0. -1.
</event>
<event>
 7    1  0.5987893E-013  0.5930202E+02  0.7816164E-02  0.1266604E+00
        -11   -1    0    0    0    0  0.00000000000E+00  0.00000000000E+00  0.45593999997E+02  0.45594000000E+02  0.51100000000E-03 0.  1.
         11   -1    0    0    0    0 -0.00000000000E+00 -0.00000000000E+00 -0.45593999997E+02  0.45594000000E+02  0.51100000000E-03 0. -1.
    9900012    2    1    2    0    0  0.40800684975E+01 -0.30331331242E+02 -0.89486789145E+01  0.59302023958E+02  0.50000145773E+02 0.  0.
        -12    1    1    2    0    0 -0.40800684975E+01  0.30331331242E+02  0.89486789145E+01  0.31885976042E+02  0.00000000000E+00 0.  1.
         11    1    3    3    0    0  0.14839463405E+02 -0.11110633325E+02 -0.25136999235E+02  0.31233388831E+02  0.51100000000E-03 0. -1.
        -11    1    3    3    0    0 -0.57198125495E+01 -0.10702385452E+02  0.12722862184E+02  0.17582051427E+02  0.51100000000E-03 0.  1.
        -12    1    3    3    0    0 -0.50395823580E+01 -0.85183124650E+01  0.34654581368E+01  0.10486583700E+02  0.00000000000E+00 0.  1.
</event>
<event>
 7    1  0.5987893E-013  0.5930194E+02  0.7816164E-02  0.1266605E+00
        -11   -1    0    0    0    0  0.00000000000E+00  0.00000000000E+00  0.45593999997E+02  0.45594000000E+02  0.51100000000E-03 0.  1.
         11   -1    0    0    0    0 -0.00000000000E+00 -0.00000000000E+00 -0.45593999997E+02  0.45594000000E+02  0.51100000000E-03 0. -1.
    9900012    2    1    2    0    0  0.30119697890E+02  0.65630266666E+01 -0.81517616151E+01  0.59301941331E+02  0.49999995082E+02 0.  0.
        -12    1    1    2    0    0 -0.30119697890E+02 -0.65630266666E+01  0.81517616151E+01  0.31886058669E+02  0.00000000000E+00 0.  1.
         11    1    3    3    0    0 -0.58243445573E+01 -0.91370879574E+01  0.40997163321E+01  0.11585207815E+02  0.51100000000E-03 0.  1.
        -11    1    3    3    0    0  0.21498311331E+02  0.16289693917E+02 -0.17705128738E+02  0.32264579679E+02  0.51100000000E-03 0. -1.
        -12    1    3    3    0    0  0.14445731116E+02 -0.58957929282E+00  0.54536507912E+01  0.15452153836E+02  0.00000000000E+00 0.  1.
</event>
<event>
 7    1  0.5987893E-013  0.5930196E+02  0.7816164E-02  0.1266605E+00
        -11   -1    0    0    0    0  0.00000000000E+00  0.00000000000E+00  0.45593999997E+02  0.45594000000E+02  0.51100000000E-03 0. -1.
         11   -1    0    0    0    0 -0.00000000000E+00 -0.00000000000E+00 -0.45593999997E+02  0.45594000000E+02  0.51100000000E-03 0.  1.
    9900012    2    1    2    0    0 -0.13639975549E+02  0.27542510634E+02 -0.84900373640E+01  0.59301959803E+02  0.50000028771E+02 0.  0.
        -12    1    1    2    0    0  0.13639975549E+02 -0.27542510634E+02  0.84900373640E+01  0.31886040197E+02  0.00000000000E+00 0.  1.
         11    1    3    3    0    0 -0.12079551613E+02 -0.29207245883E+01  0.18000421020E+01  0.12557322610E+02  0.51100000000E-03 0. -1.
        -11    1    3    3    0    0  0.98511713399E+01  0.31846367070E+02 -0.38190067629E+01  0.33553263407E+02  0.51100000000E-03 0.  1.
        -12    1    3    3    0    0 -0.11411595275E+02 -0.13831318481E+01 -0.64710727031E+01  0.13191373786E+02  0.00000000000E+00 0.  1.
</event>
<event>
 7    1  0.5987893E-013  0.5930194E+02  0.7816164E-02  0.1266605E+00
        -11   -1    0    0    0    0  0.00000000000E+00  0.00000000000E+00  0.45593999997E+02  0.45594000000E+02  0.51100000000E-03 0. -1.
         11   -1    0    0    0    0 -0.00000000000E+00 -0.00000000000E+00 -0.45593999997E+02  0.45594000000E+02  0.51100000000E-03 0.  1.
    9900012    2    1    2    0    0 -0.12556548398E+02 -0.85168923927E+01  0.28044898117E+02  0.59301942324E+02  0.49999996893E+02 0.  0.
        -12    1    1    2    0    0  0.12556548398E+02  0.85168923927E+01 -0.28044898117E+02  0.31886057676E+02  0.00000000000E+00 0.  1.
         11    1    3    3    0    0  0.17269846328E+02 -0.11743266938E+00  0.21024483070E+02  0.27208275786E+02  0.51100000000E-03 0. -1.
        -11    1    3    3    0    0 -0.20240571159E+02 -0.38634428411E+01  0.58747882426E+01  0.21427086797E+02  0.51100000000E-03 0.  1.
         12    1    3    3    0    0 -0.95858235666E+01 -0.45360168822E+01  0.11456268051E+01  0.10666579742E+02  0.00000000000E+00 0. -1.
</event>
<event>
 7    1  0.5987893E-013  0.5930187E+02  0.7816164E-02  0.1266605E+00
        -11   -1    0    0    0    0  0.00000000000E+00  0.00000000000E+00  0.45593999997E+02  0.45594000000E+02  0.51100000000E-03 0. -1.
         11   -1    0    0    0    0 -0.00000000000E+00 -0.00000000000E+00 -0.45593999997E+02  0.45594000000E+02  0.51100000000E-03 0.  1.
    9900012    2    1    2    0    0  0.11132580871E+01  0.31805015351E+02 -0.19817078610E+01  0.59301866477E+02  0.49999858565E+02 0.  0.
        -12    1    1    2    0    0 -0.11132580871E+01 -0.31805015351E+02  0.19817078610E+01  0.31886133523E+02  0.00000000000E+00 0.  1.
         11    1    3    3    0    0  0.22930097828E+01  0.22060009044E+02  0.19314249003E+02  0.29409898124E+02  0.51100000000E-03 0. -1.
        -11    1    3    3    0    0  0.42029363880E+01  0.12937754550E+02 -0.96750609588E+01  0.16693021652E+02  0.51100000000E-03 0.  1.
         12    1    3    3    0    0 -0.53826880836E+01 -0.31927482432E+01 -0.11620895905E+02  0.13198946700E+02  0.00000000000E+00 0. -1.
</event>
<event>
 7    1  0.5987893E-013  0.5930188E+02  0.7816164E-02  0.1266605E+00
        -11   -1    0    0    0    0  0.00000000000E+00  0.00000000000E+00  0.45593999997E+02  0.45594000000E+02  0.51100000000E-03 0. -1.
         11   -1    0    0    0    0 -0.00000000000E+00 -0.00000000000E+00 -0.45593999997E+02  0.45594000000E+02  0.51100000000E-03 0.  1.
    9900012    2    1    2    0    0 -0.23652663114E+02  0.20111221832E+02  0.72674029699E+01  0.59301876656E+02  0.49999877131E+02 0.  0.
        -12    1    1    2    0    0  0.23652663114E+02 -0.20111221832E+02 -0.72674029699E+01  0.31886123344E+02  0.00000000000E+00 0.  1.
         11    1    3    3    0    0 -0.27301045608E+02  0.30057518444E+02  0.78787742077E+00  0.40613079880E+02  0.51100000000E-03 0.  1.
        -11    1    3    3    0    0 -0.24965780771E+01 -0.77294131701E+01  0.85914572558E+01  0.11823276538E+02  0.51100000000E-03 0. -1.
        -12    1    3    3    0    0  0.61449605709E+01 -0.22168834413E+01 -0.21119317067E+01  0.68655202384E+01  0.00000000000E+00 0.  1.
</event>
<event>
 7    1  0.5987893E-013  0.5930194E+02  0.7816164E-02  0.1266605E+00
        -11   -1    0    0    0    0  0.00000000000E+00  0.00000000000E+00  0.45593999997E+02  0.45594000000E+02  0.51100000000E-03 0. -1.
         11   -1    0    0    0    0 -0.00000000000E+00 -0.00000000000E+00 -0.45593999997E+02  0.45594000000E+02  0.51100000000E-03 0.  1.
    9900012    2    1    2    0    0  0.33369322283E+01  0.20766103169E+01  0.31642906594E+02  0.59301937766E+02  0.49999988579E+02 0.  0.
        -12    1    1    2    0    0 -0.33369322283E+01 -0.20766103169E+01 -0.31642906594E+02  0.31886062234E+02  0.00000000000E+00 0.  1.
         11    1    3    3    0    0 -0.21810721560E+01 -0.76033064572E+01  0.25461363963E+02  0.26661740377E+02  0.51100000000E-03 0. -1.
        -11    1    3    3    0    0 -0.40449038958E+01  0.14815684401E+02 -0.58512853248E+01  0.16434819500E+02  0.51100000000E-03 0.  1.
         12    1    3    3    0    0  0.95629082801E+01 -0.51357676265E+01  0.12032827956E+02  0.16205377888E+02  0.00000000000E+00 0. -1.
</event>
<event>
 7    1  0.5987893E-013  0.5930194E+02  0.7816164E-02  0.1266605E+00
        -11   -1    0    0    0    0  0.00000000000E+00  0.00000000000E+00  0.45593999997E+02  0.45594000000E+02  0.51100000000E-03 0.  1.
         11   -1    0    0    0    0 -0.00000000000E+00 -0.00000000000E+00 -0.45593999997E+02  0.45594000000E+02  0.51100000000E-03 0. -1.
    9900012    2    1    2    0    0 -0.33027002541E+01 -0.22647428469E+02 -0.22201504044E+02  0.59301943062E+02  0.49999998239E+02 0.  0.
        -12    1    1    2    0    0  0.33027002541E+01  0.22647428469E+02  0.22201504044E+02  0.31886056938E+02  0.00000000000E+00 0.  1.
         11    1    3    3    0    0  0.21948027897E+02 -0.75753031732E+01 -0.14563166229E+02  0.27407790090E+02  0.51100000000E-03 0. -1.
        -11    1    3    3    0    0 -0.75512292011E+01 -0.12284566459E+01 -0.52901275776E+01  0.93013772220E+01  0.51100000000E-03 0.  1.
         12    1    3    3    0    0 -0.17699498950E+02 -0.13843668650E+02 -0.23482102372E+01  0.22592775750E+02  0.00000000000E+00 0. -1.
</event>
<event>
 7    1  0.5987893E-013  0.5930195E+02  0.7816164E-02  0.1266605E+00
        -11   -1    0    0    0    0  0.00000000000E+00  0.00000000000E+00  0.45593999997E+02  0.45594000000E+02  0.51100000000E-03 0.  1.
         11   -1    0    0    0    0 -0.00000000000E+00 -0.00000000000E+00 -0.45593999997E+02  0.45594000000E+02  0.51100000000E-03 0. -1.
    9900012    2    1    2    0    0 -0.34794890569E+00 -0.30598105015E+02 -0.89641162572E+01  0.59301945380E+02  0.50000002467E+02 0.  0.
        -12    1    1    2    0    0  0.34794890569E+00  0.30598105015E+02  0.89641162572E+01  0.31886054620E+02  0.00000000000E+00 0.  1.
         11    1    3    3    0    0  0.17279099136E+02  0.69947824517E-01 -0.91817317474E+01  0.19567226625E+02  0.51100000000E-03 0. -1.
        -11    1    3    3    0    0 -0.47064074142E+01 -0.24368062131E+02 -0.30153977062E+01  0.25000906911E+02  0.51100000000E-03 0.  1.
        -12    1    3    3    0    0 -0.12920640627E+02 -0.62999907079E+01  0.32330131964E+01  0.14733811844E+02  0.00000000000E+00 0.  1.
</event>
<event>
 7    1  0.5987893E-013  0.5930201E+02  0.7816164E-02  0.1266605E+00
        -11   -1    0    0    0    0  0.00000000000E+00  0.00000000000E+00  0.45593999997E+02  0.45594000000E+02  0.51100000000E-03 0.  1.
         11   -1    0    0    0    0 -0.00000000000E+00 -0.00000000000E+00 -0.45593999997E+02  0.45594000000E+02  0.51100000000E-03 0. -1.
    9900012    2    1    2    0    0  0.19380788708E+02  0.11753291623E+02  0.22426800383E+02  0.59302012320E+02  0.50000124549E+02 0.  0.
        -12    1    1    2    0    0 -0.19380788708E+02 -0.11753291623E+02 -0.22426800383E+02  0.31885987680E+02  0.00000000000E+00 0.  1.
         11    1    3    3    0    0  0.71990186392E+01 -0.75372418000E+01  0.26538888168E+02  0.28512251205E+02  0.51100000000E-03 0. -1.
        -11    1    3    3    0    0 -0.34262046455E+01  0.12768479697E+02  0.58749590217E+00  0.13233219704E+02  0.51100000000E-03 0.  1.
         12    1    3    3    0    0  0.15607974714E+02  0.65220537256E+01 -0.46995836870E+01  0.17556541411E+02  0.00000000000E+00 0. -1.
</event>
<event>
 7    1  0.5987893E-013  0.5930199E+02  0.7816164E-02  0.1266605E+00
        -11   -1    0    0    0    0  0.00000000000E+00  0.00000000000E+00  0.45593999997E+02  0.45594000000E+02  0.51100000000E-03 0.  1.
         11   -1    0    0    0    0 -0.00000000000E+00 -0.00000000000E+00 -0.45593999997E+02  0.45594000000E+02  0.51100000000E-03 0. -1.
    9900012    2    1    2    0    0 -0.29832552613E+02 -0.83402377603E+01 -0.75615592285E+01  0.59301985209E+02  0.50000075104E+02 0.  0.
        -12    1    1    2    0    0  0.29832552613E+02  0.83402377603E+01  0.75615592285E+01  0.31886014791E+02  0.00000000000E+00 0.  1.
         11    1    3    3    0    0 -0.32309608246E+02 -0.23108625495E+01  0.40834504028E+01  0.32648513568E+02  0.51100000000E-03 0.  1.
        -11    1    3    3    0    0  0.77807273843E+01 -0.11301891010E+02 -0.13172319776E+02  0.19020580106E+02  0.51100000000E-03 0. -1.
         12    1    3    3    0    0 -0.53036717510E+01  0.52725157997E+01  0.15273101446E+01  0.76328915346E+01  0.00000000000E+00 0. -1.
</event>
<event>
 7    1  0.5987893E-013  0.5930222E+02  0.7816164E-02  0.1266604E+00
        -11   -1    0    0    0    0  0.00000000000E+00  0.00000000000E+00  0.45593999997E+02  0.45594000000E+02  0.51100000000E-03 0.  1.
         11   -1    0    0    0    0 -0.00000000000E+00 -0.00000000000E+00 -0.45593999997E+02  0.45594000000E+02  0.51100000000E-03 0. -1.
    9900012    2    1    2    0    0 -0.14736286359E+02 -0.27879726496E+02 -0.47186810325E+01  0.59302215772E+02  0.50000495595E+02 0.  0.
        -12    1    1    2    0    0  0.14736286359E+02  0.27879726496E+02  0.47186810325E+01  0.31885784228E+02  0.00000000000E+00 0.  1.
         11    1    3    3    0    0  0.14932173783E+01 -0.34128192253E+02 -0.10355857663E+02  0.35696036094E+02  0.51100000000E-03 0. -1.
        -11    1    3    3    0    0 -0.17084406007E+02  0.11870275910E+01  0.66548201955E+01  0.18373148756E+02  0.51100000000E-03 0.  1.
        -12    1    3    3    0    0  0.85490227009E+00  0.50614381667E+01 -0.10176435646E+01  0.52330309221E+01  0.00000000000E+00 0.  1.
</event>
<event>
 7    1  0.5987893E-013  0.5930197E+02  0.7816164E-02  0.1266605E+00
        -11   -1    0    0    0    0  0.00000000000E+00  0.00000000000E+00  0.45593999997E+02  0.45594000000E+02  0.51100000000E-03 0. -1.
         11   -1    0    0    0    0 -0.00000000000E+00 -0.00000000000E+00 -0.45593999997E+02  0.45594000000E+02  0.51100000000E-03 0.  1.
    9900012    2    1    2    0    0 -0.22893187980E+02  0.13619375381E+02  0.17525224962E+02  0.59301969334E+02  0.50000046152E+02 0.  0.
        -12    1    1    2    0    0  0.22893187980E+02 -0.13619375381E+02 -0.17525224962E+02  0.31886030666E+02  0.00000000000E+00 0.  1.
         11    1    3    3    0    0 -0.30104433243E+02  0.17877732062E+02  0.13466040459E+02  0.37512990423E+02  0.51100000000E-03 0. -1.
        -11    1    3    3    0    0  0.95175537074E+01 -0.54744940570E+01  0.10281769568E+02  0.15042230535E+02  0.51100000000E-03 0.  1.
         12    1    3    3    0    0 -0.23063084440E+01  0.12161373762E+01 -0.62225850647E+01  0.67467483757E+01  0.00000000000E+00 0. -1.
</event>
<event>
 7    1  0.5987893E-013  0.5930198E+02  0.7816164E-02  0.1266605E+00
        -11   -1    0    0    0    0  0.00000000000E+00  0.00000000000E+00  0.45593999997E+02  0.45594000000E+02  0.51100000000E-03 0.  1.
         11   -1    0    0    0    0 -0.00000000000E+00 -0.00000000000E+00 -0.45593999997E+02  0.45594000000E+02  0.51100000000E-03 0. -1.
    9900012    2    1    2    0    0  0.55765130343E+01 -0.30415110498E+02 -0.77808633601E+01  0.59301979884E+02  0.50000065393E+02 0.  0.
        -12    1    1    2    0    0 -0.55765130343E+01  0.30415110498E+02  0.77808633601E+01  0.31886020116E+02  0.00000000000E+00 0.  1.
         11    1    3    3    0    0  0.10971968136E+02 -0.20632838967E+02 -0.18762943577E+02  0.29969087083E+02  0.51100000000E-03 0. -1.
        -11    1    3    3    0    0 -0.88806756957E-01 -0.22648386066E+01  0.17760164316E+02  0.17904212279E+02  0.51100000000E-03 0.  1.
        -12    1    3    3    0    0 -0.53066483450E+01 -0.75174329239E+01 -0.67780840991E+01  0.11428680522E+02  0.00000000000E+00 0.  1.
</event>
<event>
 7    1  0.5987893E-013  0.5930200E+02  0.7816164E-02  0.1266605E+00
        -11   -1    0    0    0    0  0.00000000000E+00  0.00000000000E+00  0.45593999997E+02  0.45594000000E+02  0.51100000000E-03 0.  1.
         11   -1    0    0    0    0 -0.00000000000E+00 -0.00000000000E+00 -0.45593999997E+02  0.45594000000E+02  0.51100000000E-03 0. -1.
    9900012    2    1    2    0    0  0.23767433579E+02 -0.96658645216E+01 -0.18931378222E+02  0.59302001234E+02  0.50000104331E+02 0.  0.
        -12    1    1    2    0    0 -0.23767433579E+02  0.96658645216E+01  0.18931378222E+02  0.31885998766E+02  0.00000000000E+00 0.  1.
         11    1    3    3    0    0  0.26695866597E+02 -0.22096549375E+02 -0.69547593664E+01  0.35345374036E+02  0.51100000000E-03 0. -1.
        -11    1    3    3    0    0 -0.35198334127E+01 -0.29053322288E+01 -0.58781211412E+01  0.74419413478E+01  0.51100000000E-03 0.  1.
         12    1    3    3    0    0  0.59140039484E+00  0.15336017082E+02 -0.60984977143E+01  0.16514685850E+02  0.00000000000E+00 0. -1.
</event>
<event>
 7    1  0.5987893E-013  0.5930194E+02  0.7816164E-02  0.1266605E+00
        -11   -1    0    0    0    0  0.00000000000E+00  0.00000000000E+00  0.45593999997E+02  0.45594000000E+02  0.51100000000E-03 0.  1.
         11   -1    0    0    0    0 -0.00000000000E+00 -0.00000000000E+00 -0.45593999997E+02  0.45594000000E+02  0.51100000000E-03 0. -1.
    9900012    2    1    2    0    0  0.11342467031E+01 -0.15675529553E+02 -0.27743685026E+02  0.59301940332E+02  0.49999993259E+02 0.  0.
        -12    1    1    2    0    0 -0.11342467031E+01  0.15675529553E+02  0.27743685026E+02  0.31886059668E+02  0.00000000000E+00 0.  1.
         11    1    3    3    0    0  0.75263896927E+01 -0.18848126658E+02 -0.28121013545E+02  0.34679818676E+02  0.51100000000E-03 0. -1.
        -11    1    3    3    0    0 -0.91427689391E+01  0.10608245601E+02  0.56495029213E+01  0.15101058974E+02  0.51100000000E-03 0.  1.
        -12    1    3    3    0    0  0.27506259495E+01 -0.74356484959E+01 -0.52721744023E+01  0.95210626821E+01  0.00000000000E+00 0.  1.
</event>
<event>
 7    1  0.5987893E-013  0.5930193E+02  0.7816164E-02  0.1266605E+00
        -11   -1    0    0    0    0  0.00000000000E+00  0.00000000000E+00  0.45593999997E+02  0.45594000000E+02  0.51100000000E-03 0.  1.
         11   -1    0    0    0    0 -0.00000000000E+00 -0.00000000000E+00 -0.45593999997E+02  0.45594000000E+02  0.51100000000E-03 0. -1.
    9900012    2    1    2    0    0 -0.96078530344E+00  0.89388005204E+01 -0.30592416643E+02  0.59301933777E+02  0.49999981305E+02 0.  0.
        -12    1    1    2    0    0  0.96078530344E+00 -0.89388005204E+01  0.30592416643E+02  0.31886066223E+02  0.00000000000E+00 0.  1.
         11    1    3    3    0    0 -0.79933035197E+00 -0.46304697403E+01 -0.12010740454E+02  0.12897211541E+02  0.51100000000E-03 0. -1.
        -11    1    3    3    0    0  0.13052934677E+00  0.11161502017E+02  0.11615965098E+02  0.16109835834E+02  0.51100000000E-03 0.  1.
        -12    1    3    3    0    0 -0.29198429824E+00  0.24077682441E+01 -0.30197641287E+02  0.30294886401E+02  0.00000000000E+00 0.  1.
</event>
<event>
 7    1  0.5987893E-013  0.5930193E+02  0.7816164E-02  0.1266605E+00
        -11   -1    0    0    0    0  0.00000000000E+00  0.00000000000E+00  0.45593999997E+02  0.45594000000E+02  0.51100000000E-03 0.  1.
         11   -1    0    0    0    0 -0.00000000000E+00 -0.00000000000E+00 -0.45593999997E+02  0.45594000000E+02  0.51100000000E-03 0. -1.
    9900012    2    1    2    0    0  0.45201765183E+01 -0.27884757144E+02 -0.14789524621E+02  0.59301925998E+02  0.49999967119E+02 0.  0.
        -12    1    1    2    0    0 -0.45201765183E+01  0.27884757144E+02  0.14789524621E+02  0.31886074002E+02  0.00000000000E+00 0.  1.
         11    1    3    3    0    0 -0.12139555417E+02 -0.33933583471E+02 -0.16356681026E+02  0.39577745102E+02  0.51100000000E-03 0. -1.
        -11    1    3    3    0    0  0.57301071300E+00  0.23465357280E+01 -0.16248516119E+01  0.29111362424E+01  0.51100000000E-03 0.  1.
         12    1    3    3    0    0  0.16086721222E+02  0.37022905994E+01  0.31920080161E+01  0.16813044654E+02  0.00000000000E+00 0. -1.
</event>
<event>
 7    1  0.5987893E-013  0.5930194E+02  0.7816164E-02  0.1266605E+00
        -11   -1    0    0    0    0  0.00000000000E+00  0.00000000000E+00  0.45593999997E+02  0.45594000000E+02  0.51100000000E-03 0.  1.
         11   -1    0    0    0    0 -0.00000000000E+00 -0.00000000000E+00 -0.45593999997E+02  0.45594000000E+02  0.51100000000E-03 0. -1.
    9900012    2    1    2    0    0 -0.14623886366E+01  0.10619502821E+02 -0.30030125349E+02  0.59301939579E+02  0.49999991887E+02 0.  0.
        -12    1    1    2    0    0  0.14623886366E+01 -0.10619502821E+02  0.30030125349E+02  0.31886060421E+02  0.00000000000E+00 0.  1.
         11    1    3    3    0    0  0.30091957582E+01  0.12214617529E+02 -0.17328326611E+02  0.21413151190E+02  0.51100000000E-03 0. -1.
        -11    1    3    3    0    0 -0.11652682532E+02 -0.15861243821E+02 -0.60839055821E+01  0.20600436237E+02  0.51100000000E-03 0.  1.
        -12    1    3    3    0    0  0.71810981373E+01  0.14266129112E+02 -0.66178931558E+01  0.17288352152E+02  0.00000000000E+00 0.  1.
</event>
<event>
 7    1  0.5987893E-013  0.5930195E+02  0.7816164E-02  0.1266605E+00
        -11   -1    0    0    0    0  0.00000000000E+00  0.00000000000E+00  0.45593999997E+02  0.45594000000E+02  0.51100000000E-03 0.  1.
         11   -1    0    0    0    0 -0.00000000000E+00 -0.00000000000E+00 -0.45593999997E+02  0.45594000000E+02  0.51100000000E-03 0. -1.
    9900012    2    1    2    0    0  0.89748761825E+01 -0.86832370866E+01 -0.29338936830E+02  0.59301949396E+02  0.50000009791E+02 0.  0.
        -12    1    1    2    0    0 -0.89748761825E+01  0.86832370866E+01  0.29338936830E+02  0.31886050604E+02  0.00000000000E+00 0.  1.
         11    1    3    3    0    0  0.12194645762E+01 -0.45582677603E+01 -0.36753193578E+02  0.37054853087E+02  0.51100000000E-03 0. -1.
        -11    1    3    3    0    0  0.94466596471E+01  0.53746667126E+01  0.16109019625E+01  0.10987330256E+02  0.51100000000E-03 0.  1.
         12    1    3    3    0    0 -0.16912480408E+01 -0.94996360389E+01  0.58033547861E+01  0.11259766053E+02  0.00000000000E+00 0. -1.
</event>
<event>
 7    1  0.5987893E-013  0.5930193E+02  0.7816164E-02  0.1266605E+00
        -11   -1    0    0    0    0  0.00000000000E+00  0.00000000000E+00  0.45593999997E+02  0.45594000000E+02  0.51100000000E-03 0. -1.
         11   -1    0    0    0    0 -0.00000000000E+00 -0.00000000000E+00 -0.45593999997E+02  0.45594000000E+02  0.51100000000E-03 0.  1.
    9900012    2    1    2    0    0  0.17399951435E+02 -0.29596732407E+01  0.26555671892E+02  0.59301926468E+02  0.49999967976E+02 0.  0.
        -12    1    1    2    0    0 -0.17399951435E+02  0.29596732407E+01 -0.26555671892E+02  0.31886073532E+02  0.00000000000E+00 0.  1.
         11    1    3    3    0    0 -0.89544527001E+01 -0.30864359065E+01  0.13424826691E+02  0.16429676860E+02  0.51100000000E-03 0. -1.
        -11    1    3    3    0    0  0.24895442552E+02  0.79483634743E+01  0.19560054331E+02  0.32642844047E+02  0.51100000000E-03 0.  1.
        -12    1    3    3    0    0  0.14589615833E+01 -0.78216008085E+01 -0.64292091299E+01  0.10229405562E+02  0.00000000000E+00 0.  1.
</event>
<event>
 7    1  0.5987893E-013  0.5930193E+02  0.7816164E-02  0.1266605E+00
        -11   -1    0    0    0    0  0.00000000000E+00  0.00000000000E+00  0.45593999997E+02  0.45594000000E+02  0.51100000000E-03 0.  1.
         11   -1    0    0    0    0 -0.00000000000E+00 -0.00000000000E+00 -0.45593999997E+02  0.45594000000E+02  0.51100000000E-03 0. -1.
    9900012    2    1    2    0    0  0.34921904500E+01  0.18099948586E+02 -0.26017646047E+02  0.59301930334E+02  0.49999975026E+02 0.  0.
        -12    1    1    2    0    0 -0.34921904500E+01 -0.18099948586E+02  0.26017646047E+02  0.31886069666E+02  0.00000000000E+00 0.  1.
         11    1    3    3    0    0  0.30997050972E+01  0.61602099575E+01 -0.14116317378E+02  0.15710721657E+02  0.51100000000E-03 0. -1.
        -11    1    3    3    0    0 -0.51770528093E+01 -0.13520782884E+02  0.99555400368E+00  0.14512221526E+02  0.51100000000E-03 0.  1.
        -12    1    3    3    0    0  0.55695381621E+01  0.25460521513E+02 -0.12896882672E+02  0.29078987150E+02  0.00000000000E+00 0.  1.
</event>
<event>
 7    1  0.5987893E-013  0.5930195E+02  0.7816164E-02  0.1266605E+00
        -11   -1    0    0    0    0  0.00000000000E+00  0.00000000000E+00  0.45593999997E+02  0.45594000000E+02  0.51100000000E-03 0. -1.
         11   -1    0    0    0    0 -0.00000000000E+00 -0.00000000000E+00 -0.45593999997E+02  0.45594000000E+02  0.51100000000E-03 0.  1.
    9900012    2    1    2    0    0  0.12321859021E+02 -0.11571551776E+02  0.27036852804E+02  0.59301946155E+02  0.50000003880E+02 0.  0.
        -12    1    1    2    0    0 -0.12321859021E+02  0.11571551776E+02 -0.27036852804E+02  0.31886053845E+02  0.00000000000E+00 0.  1.
         11    1    3    3    0    0  0.12760446716E+02  0.99410606776E+01  0.12571775002E+02  0.20486659433E+02  0.51100000000E-03 0. -1.
        -11    1    3    3    0    0  0.81019043195E-02 -0.19279818448E+02 -0.44310499703E+01  0.19782458622E+02  0.51100000000E-03 0.  1.
        -12    1    3    3    0    0 -0.44668959909E+00 -0.22327940050E+01  0.18896127773E+02  0.19032828099E+02  0.00000000000E+00 0.  1.
</event>
<event>
 7    1  0.5987893E-013  0.5930194E+02  0.7816164E-02  0.1266605E+00
        -11   -1    0    0    0    0  0.00000000000E+00  0.00000000000E+00  0.45593999997E+02  0.45594000000E+02  0.51100000000E-03 0.  1.
         11   -1    0    0    0    0 -0.00000000000E+00 -0.00000000000E+00 -0.45593999997E+02  0.45594000000E+02  0.51100000000E-03 0. -1.
    9900012    2    1    2    0    0 -0.97912816512E+01 -0.29974296256E+02 -0.47321607769E+01  0.59301937558E+02  0.49999988202E+02 0.  0.
        -12    1    1    2    0    0  0.97912816512E+01  0.29974296256E+02  0.47321607769E+01  0.31886062442E+02  0.00000000000E+00 0.  1.
         11    1    3    3    0    0  0.72921057669E+01  0.10296893473E+02 -0.52925733553E+01  0.13682549276E+02  0.51100000000E-03 0. -1.
        -11    1    3    3    0    0 -0.17826214322E+02 -0.38989572884E+02 -0.17133399717E+01  0.42905666815E+02  0.51100000000E-03 0.  1.
         12    1    3    3    0    0  0.74282690362E+00 -0.12816168444E+01  0.22737525500E+01  0.27137214675E+01  0.00000000000E+00 0. -1.
</event>
<event>
 7    1  0.5987893E-013  0.5930198E+02  0.7816164E-02  0.1266605E+00
        -11   -1    0    0    0    0  0.00000000000E+00  0.00000000000E+00  0.45593999997E+02  0.45594000000E+02  0.51100000000E-03 0. -1.
         11   -1    0    0    0    0 -0.00000000000E+00 -0.00000000000E+00 -0.45593999997E+02  0.45594000000E+02  0.51100000000E-03 0.  1.
    9900012    2    1    2    0    0  0.13358906405E+02  0.24807468005E+02  0.14928071112E+02  0.59301981806E+02  0.50000068898E+02 0.  0.
        -12    1    1    2    0    0 -0.13358906405E+02 -0.24807468005E+02 -0.14928071112E+02  0.31886018194E+02  0.00000000000E+00 0.  1.
         11    1    3    3    0    0  0.13977329698E+02  0.15057637814E+02 -0.20746096976E+01  0.20649508655E+02  0.51100000000E-03 0. -1.
        -11    1    3    3    0    0 -0.25091250651E+01 -0.61606493932E+01 -0.70877485570E+01  0.97203646745E+01  0.51100000000E-03 0.  1.
         12    1    3    3    0    0  0.18907017721E+01  0.15910479584E+02  0.24090429367E+02  0.28932108476E+02  0.00000000000E+00 0. -1.
</event>
<event>
 7    1  0.5987893E-013  0.5930194E+02  0.7816164E-02  0.1266605E+00
        -11   -1    0    0    0    0  0.00000000000E+00  0.00000000000E+00  0.45593999997E+02  0.45594000000E+02  0.51100000000E-03 0.  1.
         11   -1    0    0    0    0 -0.00000000000E+00 -0.00000000000E+00 -0.45593999997E+02  0.45594000000E+02  0.51100000000E-03 0. -1.
    9900012    2    1    2    0    0 -0.89940502501E+01 -0.20847319924E+02 -0.22387879062E+02  0.59301940086E+02  0.49999992812E+02 0.  0.
        -12    1    1    2    0    0  0.89940502501E+01  0.20847319924E+02  0.22387879062E+02  0.31886059914E+02  0.00000000000E+00 0.  1.
         11    1    3    3    0    0 -0.26441209322E+02  0.11735663752E+01 -0.75722048033E+01  0.27529131739E+02  0.51100000000E-03 0. -1.
        -11    1    3    3    0    0  0.74353556908E+01 -0.10015100853E+02 -0.64341977601E+01  0.14035158012E+02  0.51100000000E-03 0.  1.
         12    1    3    3    0    0  0.10011803381E+02 -0.12005785446E+02 -0.83814764989E+01  0.17737650335E+02  0.00000000000E+00 0. -1.
</event>
<event>
 7    1  0.5987893E-013  0.5930190E+02  0.7816164E-02  0.1266605E+00
        -11   -1    0    0    0    0  0.00000000000E+00  0.00000000000E+00  0.45593999997E+02  0.45594000000E+02  0.51100000000E-03 0. -1.
         11   -1    0    0    0    0 -0.00000000000E+00 -0.00000000000E+00 -0.45593999997E+02  0.45594000000E+02  0.51100000000E-03 0.  1.
    9900012    2    1    2    0    0  0.67276928398E+01  0.14105472345E+02  0.27793827996E+02  0.59301904665E+02  0.49999928211E+02 0.  0.
        -12    1    1    2    0    0 -0.67276928398E+01 -0.14105472345E+02 -0.27793827996E+02  0.31886095335E+02  0.00000000000E+00 0.  1.
         11    1    3    3    0    0  0.23006743540E+01 -0.11383890445E+02  0.17759595091E+02  0.21220020787E+02  0.51100000000E-03 0. -1.
        -11    1    3    3    0    0 -0.77297446897E+01  0.21066454572E+02  0.13087275665E+01  0.22477927602E+02  0.51100000000E-03 0.  1.
        -12    1    3    3    0    0  0.12156763175E+02  0.44229082190E+01  0.87255053388E+01  0.15603956275E+02  0.00000000000E+00 0.  1.
</event>
<event>
 7    1  0.5987893E-013  0.5930187E+02  0.7816164E-02  0.1266605E+00
        -11   -1    0    0    0    0  0.00000000000E+00  0.00000000000E+00  0.45593999997E+02  0.45594000000E+02  0.51100000000E-03 0. -1.
         11   -1    0    0    0    0 -0.00000000000E+00 -0.00000000000E+00 -0.45593999997E+02  0.45594000000E+02  0.51100000000E-03 0.  1.
    9900012    2    1    2    0    0  0.69227687178E+01 -0.25880066490E+02 -0.17292276452E+02  0.59301868326E+02  0.49999861938E+02 0.  0.
        -12    1    1    2    0    0 -0.69227687178E+01  0.25880066490E+02  0.17292276452E+02  0.31886131674E+02  0.00000000000E+00 0.  1.
         11    1    3    3    0    0  0.19548837644E+02 -0.65854682616E+00 -0.19849902101E+01  0.19660389710E+02  0.51100000000E-03 0. -1.
        -11    1    3    3    0    0 -0.10605847069E+02 -0.27600164679E+02 -0.64672974907E+01  0.30266797311E+02  0.51100000000E-03 0.  1.
        -12    1    3    3    0    0 -0.20202218570E+01  0.23786450154E+01 -0.88399887510E+01  0.93746813055E+01  0.00000000000E+00 0.  1.
</event>
<event>
 7    1  0.5987893E-013  0.5930193E+02  0.7816164E-02  0.1266605E+00
        -11   -1    0    0    0    0  0.00000000000E+00  0.00000000000E+00  0.45593999997E+02  0.45594000000E+02  0.51100000000E-03 0.  1.
         11   -1    0    0    0    0 -0.00000000000E+00 -0.00000000000E+00 -0.45593999997E+02  0.45594000000E+02  0.51100000000E-03 0. -1.
    9900012    2    1    2    0    0 -0.68604706391E+01  0.23547978806E+02 -0.20375190867E+02  0.59301925201E+02  0.49999965665E+02 0.  0.
        -12    1    1    2    0    0  0.68604706391E+01 -0.23547978806E+02  0.20375190867E+02  0.31886074799E+02  0.00000000000E+00 0.  1.
         11    1    3    3    0    0  0.52719811371E+01  0.12082307692E+02 -0.23094971936E+01  0.13383188029E+02  0.51100000000E-03 0. -1.
        -11    1    3    3    0    0 -0.23316996755E+02 -0.25711239797E+01 -0.14625535723E+02  0.27644155108E+02  0.51100000000E-03 0.  1.
        -12    1    3    3    0    0  0.11184544979E+02  0.14036795094E+02 -0.34401579500E+01  0.18274582064E+02  0.00000000000E+00 0.  1.
</event>
<event>
 7    1  0.5987893E-013  0.5930200E+02  0.7816164E-02  0.1266605E+00
        -11   -1    0    0    0    0  0.00000000000E+00  0.00000000000E+00  0.45593999997E+02  0.45594000000E+02  0.51100000000E-03 0. -1.
         11   -1    0    0    0    0 -0.00000000000E+00 -0.00000000000E+00 -0.45593999997E+02  0.45594000000E+02  0.51100000000E-03 0.  1.
    9900012    2    1    2    0    0 -0.16220511326E+02  0.16001231807E+02  0.22306333091E+02  0.59302001459E+02  0.50000104741E+02 0.  0.
        -12    1    1    2    0    0  0.16220511326E+02 -0.16001231807E+02 -0.22306333091E+02  0.31885998541E+02  0.00000000000E+00 0.  1.
         11    1    3    3    0    0 -0.28559013881E+02  0.10763691789E+02  0.16134655480E+02  0.34522477352E+02  0.51100000000E-03 0. -1.
        -11    1    3    3    0    0  0.57736355795E+01 -0.76208331293E+01  0.25291616327E+01  0.98898242762E+01  0.51100000000E-03 0.  1.
         12    1    3    3    0    0  0.65648669760E+01  0.12858373147E+02  0.36425159787E+01  0.14889699831E+02  0.00000000000E+00 0. -1.
</event>
<event>
 7    1  0.5987893E-013  0.5930194E+02  0.7816164E-02  0.1266605E+00
        -11   -1    0    0    0    0  0.00000000000E+00  0.00000000000E+00  0.45593999997E+02  0.45594000000E+02  0.51100000000E-03 0.  1.
         11   -1    0    0    0    0 -0.00000000000E+00 -0.00000000000E+00 -0.45593999997E+02  0.45594000000E+02  0.51100000000E-03 0. -1.
    9900012    2    1    2    0    0 -0.31450252867E+02 -0.38679460589E+01  0.35555203541E+01  0.59301935064E+02  0.49999983653E+02 0.  0.
        -12    1    1    2    0    0  0.31450252867E+02  0.38679460589E+01 -0.35555203541E+01  0.31886064936E+02  0.00000000000E+00 0.  1.
         11    1    3    3    0    0  0.72072603126E+01 -0.11818573904E+02  0.22321928655E+01  0.14021625284E+02  0.51100000000E-03 0. -1.
        -11    1    3    3    0    0 -0.20095981408E+02 -0.27731877955E+01  0.94183207654E+01  0.22366130770E+02  0.51100000000E-03 0.  1.
         12    1    3    3    0    0 -0.18561531771E+02  0.10723815641E+02 -0.80949932768E+01  0.22914179011E+02  0.00000000000E+00 0. -1.
</event>
<event>
 7    1  0.5987893E-013  0.5930193E+02  0.7816164E-02  0.1266605E+00
        -11   -1    0    0    0    0  0.00000000000E+00  0.00000000000E+00  0.45593999997E+02  0.45594000000E+02  0.51100000000E-03 0.  1.
         11   -1    0    0    0    0 -0.00000000000E+00 -0.00000000000E+00 -0.45593999997E+02  0.45594000000E+02  0.51100000000E-03 0. -1.
    9900012    2    1    2    0    0  0.12747469481E+02  0.78599632630E+01 -0.28150385623E+02  0.59301933899E+02  0.49999981528E+02 0.  0.
        -12    1    1    2    0    0 -0.12747469481E+02 -0.78599632630E+01  0.28150385623E+02  0.31886066101E+02  0.00000000000E+00 0.  1.
         11    1    3    3    0    0 -0.11502313992E+02  0.79437574948E+01 -0.19621627715E+02  0.24091799118E+02  0.51100000000E-03 0. -1.
        -11    1    3    3    0    0  0.31017958406E+01  0.40979012729E+01  0.69696820365E+01  0.86596997772E+01  0.51100000000E-03 0.  1.
         12    1    3    3    0    0  0.21147987632E+02 -0.41816955047E+01 -0.15498439944E+02  0.26550435004E+02  0.00000000000E+00 0. -1.
</event>
<event>
 7    1  0.5987893E-013  0.5930195E+02  0.7816164E-02  0.1266605E+00
        -11   -1    0    0    0    0  0.00000000000E+00  0.00000000000E+00  0.45593999997E+02  0.45594000000E+02  0.51100000000E-03 0.  1.
         11   -1    0    0    0    0 -0.00000000000E+00 -0.00000000000E+00 -0.45593999997E+02  0.45594000000E+02  0.51100000000E-03 0. -1.
    9900012    2    1    2    0    0  0.22310697909E+02  0.15272733907E+02 -0.16902564738E+02  0.59301947612E+02  0.50000006537E+02 0.  0.
        -12    1    1    2    0    0 -0.22310697909E+02 -0.15272733907E+02  0.16902564738E+02  0.31886052388E+02  0.00000000000E+00 0.  1.
         11    1    3    3    0    0  0.96671059772E+01  0.10710799359E+02  0.10059961234E+02  0.17589115417E+02  0.51100000000E-03 0.  1.
        -11    1    3    3    0    0  0.75772768406E+01  0.11938689164E+01 -0.32556651213E+02  0.33448108852E+02  0.51100000000E-03 0. -1.
         12    1    3    3    0    0  0.50663150915E+01  0.33680656315E+01  0.55941252421E+01  0.82647233426E+01  0.00000000000E+00 0. -1.
</event>
<event>
 7    1  0.5987893E-013  0.5930198E+02  0.7816164E-02  0.1266605E+00
        -11   -1    0    0    0    0  0.00000000000E+00  0.00000000000E+00  0.45593999997E+02  0.45594000000E+02  0.51100000000E-03 0. -1.
         11   -1    0    0    0    0 -0.00000000000E+00 -0.00000000000E+00 -0.45593999997E+02  0.45594000000E+02  0.51100000000E-03 0.  1.
    9900012    2    1    2    0    0  0.99714910813E+01  0.31116020370E+01  0.30126496245E+02  0.59301976767E+02  0.50000059708E+02 0.  0.
        -12    1    1    2    0    0 -0.99714910813E+01 -0.31116020370E+01 -0.30126496245E+02  0.31886023233E+02  0.00000000000E+00 0.  1.
         11    1    3    3    0    0 -0.56754186039E+01  0.54996186706E+01  0.50564783719E+01  0.93821189311E+01  0.51100000000E-03 0. -1.
        -11    1    3    3    0    0  0.25944051101E+02  0.92901024727E+01  0.14962717934E+02  0.31357339168E+02  0.51100000000E-03 0.  1.
        -12    1    3    3    0    0 -0.10297141416E+02 -0.11678119106E+02  0.10107299939E+02  0.18562518667E+02  0.00000000000E+00 0.  1.
</event>
<event>
 7    1  0.5987893E-013  0.5930181E+02  0.7816164E-02  0.1266605E+00
        -11   -1    0    0    0    0  0.00000000000E+00  0.00000000000E+00  0.45593999997E+02  0.45594000000E+02  0.51100000000E-03 0.  1.
         11   -1    0    0    0    0 -0.00000000000E+00 -0.00000000000E+00 -0.45593999997E+02  0.45594000000E+02  0.51100000000E-03 0. -1.
    9900012    2    1    2    0    0 -0.14100595550E+02  0.22566710604E+02 -0.17568315409E+02  0.59301812886E+02  0.49999760828E+02 0.  0.
        -12    1    1    2    0    0  0.14100595550E+02 -0.22566710604E+02  0.17568315409E+02  0.31886187114E+02  0.00000000000E+00 0.  1.
         11    1    3    3    0    0 -0.15199256734E+02 -0.82783501381E+01 -0.12879747104E+02  0.21573974413E+02  0.51100000000E-03 0. -1.
        -11    1    3    3    0    0  0.56191264773E+01  0.30644469156E+02 -0.79456022902E+01  0.32152615263E+02  0.51100000000E-03 0.  1.
         12    1    3    3    0    0 -0.45204652937E+01  0.20059158581E+00  0.32570339845E+01  0.55752232092E+01  0.00000000000E+00 0. -1.
</event>
<event>
 7    1  0.5987893E-013  0.5930195E+02  0.7816164E-02  0.1266605E+00
        -11   -1    0    0    0    0  0.00000000000E+00  0.00000000000E+00  0.45593999997E+02  0.45594000000E+02  0.51100000000E-03 0. -1.
         11   -1    0    0    0    0 -0.00000000000E+00 -0.00000000000E+00 -0.45593999997E+02  0.45594000000E+02  0.51100000000E-03 0.  1.
    9900012    2    1    2    0    0 -0.18826172150E+02 -0.20166208826E+02  0.15988093425E+02  0.59301954971E+02  0.50000019957E+02 0.  0.
        -12    1    1    2    0    0  0.18826172150E+02  0.20166208826E+02 -0.15988093425E+02  0.31886045029E+02  0.00000000000E+00 0.  1.
         11    1    3    3    0    0 -0.16913837278E+02 -0.49211517733E+01  0.15700059671E+02  0.23596345059E+02  0.51100000000E-03 0. -1.
        -11    1    3    3    0    0  0.13572073468E+02 -0.99012891455E+00 -0.40874471792E+01  0.14208756391E+02  0.51100000000E-03 0.  1.
         12    1    3    3    0    0 -0.15484408340E+02 -0.14254928138E+02  0.43754809341E+01  0.21496853520E+02  0.00000000000E+00 0. -1.
</event>
<event>
 7    1  0.5987893E-013  0.5930193E+02  0.7816164E-02  0.1266605E+00
        -11   -1    0    0    0    0  0.00000000000E+00  0.00000000000E+00  0.45593999997E+02  0.45594000000E+02  0.51100000000E-03 0. -1.
         11   -1    0    0    0    0 -0.00000000000E+00 -0.00000000000E+00 -0.45593999997E+02  0.45594000000E+02  0.51100000000E-03 0.  1.
    9900012    2    1    2    0    0  0.62328597653E+01 -0.31257089355E+02  0.93144278984E+00  0.59301925274E+02  0.49999965797E+02 0.  0.
        -12    1    1    2    0    0 -0.62328597653E+01  0.31257089355E+02 -0.93144278984E+00  0.31886074726E+02  0.00000000000E+00 0.  1.
         11    1    3    3    0    0 -0.77747712069E+01 -0.30783603509E+02  0.12149560591E+02  0.33995428151E+02  0.51100000000E-03 0. -1.
        -11    1    3    3    0    0 -0.26722389930E+01 -0.16755109697E+01 -0.75548921348E+01  0.81868549318E+01  0.51100000000E-03 0.  1.
         12    1    3    3    0    0  0.16679869965E+02  0.12020251243E+01 -0.36632256665E+01  0.17119642191E+02  0.00000000000E+00 0. -1.
</event>
<event>
 7    1  0.5987893E-013  0.5930193E+02  0.7816164E-02  0.1266605E+00
        -11   -1    0    0    0    0  0.00000000000E+00  0.00000000000E+00  0.45593999997E+02  0.45594000000E+02  0.51100000000E-03 0.  1.
         11   -1    0    0    0    0 -0.00000000000E+00 -0.00000000000E+00 -0.45593999997E+02  0.45594000000E+02  0.51100000000E-03 0. -1.
    9900012    2    1    2    0    0 -0.13151549135E+02 -0.14154746757E+02 -0.25365355765E+02  0.59301931357E+02  0.49999976892E+02 0.  0.
        -12    1    1    2    0    0  0.13151549135E+02  0.14154746757E+02  0.25365355765E+02  0.31886068643E+02  0.00000000000E+00 0.  1.
         11    1    3    3    0    0  0.42291915264E+00 -0.26382545912E+02 -0.19986388750E+02  0.33100956556E+02  0.51100000000E-03 0. -1.
        -11    1    3    3    0    0 -0.64377133812E+01  0.13773049814E+02 -0.93904026446E+01  0.17869547192E+02  0.51100000000E-03 0.  1.
        -12    1    3    3    0    0 -0.71367549061E+01 -0.15452506598E+01  0.40114356299E+01  0.83314276090E+01  0.00000000000E+00 0.  1.
</event>
<event>
 7    1  0.5987893E-013  0.5930195E+02  0.7816164E-02  0.1266605E+00
        -11   -1    0    0    0    0  0.00000000000E+00  0.00000000000E+00  0.45593999997E+02  0.45594000000E+02  0.51100000000E-03 0. -1.
         11   -1    0    0    0    0 -0.00000000000E+00 -0.00000000000E+00 -0.45593999997E+02  0.45594000000E+02  0.51100000000E-03 0.  1.
    9900012    2    1    2    0    0  0.48313898415E+01  0.29093826606E+02  0.12121337172E+02  0.59301954632E+02  0.50000019340E+02 0.  0.
        -12    1    1    2    0    0 -0.48313898415E+01 -0.29093826606E+02 -0.12121337172E+02  0.31886045368E+02  0.00000000000E+00 0.  1.
         11    1    3    3    0    0 -0.79468424927E+01  0.36878230732E+02  0.19258660056E+02  0.42356253316E+02  0.51100000000E-03 0. -1.
        -11    1    3    3    0    0  0.73616097946E+01 -0.61995227296E+01 -0.54247217655E+01  0.11047849897E+02  0.51100000000E-03 0.  1.
         12    1    3    3    0    0  0.54166225397E+01 -0.15848813968E+01 -0.17126011181E+01  0.58978514197E+01  0.00000000000E+00 0. -1.
</event>
<event>
 7    1  0.5987893E-013  0.5930194E+02  0.7816164E-02  0.1266605E+00
        -11   -1    0    0    0    0  0.00000000000E+00  0.00000000000E+00  0.45593999997E+02  0.45594000000E+02  0.51100000000E-03 0. -1.
         11   -1    0    0    0    0 -0.00000000000E+00 -0.00000000000E+00 -0.45593999997E+02  0.45594000000E+02  0.51100000000E-03 0.  1.
    9900012    2    1    2    0    0  0.69501874188E+01 -0.30669906175E+02 -0.52699428596E+01  0.59301944307E+02  0.50000000509E+02 0.  0.
        -12    1    1    2    0    0 -0.69501874188E+01  0.30669906175E+02  0.52699428596E+01  0.31886055693E+02  0.00000000000E+00 0.  1.
         11    1    3    3    0    0 -0.14269113242E+02 -0.21530134819E+02  0.82969461826E+01  0.27129202241E+02  0.51100000000E-03 0. -1.
        -11    1    3    3    0    0  0.24279085855E+02 -0.74896743720E+01 -0.13319470174E+02  0.28687584739E+02  0.51100000000E-03 0.  1.
        -12    1    3    3    0    0 -0.30597851951E+01 -0.16500969833E+01 -0.24741886819E+00  0.34851573266E+01  0.00000000000E+00 0.  1.
</event>
<event>
 7    1  0.5987893E-013  0.5930189E+02  0.7816164E-02  0.1266605E+00
        -11   -1    0    0    0    0  0.00000000000E+00  0.00000000000E+00  0.45593999997E+02  0.45594000000E+02  0.51100000000E-03 0.  1.
         11   -1    0    0    0    0 -0.00000000000E+00 -0.00000000000E+00 -0.45593999997E+02  0.45594000000E+02  0.51100000000E-03 0. -1.
    9900012    2    1    2    0    0  0.16292505216E+02 -0.55925014126E-01 -0.27409398199E+02  0.59301890744E+02  0.49999902824E+02 0.  0.
        -12    1    1    2    0    0 -0.16292505216E+02  0.55925014126E-01  0.27409398199E+02  0.31886109256E+02  0.00000000000E+00 0.  1.
         11    1    3    3    0    0  0.16337675569E+01  0.93519234181E+01 -0.31330072968E+02  0.32736846832E+02  0.51100000000E-03 0. -1.
        -11    1    3    3    0    0  0.15168308604E+02 -0.56234853511E+01 -0.49416192837E+01  0.16915104931E+02  0.51100000000E-03 0.  1.
         12    1    3    3    0    0 -0.50957094536E+00 -0.37843630811E+01  0.88622940527E+01  0.96499389819E+01  0.00000000000E+00 0. -1.
</event>
<event>
 7    1  0.5987893E-013  0.5930194E+02  0.7816164E-02  0.1266605E+00
        -11   -1    0    0    0    0  0.00000000000E+00  0.00000000000E+00  0.45593999997E+02  0.45594000000E+02  0.51100000000E-03 0. -1.
         11   -1    0    0    0    0 -0.00000000000E+00 -0.00000000000E+00 -0.45593999997E+02  0.45594000000E+02  0.51100000000E-03 0.  1.
    9900012    2    1    2    0    0  0.21523470841E+02  0.12624496419E+02  0.19851530267E+02  0.59301937828E+02  0.49999988693E+02 0.  0.
        -12    1    1    2    0    0 -0.21523470841E+02 -0.12624496419E+02 -0.19851530267E+02  0.31886062172E+02  0.00000000000E+00 0.  1.
         11    1    3    3    0    0 -0.44162165749E+01 -0.37513406742E+01  0.51686862645E+01  0.77647178733E+01  0.51100000000E-03 0. -1.
        -11    1    3    3    0    0  0.25382331683E+02  0.78898352744E+00 -0.55466463576E+01  0.25993278799E+02  0.51100000000E-03 0.  1.
        -12    1    3    3    0    0  0.55735573387E+00  0.15586853566E+02  0.20229490360E+02  0.25543941155E+02  0.00000000000E+00 0.  1.
</event>
<event>
 7    1  0.5987893E-013  0.5930195E+02  0.7816164E-02  0.1266605E+00
        -11   -1    0    0    0    0  0.00000000000E+00  0.00000000000E+00  0.45593999997E+02  0.45594000000E+02  0.51100000000E-03 0.  1.
         11   -1    0    0    0    0 -0.00000000000E+00 -0.00000000000E+00 -0.45593999997E+02  0.45594000000E+02  0.51100000000E-03 0. -1.
    9900012    2    1    2    0    0 -0.61980972587E+01 -0.12310769044E+02 -0.28753242480E+02  0.59301946666E+02  0.50000004812E+02 0.  0.
        -12    1    1    2    0    0  0.61980972587E+01  0.12310769044E+02  0.28753242480E+02  0.31886053334E+02  0.00000000000E+00 0.  1.
         11    1    3    3    0    0 -0.41802934444E+01 -0.15856906578E+02 -0.17161505560E+02  0.23736756578E+02  0.51100000000E-03 0. -1.
        -11    1    3    3    0    0 -0.37513963327E+01  0.17669669352E+01  0.11559654136E+02  0.12280910007E+02  0.51100000000E-03 0.  1.
        -12    1    3    3    0    0  0.17335925185E+01  0.17791705983E+01 -0.23151391056E+02  0.23284280081E+02  0.00000000000E+00 0.  1.
</event>
<event>
 7    1  0.5987893E-013  0.5930195E+02  0.7816164E-02  0.1266605E+00
        -11   -1    0    0    0    0  0.00000000000E+00  0.00000000000E+00  0.45593999997E+02  0.45594000000E+02  0.51100000000E-03 0. -1.
         11   -1    0    0    0    0 -0.00000000000E+00 -0.00000000000E+00 -0.45593999997E+02  0.45594000000E+02  0.51100000000E-03 0.  1.
    9900012    2    1    2    0    0 -0.18005818776E+02 -0.65466893992E+01  0.25488266769E+02  0.59301946704E+02  0.50000004881E+02 0.  0.
        -12    1    1    2    0    0  0.18005818776E+02  0.65466893992E+01 -0.25488266769E+02  0.31886053296E+02  0.00000000000E+00 0.  1.
         11    1    3    3    0    0 -0.40309349125E+01  0.20126158476E+02  0.79985219173E+01  0.22029231589E+02  0.51100000000E-03 0. -1.
        -11    1    3    3    0    0 -0.31525502846E+01 -0.16247531274E+02  0.38812685828E+01  0.16999561520E+02  0.51100000000E-03 0.  1.
         12    1    3    3    0    0 -0.10822333579E+02 -0.10425316602E+02  0.13608476269E+02  0.20273153596E+02  0.00000000000E+00 0. -1.
</event>
<event>
 7    1  0.5987893E-013  0.5930192E+02  0.7816164E-02  0.1266605E+00
        -11   -1    0    0    0    0  0.00000000000E+00  0.00000000000E+00  0.45593999997E+02  0.45594000000E+02  0.51100000000E-03 0.  1.
         11   -1    0    0    0    0 -0.00000000000E+00 -0.00000000000E+00 -0.45593999997E+02  0.45594000000E+02  0.51100000000E-03 0. -1.
    9900012    2    1    2    0    0  0.90531243643E+01  0.26732716191E+02 -0.14836603429E+02  0.59301921893E+02  0.49999959632E+02 0.  0.
        -12    1    1    2    0    0 -0.90531243643E+01 -0.26732716191E+02  0.14836603429E+02  0.31886078107E+02  0.00000000000E+00 0.  1.
         11    1    3    3    0    0 -0.10374172405E+02  0.76204300684E+00 -0.16819883209E+02  0.19776567802E+02  0.51100000000E-03 0. -1.
        -11    1    3    3    0    0  0.13153872989E+01  0.30203766681E+01  0.88930902651E+01  0.94836687884E+01  0.51100000000E-03 0.  1.
         12    1    3    3    0    0  0.18111909470E+02  0.22950296517E+02 -0.69098104859E+01  0.30041685302E+02  0.00000000000E+00 0. -1.
</event>
<event>
 7    1  0.5987893E-013  0.5930195E+02  0.7816164E-02  0.1266605E+00
        -11   -1    0    0    0    0  0.00000000000E+00  0.00000000000E+00  0.45593999997E+02  0.45594000000E+02  0.51100000000E-03 0.  1.
         11   -1    0    0    0    0 -0.00000000000E+00 -0.00000000000E+00 -0.45593999997E+02  0.45594000000E+02  0.51100000000E-03 0. -1.
    9900012    2    1    2    0    0 -0.22636888134E+02 -0.33579580341E+01  0.22203960126E+02  0.59301946123E+02  0.50000003822E+02 0.  0.
        -12    1    1    2    0    0  0.22636888134E+02  0.33579580341E+01 -0.22203960126E+02  0.31886053877E+02  0.00000000000E+00 0.  1.
         11    1    3    3    0    0  0.48613044044E+00  0.16025826430E+02 -0.40158729486E+01  0.16528480613E+02  0.51100000000E-03 0. -1.
        -11    1    3    3    0    0 -0.53875360797E+01 -0.12253612797E+02  0.16749109214E+02  0.21440830938E+02  0.51100000000E-03 0.  1.
         12    1    3    3    0    0 -0.17735482495E+02 -0.71301716677E+01  0.94707238600E+01  0.21332634572E+02  0.00000000000E+00 0. -1.
</event>
<event>
 7    1  0.5987893E-013  0.5930197E+02  0.7816164E-02  0.1266605E+00
        -11   -1    0    0    0    0  0.00000000000E+00  0.00000000000E+00  0.45593999997E+02  0.45594000000E+02  0.51100000000E-03 0.  1.
         11   -1    0    0    0    0 -0.00000000000E+00 -0.00000000000E+00 -0.45593999997E+02  0.45594000000E+02  0.51100000000E-03 0. -1.
    9900012    2    1    2    0    0  0.19660934352E+02 -0.57500651149E+01 -0.24435697810E+02  0.59301969895E+02  0.50000047175E+02 0.  0.
        -12    1    1    2    0    0 -0.19660934352E+02  0.57500651149E+01  0.24435697810E+02  0.31886030105E+02  0.00000000000E+00 0.  1.
         11    1    3    3    0    0  0.88189534473E+00 -0.17877447642E+02 -0.23501515100E+02  0.29541531542E+02  0.51100000000E-03 0. -1.
        -11    1    3    3    0    0  0.14186779495E+02  0.13658702024E+02 -0.79493447651E+01  0.21237159318E+02  0.51100000000E-03 0.  1.
        -12    1    3    3    0    0  0.45922595126E+01 -0.15313194974E+01  0.70151620558E+01  0.85232790347E+01  0.00000000000E+00 0.  1.
</event>
<event>
 7    1  0.5987893E-013  0.5930195E+02  0.7816164E-02  0.1266605E+00
        -11   -1    0    0    0    0  0.00000000000E+00  0.00000000000E+00  0.45593999997E+02  0.45594000000E+02  0.51100000000E-03 0. -1.
         11   -1    0    0    0    0 -0.00000000000E+00 -0.00000000000E+00 -0.45593999997E+02  0.45594000000E+02  0.51100000000E-03 0.  1.
    9900012    2    1    2    0    0 -0.25516286293E+01 -0.19348895965E+02  0.25215658349E+02  0.59301952743E+02  0.50000015894E+02 0.  0.
        -12    1    1    2    0    0  0.25516286293E+01  0.19348895965E+02 -0.25215658349E+02  0.31886047257E+02  0.00000000000E+00 0.  1.
         11    1    3    3    0    0  0.10976732561E+02 -0.28725527054E+02  0.20833480341E+02  0.37144023283E+02  0.51100000000E-03 0. -1.
        -11    1    3    3    0    0 -0.11701542400E+02  0.12989504447E+01  0.67152552147E+01  0.13553893155E+02  0.51100000000E-03 0.  1.
         12    1    3    3    0    0 -0.18268187894E+01  0.80776806443E+01 -0.23330772069E+01  0.86040363047E+01  0.00000000000E+00 0. -1.
</event>
<event>
 7    1  0.5987893E-013  0.5930185E+02  0.7816164E-02  0.1266605E+00
        -11   -1    0    0    0    0  0.00000000000E+00  0.00000000000E+00  0.45593999997E+02  0.45594000000E+02  0.51100000000E-03 0. -1.
         11   -1    0    0    0    0 -0.00000000000E+00 -0.00000000000E+00 -0.45593999997E+02  0.45594000000E+02  0.51100000000E-03 0.  1.
    9900012    2    1    2    0    0  0.37722342981E+01 -0.30445847289E+02  0.86917921269E+01  0.59301849102E+02  0.49999826877E+02 0.  0.
        -12    1    1    2    0    0 -0.37722342981E+01  0.30445847289E+02 -0.86917921269E+01  0.31886150898E+02  0.00000000000E+00 0.  1.
         11    1    3    3    0    0 -0.50051193046E+01 -0.39586464801E+02  0.57854106808E+00  0.39905815675E+02  0.51100000000E-03 0. -1.
        -11    1    3    3    0    0  0.98990495803E+01  0.84298585792E+01  0.20179137497E+01  0.13157722995E+02  0.51100000000E-03 0.  1.
         12    1    3    3    0    0 -0.11216959775E+01  0.71075893265E+00  0.60953373091E+01  0.62383104313E+01  0.00000000000E+00 0. -1.
</event>
<event>
 7    1  0.5987893E-013  0.5930195E+02  0.7816164E-02  0.1266605E+00
        -11   -1    0    0    0    0  0.00000000000E+00  0.00000000000E+00  0.45593999997E+02  0.45594000000E+02  0.51100000000E-03 0.  1.
         11   -1    0    0    0    0 -0.00000000000E+00 -0.00000000000E+00 -0.45593999997E+02  0.45594000000E+02  0.51100000000E-03 0. -1.
    9900012    2    1    2    0    0  0.10629457256E+02  0.18241245235E+02  0.23895438542E+02  0.59301947055E+02  0.50000005521E+02 0.  0.
        -12    1    1    2    0    0 -0.10629457256E+02 -0.18241245235E+02 -0.23895438542E+02  0.31886052945E+02  0.00000000000E+00 0.  1.
         11    1    3    3    0    0 -0.75693248772E+01  0.93980959359E+00  0.23882167798E+01  0.79925903697E+01  0.51100000000E-03 0. -1.
        -11    1    3    3    0    0  0.95545731558E+01  0.24059548979E+02 -0.13840142181E+01  0.25924260084E+02  0.51100000000E-03 0.  1.
        -12    1    3    3    0    0  0.86442089770E+01 -0.67581133375E+01  0.22891235981E+02  0.25385096601E+02  0.00000000000E+00 0.  1.
</event>
<event>
 7    1  0.5987893E-013  0.5930181E+02  0.7816164E-02  0.1266605E+00
        -11   -1    0    0    0    0  0.00000000000E+00  0.00000000000E+00  0.45593999997E+02  0.45594000000E+02  0.51100000000E-03 0.  1.
         11   -1    0    0    0    0 -0.00000000000E+00 -0.00000000000E+00 -0.45593999997E+02  0.45594000000E+02  0.51100000000E-03 0. -1.
    9900012    2    1    2    0    0 -0.30966969724E+02 -0.69823823873E+01  0.30036836902E+01  0.59301811871E+02  0.49999758977E+02 0.  0.
        -12    1    1    2    0    0  0.30966969724E+02  0.69823823873E+01 -0.30036836902E+01  0.31886188129E+02  0.00000000000E+00 0.  1.
         11    1    3    3    0    0 -0.13907517933E+02  0.63356925689E+01  0.37719588558E+01  0.15741274703E+02  0.51100000000E-03 0. -1.
        -11    1    3    3    0    0  0.79794221284E+01 -0.16400322725E+02  0.10388016814E+01  0.18268028689E+02  0.51100000000E-03 0.  1.
        -12    1    3    3    0    0 -0.25038873919E+02  0.30822477688E+01 -0.18070768470E+01  0.25292508479E+02  0.00000000000E+00 0.  1.
</event>
<event>
 7    1  0.5987893E-013  0.5930193E+02  0.7816164E-02  0.1266605E+00
        -11   -1    0    0    0    0  0.00000000000E+00  0.00000000000E+00  0.45593999997E+02  0.45594000000E+02  0.51100000000E-03 0. -1.
         11   -1    0    0    0    0 -0.00000000000E+00 -0.00000000000E+00 -0.45593999997E+02  0.45594000000E+02  0.51100000000E-03 0.  1.
    9900012    2    1    2    0    0  0.44882477074E+01 -0.38165842527E+01  0.31337052176E+02  0.59301929030E+02  0.49999972647E+02 0.  0.
        -12    1    1    2    0    0 -0.44882477074E+01  0.38165842527E+01 -0.31337052176E+02  0.31886070970E+02  0.00000000000E+00 0.  1.
         11    1    3    3    0    0 -0.23087492265E+01 -0.23810381181E+02  0.29404636646E+02  0.37906427311E+02  0.51100000000E-03 0. -1.
        -11    1    3    3    0    0  0.36674376952E+01  0.78497169529E+01 -0.24188473016E+00  0.86675639007E+01  0.51100000000E-03 0.  1.
         12    1    3    3    0    0  0.31295592386E+01  0.12144079975E+02  0.21743002603E+01  0.12727937818E+02  0.00000000000E+00 0. -1.
</event>
<event>
 7    1  0.5987893E-013  0.5930194E+02  0.7816164E-02  0.1266605E+00
        -11   -1    0    0    0    0  0.00000000000E+00  0.00000000000E+00  0.45593999997E+02  0.45594000000E+02  0.51100000000E-03 0.  1.
         11   -1    0    0    0    0 -0.00000000000E+00 -0.00000000000E+00 -0.45593999997E+02  0.45594000000E+02  0.51100000000E-03 0. -1.
    9900012    2    1    2    0    0  0.23115755146E+02 -0.21078410397E+02 -0.61711583011E+01  0.59301941673E+02  0.49999995706E+02 0.  0.
        -12    1    1    2    0    0 -0.23115755146E+02  0.21078410397E+02  0.61711583011E+01  0.31886058327E+02  0.00000000000E+00 0.  1.
         11    1    3    3    0    0  0.25342913169E+02  0.15745127943E+01  0.83281023057E+01  0.26722642584E+02  0.51100000000E-03 0. -1.
        -11    1    3    3    0    0 -0.47275196890E+01 -0.12111509217E+02  0.16781026728E+01  0.13109314504E+02  0.51100000000E-03 0.  1.
         12    1    3    3    0    0  0.25003616662E+01 -0.10541413975E+02 -0.16177363280E+02  0.19469984585E+02  0.00000000000E+00 0. -1.
</event>
<event>
 7    1  0.5987893E-013  0.5930213E+02  0.7816164E-02  0.1266604E+00
        -11   -1    0    0    0    0  0.00000000000E+00  0.00000000000E+00  0.45593999997E+02  0.45594000000E+02  0.51100000000E-03 0.  1.
         11   -1    0    0    0    0 -0.00000000000E+00 -0.00000000000E+00 -0.45593999997E+02  0.45594000000E+02  0.51100000000E-03 0. -1.
    9900012    2    1    2    0    0  0.26499584486E+02 -0.93150913323E+00  0.17709126354E+02  0.59302127840E+02  0.50000335228E+02 0.  0.
        -12    1    1    2    0    0 -0.26499584486E+02  0.93150913323E+00 -0.17709126354E+02  0.31885872160E+02  0.00000000000E+00 0.  1.
         11    1    3    3    0    0  0.21544882660E+02  0.61658075519E+01 -0.57344479339E+01  0.23131862116E+02  0.51100000000E-03 0. -1.
        -11    1    3    3    0    0  0.12760246714E+02 -0.12567685830E+02  0.13788455534E+02  0.22602923032E+02  0.51100000000E-03 0.  1.
         12    1    3    3    0    0 -0.78055448878E+01  0.54703691445E+01  0.96551187535E+01  0.13567342692E+02  0.00000000000E+00 0. -1.
</event>
<event>
 7    1  0.5987893E-013  0.5930196E+02  0.7816164E-02  0.1266605E+00
        -11   -1    0    0    0    0  0.00000000000E+00  0.00000000000E+00  0.45593999997E+02  0.45594000000E+02  0.51100000000E-03 0.  1.
         11   -1    0    0    0    0 -0.00000000000E+00 -0.00000000000E+00 -0.45593999997E+02  0.45594000000E+02  0.51100000000E-03 0. -1.
    9900012    2    1    2    0    0  0.20038413687E+02 -0.10215924408E+02 -0.22601250902E+02  0.59301957960E+02  0.50000025410E+02 0.  0.
        -12    1    1    2    0    0 -0.20038413687E+02  0.10215924408E+02  0.22601250902E+02  0.31886042040E+02  0.00000000000E+00 0.  1.
         11    1    3    3    0    0  0.27419890094E+02  0.14803625849E+01  0.31758802681E+01  0.27642866383E+02  0.51100000000E-03 0. -1.
        -11    1    3    3    0    0 -0.37606418972E+01 -0.13687740344E+02 -0.18918477203E+02  0.23651753490E+02  0.51100000000E-03 0.  1.
         12    1    3    3    0    0 -0.36208345095E+01  0.19914533514E+01 -0.68586539674E+01  0.80073380870E+01  0.00000000000E+00 0. -1.
</event>
<event>
 7    1  0.5987893E-013  0.5930195E+02  0.7816164E-02  0.1266605E+00
        -11   -1    0    0    0    0  0.00000000000E+00  0.00000000000E+00  0.45593999997E+02  0.45594000000E+02  0.51100000000E-03 0.  1.
         11   -1    0    0    0    0 -0.00000000000E+00 -0.00000000000E+00 -0.45593999997E+02  0.45594000000E+02  0.51100000000E-03 0. -1.
    9900012    2    1    2    0    0 -0.18961912213E+02  0.38997925817E+00 -0.25632286300E+02  0.59301948197E+02  0.50000007604E+02 0.  0.
        -12    1    1    2    0    0  0.18961912213E+02 -0.38997925817E+00  0.25632286300E+02  0.31886051803E+02  0.00000000000E+00 0.  1.
         11    1    3    3    0    0  0.73274419608E+01  0.21877221485E+01 -0.21018007718E+02  0.22365915643E+02  0.51100000000E-03 0. -1.
        -11    1    3    3    0    0 -0.96138361957E+01  0.70217540197E+01  0.79095706273E+01  0.14293081672E+02  0.51100000000E-03 0.  1.
         12    1    3    3    0    0 -0.16675517979E+02 -0.88194969100E+01 -0.12523849210E+02  0.22642950882E+02  0.00000000000E+00 0. -1.
</event>
<event>
 7    1  0.5987893E-013  0.5930193E+02  0.7816164E-02  0.1266605E+00
        -11   -1    0    0    0    0  0.00000000000E+00  0.00000000000E+00  0.45593999997E+02  0.45594000000E+02  0.51100000000E-03 0. -1.
         11   -1    0    0    0    0 -0.00000000000E+00 -0.00000000000E+00 -0.45593999997E+02  0.45594000000E+02  0.51100000000E-03 0.  1.
    9900012    2    1    2    0    0  0.27868223539E+02  0.19391267917E+01  0.15372804347E+02  0.59301933930E+02  0.49999981585E+02 0.  0.
        -12    1    1    2    0    0 -0.27868223539E+02 -0.19391267917E+01 -0.15372804347E+02  0.31886066070E+02  0.00000000000E+00 0.  1.
         11    1    3    3    0    0  0.18256079291E+02 -0.11815117285E+02  0.18600533907E+02  0.28615752470E+02  0.51100000000E-03 0. -1.
        -11    1    3    3    0    0  0.10747536527E+02  0.92559685415E+01 -0.13395788509E+02  0.19509732060E+02  0.51100000000E-03 0.  1.
         12    1    3    3    0    0 -0.11353922787E+01  0.44982755357E+01  0.10168058948E+02  0.11176449400E+02  0.00000000000E+00 0. -1.
</event>
<event>
 7    1  0.5987893E-013  0.5930197E+02  0.7816164E-02  0.1266605E+00
        -11   -1    0    0    0    0  0.00000000000E+00  0.00000000000E+00  0.45593999997E+02  0.45594000000E+02  0.51100000000E-03 0.  1.
         11   -1    0    0    0    0 -0.00000000000E+00 -0.00000000000E+00 -0.45593999997E+02  0.45594000000E+02  0.51100000000E-03 0. -1.
    9900012    2    1    2    0    0 -0.14236665325E+02 -0.16683522668E+02 -0.23145112440E+02  0.59301971743E+02  0.50000050545E+02 0.  0.
        -12    1    1    2    0    0  0.14236665325E+02  0.16683522668E+02  0.23145112440E+02  0.31886028257E+02  0.00000000000E+00 0.  1.
         11    1    3    3    0    0 -0.20827939888E+02 -0.20851180646E+02 -0.10764307551E+02  0.31375868619E+02  0.51100000000E-03 0. -1.
        -11    1    3    3    0    0  0.13991706713E+02 -0.72642908704E+00 -0.18125391844E+01  0.14127308820E+02  0.51100000000E-03 0.  1.
        -12    1    3    3    0    0 -0.74004321488E+01  0.48940870652E+01 -0.10568265705E+02  0.13798794303E+02  0.00000000000E+00 0.  1.
</event>
<event>
 7    1  0.5987893E-013  0.5930163E+02  0.7816164E-02  0.1266606E+00
        -11   -1    0    0    0    0  0.00000000000E+00  0.00000000000E+00  0.45593999997E+02  0.45594000000E+02  0.51100000000E-03 0.  1.
         11   -1    0    0    0    0 -0.00000000000E+00 -0.00000000000E+00 -0.45593999997E+02  0.45594000000E+02  0.51100000000E-03 0. -1.
    9900012    2    1    2    0    0  0.59247331602E+01  0.28756129523E+02 -0.12438766080E+02  0.59301633795E+02  0.49999434207E+02 0.  0.
        -12    1    1    2    0    0 -0.59247331602E+01 -0.28756129523E+02  0.12438766080E+02  0.31886366205E+02  0.00000000000E+00 0.  1.
         11    1    3    3    0    0 -0.12273186467E+02 -0.40023625388E+01 -0.44938468884E+01  0.13669113799E+02  0.51100000000E-03 0. -1.
        -11    1    3    3    0    0  0.19145476051E+02  0.13255229044E+02  0.26168286016E+01  0.23432843242E+02  0.51100000000E-03 0.  1.
         12    1    3    3    0    0 -0.94755642427E+00  0.19503263018E+02 -0.10561747793E+02  0.22199676754E+02  0.00000000000E+00 0. -1.
</event>
<event>
 7    1  0.5987893E-013  0.5930194E+02  0.7816164E-02  0.1266605E+00
        -11   -1    0    0    0    0  0.00000000000E+00  0.00000000000E+00  0.45593999997E+02  0.45594000000E+02  0.51100000000E-03 0.  1.
         11   -1    0    0    0    0 -0.00000000000E+00 -0.00000000000E+00 -0.45593999997E+02  0.45594000000E+02  0.51100000000E-03 0. -1.
    9900012    2    1    2    0    0 -0.13940119440E+02 -0.15393414901E+02 -0.24195804026E+02  0.59301935884E+02  0.49999985148E+02 0.  0.
        -12    1    1    2    0    0  0.13940119440E+02  0.15393414901E+02  0.24195804026E+02  0.31886064116E+02  0.00000000000E+00 0.  1.
         11    1    3    3    0    0 -0.87086573589E+01  0.14268683650E+01 -0.17765917373E+02  0.19836947515E+02  0.51100000000E-03 0. -1.
        -11    1    3    3    0    0 -0.79773486941E+01 -0.26568736097E+02 -0.53318601987E+00  0.27745632405E+02  0.51100000000E-03 0.  1.
        -12    1    3    3    0    0  0.27458866127E+01  0.97484528303E+01 -0.58967006330E+01  0.11719355965E+02  0.00000000000E+00 0.  1.
</event>
<event>
 7    1  0.5987893E-013  0.5930194E+02  0.7816164E-02  0.1266605E+00
        -11   -1    0    0    0    0  0.00000000000E+00  0.00000000000E+00  0.45593999997E+02  0.45594000000E+02  0.51100000000E-03 0.  1.
         11   -1    0    0    0    0 -0.00000000000E+00 -0.00000000000E+00 -0.45593999997E+02  0.45594000000E+02  0.51100000000E-03 0. -1.
    9900012    2    1    2    0    0  0.54871703912E+01 -0.75266583158E+01 -0.30495263029E+02  0.59301942051E+02  0.49999996395E+02 0.  0.
        -12    1    1    2    0    0 -0.54871703912E+01  0.75266583158E+01  0.30495263029E+02  0.31886057949E+02  0.00000000000E+00 0.  1.
         11    1    3    3    0    0  0.19154294757E+02 -0.11110431624E+02 -0.27026387895E+01  0.22307688253E+02  0.51100000000E-03 0. -1.
        -11    1    3    3    0    0 -0.67622826478E+01  0.61677604466E+01 -0.10014669783E+01  0.92072076062E+01  0.51100000000E-03 0.  1.
         12    1    3    3    0    0 -0.69048417176E+01 -0.25839871386E+01 -0.26791157261E+02  0.27787046192E+02  0.00000000000E+00 0. -1.
</event>
<event>
 7    1  0.5987893E-013  0.5930196E+02  0.7816164E-02  0.1266605E+00
        -11   -1    0    0    0    0  0.00000000000E+00  0.00000000000E+00  0.45593999997E+02  0.45594000000E+02  0.51100000000E-03 0.  1.
         11   -1    0    0    0    0 -0.00000000000E+00 -0.00000000000E+00 -0.45593999997E+02  0.45594000000E+02  0.51100000000E-03 0. -1.
    9900012    2    1    2    0    0 -0.20579083131E+02 -0.24050574628E+02 -0.38458745910E+01  0.59301959892E+02  0.50000028932E+02 0.  0.
        -12    1    1    2    0    0  0.20579083131E+02  0.24050574628E+02  0.38458745910E+01  0.31886040108E+02  0.00000000000E+00 0.  1.
         11    1    3    3    0    0  0.55873603749E+01 -0.20024070233E+02 -0.16059603460E+02  0.26269618349E+02  0.51100000000E-03 0. -1.
        -11    1    3    3    0    0 -0.26665397773E+02 -0.63445002258E+01  0.86319439875E+01  0.28736850537E+02  0.51100000000E-03 0.  1.
         12    1    3    3    0    0  0.49895426748E+00  0.23179958314E+01  0.35817848818E+01  0.42954910051E+01  0.00000000000E+00 0. -1.
</event>
<event>
 7    1  0.5987893E-013  0.5930198E+02  0.7816164E-02  0.1266605E+00
        -11   -1    0    0    0    0  0.00000000000E+00  0.00000000000E+00  0.45593999997E+02  0.45594000000E+02  0.51100000000E-03 0. -1.
         11   -1    0    0    0    0 -0.00000000000E+00 -0.00000000000E+00 -0.45593999997E+02  0.45594000000E+02  0.51100000000E-03 0.  1.
    9900012    2    1    2    0    0 -0.24049712064E+02  0.20599371672E+02  0.37410350175E+01  0.59301982584E+02  0.50000070318E+02 0.  0.
        -12    1    1    2    0    0  0.24049712064E+02 -0.20599371672E+02 -0.37410350175E+01  0.31886017416E+02  0.00000000000E+00 0.  1.
         11    1    3    3    0    0 -0.34248020613E+02  0.24589115344E+02  0.65451115689E+01  0.42666028582E+02  0.51100000000E-03 0. -1.
        -11    1    3    3    0    0  0.48818982684E+01 -0.69387062987E+01 -0.53661362187E+01  0.10038625104E+02  0.51100000000E-03 0.  1.
        -12    1    3    3    0    0  0.53164102808E+01  0.29489626272E+01  0.25620596673E+01  0.65973288980E+01  0.00000000000E+00 0.  1.
</event>
<event>
 7    1  0.5987893E-013  0.5930201E+02  0.7816164E-02  0.1266605E+00
        -11   -1    0    0    0    0  0.00000000000E+00  0.00000000000E+00  0.45593999997E+02  0.45594000000E+02  0.51100000000E-03 0. -1.
         11   -1    0    0    0    0 -0.00000000000E+00 -0.00000000000E+00 -0.45593999997E+02  0.45594000000E+02  0.51100000000E-03 0.  1.
    9900012    2    1    2    0    0  0.77948848233E+01 -0.13557463001E+02  0.27787612944E+02  0.59302008318E+02  0.50000117249E+02 0.  0.
        -12    1    1    2    0    0 -0.77948848233E+01  0.13557463001E+02 -0.27787612944E+02  0.31885991682E+02  0.00000000000E+00 0.  1.
         11    1    3    3    0    0  0.12229941547E+02 -0.17624656102E+02  0.16742748913E+02  0.27212490044E+02  0.51100000000E-03 0. -1.
        -11    1    3    3    0    0 -0.40416031137E+01  0.15607091505E+02  0.15796728874E-01  0.16121913993E+02  0.51100000000E-03 0.  1.
        -12    1    3    3    0    0 -0.39345361021E+00 -0.11539898405E+02  0.11029067302E+02  0.15967604281E+02  0.00000000000E+00 0.  1.
</event>
<event>
 7    1  0.5987893E-013  0.5930194E+02  0.7816164E-02  0.1266605E+00
        -11   -1    0    0    0    0  0.00000000000E+00  0.00000000000E+00  0.45593999997E+02  0.45594000000E+02  0.51100000000E-03 0.  1.
         11   -1    0    0    0    0 -0.00000000000E+00 -0.00000000000E+00 -0.45593999997E+02  0.45594000000E+02  0.51100000000E-03 0. -1.
    9900012    2    1    2    0    0  0.89942290596E+01 -0.18311596317E+02 -0.24505310357E+02  0.59301937971E+02  0.49999988954E+02 0.  0.
        -12    1    1    2    0    0 -0.89942290596E+01  0.18311596317E+02  0.24505310357E+02  0.31886062029E+02  0.00000000000E+00 0.  1.
         11    1    3    3    0    0 -0.10540967982E+00  0.48175773402E+01 -0.83334525987E+01  0.96263490019E+01  0.51100000000E-03 0. -1.
        -11    1    3    3    0    0 -0.67673518090E+01 -0.14399608896E+02  0.92945914214E+01  0.18426481401E+02  0.51100000000E-03 0.  1.
        -12    1    3    3    0    0  0.15866990548E+02 -0.87295647609E+01 -0.25466449180E+02  0.31249107568E+02  0.00000000000E+00 0.  1.
</event>
<event>
 7    1  0.5987893E-013  0.5930200E+02  0.7816164E-02  0.1266605E+00
        -11   -1    0    0    0    0  0.00000000000E+00  0.00000000000E+00  0.45593999997E+02  0.45594000000E+02  0.51100000000E-03 0. -1.
         11   -1    0    0    0    0 -0.00000000000E+00 -0.00000000000E+00 -0.45593999997E+02  0.45594000000E+02  0.51100000000E-03 0.  1.
    9900012    2    1    2    0    0  0.26028340379E+02 -0.18135041900E+02  0.32190926909E+01  0.59302002990E+02  0.50000107532E+02 0.  0.
        -12    1    1    2    0    0 -0.26028340379E+02  0.18135041900E+02 -0.32190926909E+01  0.31885997010E+02  0.00000000000E+00 0.  1.
         11    1    3    3    0    0  0.46886661823E+01  0.16317923942E+02  0.28774995167E+01  0.17220285598E+02  0.51100000000E-03 0. -1.
        -11    1    3    3    0    0  0.49737281886E+01 -0.75496902376E+01 -0.47016654620E+01  0.10190262664E+02  0.51100000000E-03 0.  1.
         12    1    3    3    0    0  0.16365946008E+02 -0.26903275605E+02  0.50432586362E+01  0.31891454728E+02  0.00000000000E+00 0. -1.
</event>
<event>
 7    1  0.5987893E-013  0.5930183E+02  0.7816164E-02  0.1266605E+00
        -11   -1    0    0    0    0  0.00000000000E+00  0.00000000000E+00  0.45593999997E+02  0.45594000000E+02  0.51100000000E-03 0. -1.
         11   -1    0    0    0    0 -0.00000000000E+00 -0.00000000000E+00 -0.45593999997E+02  0.45594000000E+02  0.51100000000E-03 0.  1.
    9900012    2    1    2    0    0 -0.97862924141E+00  0.13058969566E+01  0.31844379644E+02  0.59301833768E+02  0.49999798912E+02 0.  0.
        -12    1    1    2    0    0  0.97862924141E+00 -0.13058969566E+01 -0.31844379644E+02  0.31886166232E+02  0.00000000000E+00 0.  1.
         11    1    3    3    0    0 -0.10484444164E+01 -0.11054523356E+02  0.23945039059E+02  0.26394442940E+02  0.51100000000E-03 0. -1.
        -11    1    3    3    0    0  0.99336526208E+01  0.17599036662E+02  0.20859497843E+01  0.20316366127E+02  0.51100000000E-03 0.  1.
         12    1    3    3    0    0 -0.98638374458E+01 -0.52386163492E+01  0.58133908008E+01  0.12591024701E+02  0.00000000000E+00 0. -1.
</event>
<event>
 7    1  0.5987893E-013  0.5930196E+02  0.7816164E-02  0.1266605E+00
        -11   -1    0    0    0    0  0.00000000000E+00  0.00000000000E+00  0.45593999997E+02  0.45594000000E+02  0.51100000000E-03 0. -1.
         11   -1    0    0    0    0 -0.00000000000E+00 -0.00000000000E+00 -0.45593999997E+02  0.45594000000E+02  0.51100000000E-03 0.  1.
    9900012    2    1    2    0    0 -0.12486654632E+01 -0.30851839397E+02  0.79576426454E+01  0.59301964873E+02  0.50000038017E+02 0.  0.
        -12    1    1    2    0    0  0.12486654632E+01  0.30851839397E+02 -0.79576426454E+01  0.31886035127E+02  0.00000000000E+00 0.  1.
         11    1    3    3    0    0 -0.12433985996E+02 -0.22989342840E+02  0.13288773463E+02  0.29320733149E+02  0.51100000000E-03 0. -1.
        -11    1    3    3    0    0  0.31368788794E+01  0.89608686711E+01 -0.61531620726E+01  0.11313645752E+02  0.51100000000E-03 0.  1.
        -12    1    3    3    0    0  0.80484416538E+01 -0.16823365229E+02  0.82203125443E+00  0.18667585973E+02  0.00000000000E+00 0.  1.
</event>
<event>
 7    1  0.5987893E-013  0.5930195E+02  0.7816164E-02  0.1266605E+00
        -11   -1    0    0    0    0  0.00000000000E+00  0.00000000000E+00  0.45593999997E+02  0.45594000000E+02  0.51100000000E-03 0.  1.
         11   -1    0    0    0    0 -0.00000000000E+00 -0.00000000000E+00 -0.45593999997E+02  0.45594000000E+02  0.51100000000E-03 0. -1.
    9900012    2    1    2    0    0  0.11987796766E+02 -0.29303853818E+02 -0.37811729964E+01  0.59301946793E+02  0.50000005043E+02 0.  0.
        -12    1    1    2    0    0 -0.11987796766E+02  0.29303853818E+02  0.37811729964E+01  0.31886053207E+02  0.00000000000E+00 0.  1.
         11    1    3    3    0    0  0.11618315286E+02 -0.32935177196E+02 -0.66252074986E+01  0.35547215386E+02  0.51100000000E-03 0. -1.
        -11    1    3    3    0    0 -0.26270391235E+01  0.27364713965E+01  0.12783737146E+02  0.13334674572E+02  0.51100000000E-03 0.  1.
         12    1    3    3    0    0  0.29965206039E+01  0.89485198205E+00 -0.99397026439E+01  0.10420056835E+02  0.00000000000E+00 0. -1.
</event>
<event>
 7    1  0.5987893E-013  0.5930191E+02  0.7816164E-02  0.1266605E+00
        -11   -1    0    0    0    0  0.00000000000E+00  0.00000000000E+00  0.45593999997E+02  0.45594000000E+02  0.51100000000E-03 0.  1.
         11   -1    0    0    0    0 -0.00000000000E+00 -0.00000000000E+00 -0.45593999997E+02  0.45594000000E+02  0.51100000000E-03 0. -1.
    9900012    2    1    2    0    0 -0.21926376710E+02 -0.68643895825E+01  0.22109657987E+02  0.59301908734E+02  0.49999935632E+02 0.  0.
        -12    1    1    2    0    0  0.21926376710E+02  0.68643895825E+01 -0.22109657987E+02  0.31886091266E+02  0.00000000000E+00 0.  1.
         11    1    3    3    0    0 -0.17602379773E+02 -0.74805231421E+00  0.28973307422E+02  0.33909525198E+02  0.51100000000E-03 0. -1.
        -11    1    3    3    0    0  0.68712203255E+01  0.30226171498E+01  0.27950142014E+01  0.80101178420E+01  0.51100000000E-03 0.  1.
         12    1    3    3    0    0 -0.11195217262E+02 -0.91389544180E+01 -0.96586636364E+01  0.17382265693E+02  0.00000000000E+00 0. -1.
</event>
<event>
 7    1  0.5987893E-013  0.5930195E+02  0.7816164E-02  0.1266605E+00
        -11   -1    0    0    0    0  0.00000000000E+00  0.00000000000E+00  0.45593999997E+02  0.45594000000E+02  0.51100000000E-03 0.  1.
         11   -1    0    0    0    0 -0.00000000000E+00 -0.00000000000E+00 -0.45593999997E+02  0.45594000000E+02  0.51100000000E-03 0. -1.
    9900012    2    1    2    0    0  0.13223622807E+02  0.52163071891E+01 -0.28542009884E+02  0.59301946794E+02  0.50000005046E+02 0.  0.
        -12    1    1    2    0    0 -0.13223622807E+02 -0.52163071891E+01  0.28542009884E+02  0.31886053206E+02  0.00000000000E+00 0.  1.
         11    1    3    3    0    0 -0.80540842271E+01 -0.51456552164E+01 -0.55782767491E+01  0.11066309778E+02  0.51100000000E-03 0. -1.
        -11    1    3    3    0    0  0.64881542371E+01  0.12848204532E+02 -0.28757394239E+02  0.32158361724E+02  0.51100000000E-03 0.  1.
        -12    1    3    3    0    0  0.14789552797E+02 -0.24862421268E+01  0.57936611044E+01  0.16077275292E+02  0.00000000000E+00 0.  1.
</event>
<event>
 7    1  0.5987893E-013  0.5930192E+02  0.7816164E-02  0.1266605E+00
        -11   -1    0    0    0    0  0.00000000000E+00  0.00000000000E+00  0.45593999997E+02  0.45594000000E+02  0.51100000000E-03 0.  1.
         11   -1    0    0    0    0 -0.00000000000E+00 -0.00000000000E+00 -0.45593999997E+02  0.45594000000E+02  0.51100000000E-03 0. -1.
    9900012    2    1    2    0    0 -0.10443030979E+02  0.21385031584E+02 -0.21221346362E+02  0.59301921325E+02  0.49999958595E+02 0.  0.
        -12    1    1    2    0    0  0.10443030979E+02 -0.21385031584E+02  0.21221346362E+02  0.31886078675E+02  0.00000000000E+00 0.  1.
         11    1    3    3    0    0  0.32984987169E+01  0.15555067566E+02 -0.23282066737E+02  0.28193879700E+02  0.51100000000E-03 0. -1.
        -11    1    3    3    0    0 -0.10201608799E+02  0.83744013319E+01  0.13491657807E+02  0.18874009919E+02  0.51100000000E-03 0.  1.
        -12    1    3    3    0    0 -0.35399208972E+01 -0.25444373142E+01 -0.11430937432E+02  0.12234031706E+02  0.00000000000E+00 0.  1.
</event>
<event>
 7    1  0.5987893E-013  0.5930194E+02  0.7816164E-02  0.1266605E+00
        -11   -1    0    0    0    0  0.00000000000E+00  0.00000000000E+00  0.45593999997E+02  0.45594000000E+02  0.51100000000E-03 0. -1.
         11   -1    0    0    0    0 -0.00000000000E+00 -0.00000000000E+00 -0.45593999997E+02  0.45594000000E+02  0.51100000000E-03 0.  1.
    9900012    2    1    2    0    0 -0.22463667900E+02  0.21270525658E+02 -0.77245892297E+01  0.59301938530E+02  0.49999989974E+02 0.  0.
        -12    1    1    2    0    0  0.22463667900E+02 -0.21270525658E+02  0.77245892297E+01  0.31886061470E+02  0.00000000000E+00 0.  1.
         11    1    3    3    0    0 -0.14316205117E+02  0.20266381894E+02  0.17695771056E+02  0.30476552914E+02  0.51100000000E-03 0. -1.
        -11    1    3    3    0    0  0.46943866259E+00 -0.22811909045E+01 -0.68619856142E+00  0.24279772090E+01  0.51100000000E-03 0.  1.
         12    1    3    3    0    0 -0.86169014457E+01  0.32853346684E+01 -0.24734161724E+02  0.26397408407E+02  0.00000000000E+00 0. -1.
</event>
<event>
 7    1  0.5987893E-013  0.5930202E+02  0.7816164E-02  0.1266604E+00
        -11   -1    0    0    0    0  0.00000000000E+00  0.00000000000E+00  0.45593999997E+02  0.45594000000E+02  0.51100000000E-03 0.  1.
         11   -1    0    0    0    0 -0.00000000000E+00 -0.00000000000E+00 -0.45593999997E+02  0.45594000000E+02  0.51100000000E-03 0. -1.
    9900012    2    1    2    0    0  0.21060523629E+02 -0.23284622349E+02 -0.55674460410E+01  0.59302019556E+02  0.50000137745E+02 0.  0.
        -12    1    1    2    0    0 -0.21060523629E+02  0.23284622349E+02  0.55674460410E+01  0.31885980444E+02  0.00000000000E+00 0.  1.
         11    1    3    3    0    0  0.17053572384E+02 -0.91391322912E+01 -0.36390547659E+01  0.19687325617E+02  0.51100000000E-03 0. -1.
        -11    1    3    3    0    0 -0.36330171900E+00  0.12183455113E+02 -0.40429249863E+01  0.12841877173E+02  0.51100000000E-03 0.  1.
        -12    1    3    3    0    0  0.43702529636E+01 -0.26328945171E+02  0.21145337112E+01  0.26772816766E+02  0.00000000000E+00 0.  1.
</event>
<event>
 7    1  0.5987893E-013  0.5930194E+02  0.7816164E-02  0.1266605E+00
        -11   -1    0    0    0    0  0.00000000000E+00  0.00000000000E+00  0.45593999997E+02  0.45594000000E+02  0.51100000000E-03 0. -1.
         11   -1    0    0    0    0 -0.00000000000E+00 -0.00000000000E+00 -0.45593999997E+02  0.45594000000E+02  0.51100000000E-03 0.  1.
    9900012    2    1    2    0    0  0.22191141431E+01 -0.29898249507E+02  0.10857756219E+02  0.59301942525E+02  0.49999997259E+02 0.  0.
        -12    1    1    2    0    0 -0.22191141431E+01  0.29898249507E+02 -0.10857756219E+02  0.31886057475E+02  0.00000000000E+00 0.  1.
         11    1    3    3    0    0  0.10944914784E+02  0.18270610544E+01  0.16968778568E+02  0.20274830655E+02  0.51100000000E-03 0. -1.
        -11    1    3    3    0    0 -0.13870791970E+02 -0.19759611813E+02 -0.88576414205E+01  0.25715733330E+02  0.51100000000E-03 0.  1.
        -12    1    3    3    0    0  0.51449913296E+01 -0.11965698749E+02  0.27466190718E+01  0.13311378541E+02  0.00000000000E+00 0.  1.
</event>
<event>
 7    1  0.5987893E-013  0.5930197E+02  0.7816164E-02  0.1266605E+00
        -11   -1    0    0    0    0  0.00000000000E+00  0.00000000000E+00  0.45593999997E+02  0.45594000000E+02  0.51100000000E-03 0.  1.
         11   -1    0    0    0    0 -0.00000000000E+00 -0.00000000000E+00 -0.45593999997E+02  0.45594000000E+02  0.51100000000E-03 0. -1.
    9900012    2    1    2    0    0  0.99657548039E+01  0.46171662422E+01 -0.29934668459E+02  0.59301970635E+02  0.50000048524E+02 0.  0.
        -12    1    1    2    0    0 -0.99657548039E+01 -0.46171662422E+01  0.29934668459E+02  0.31886029365E+02  0.00000000000E+00 0.  1.
         11    1    3    3    0    0 -0.72241455895E+00 -0.16718761611E+02 -0.26639527800E+02  0.31459550446E+02  0.51100000000E-03 0. -1.
        -11    1    3    3    0    0  0.15137892494E+01  0.17676784372E+02 -0.15143506278E+01  0.17805996790E+02  0.51100000000E-03 0.  1.
        -12    1    3    3    0    0  0.91743801134E+01  0.36591434817E+01 -0.17807900313E+01  0.10036423398E+02  0.00000000000E+00 0.  1.
</event>
<event>
 7    1  0.5987893E-013  0.5930195E+02  0.7816164E-02  0.1266605E+00
        -11   -1    0    0    0    0  0.00000000000E+00  0.00000000000E+00  0.45593999997E+02  0.45594000000E+02  0.51100000000E-03 0. -1.
         11   -1    0    0    0    0 -0.00000000000E+00 -0.00000000000E+00 -0.45593999997E+02  0.45594000000E+02  0.51100000000E-03 0.  1.
    9900012    2    1    2    0    0 -0.96484167797E-01  0.29936783142E+01  0.31745055142E+02  0.59301953757E+02  0.50000017744E+02 0.  0.
        -12    1    1    2    0    0  0.96484167797E-01 -0.29936783142E+01 -0.31745055142E+02  0.31886046243E+02  0.00000000000E+00 0.  1.
         11    1    3    3    0    0 -0.10893374813E+02  0.60764289173E+01  0.25697402149E+02  0.28564752417E+02  0.51100000000E-03 0. -1.
        -11    1    3    3    0    0  0.18599586229E+02  0.98361383617E+00  0.99445771277E+01  0.21114135516E+02  0.51100000000E-03 0.  1.
         12    1    3    3    0    0 -0.78026955843E+01 -0.40663644392E+01 -0.38969241343E+01  0.96230658234E+01  0.00000000000E+00 0. -1.
</event>
<event>
 7    1  0.5987893E-013  0.5930196E+02  0.7816164E-02  0.1266605E+00
        -11   -1    0    0    0    0  0.00000000000E+00  0.00000000000E+00  0.45593999997E+02  0.45594000000E+02  0.51100000000E-03 0.  1.
         11   -1    0    0    0    0 -0.00000000000E+00 -0.00000000000E+00 -0.45593999997E+02  0.45594000000E+02  0.51100000000E-03 0. -1.
    9900012    2    1    2    0    0  0.21370802692E+02 -0.21652126068E+02 -0.95495394336E+01  0.59301961137E+02  0.50000031203E+02 0.  0.
        -12    1    1    2    0    0 -0.21370802692E+02  0.21652126068E+02  0.95495394336E+01  0.31886038863E+02  0.00000000000E+00 0.  1.
         11    1    3    3    0    0  0.11027297025E+02 -0.17161409858E+02  0.17458003237E+02  0.26849527841E+02  0.51100000000E-03 0. -1.
        -11    1    3    3    0    0 -0.24973776504E+01  0.23546713021E+01 -0.55708108676E+01  0.65433405882E+01  0.51100000000E-03 0.  1.
         12    1    3    3    0    0  0.12840883318E+02 -0.68453875117E+01 -0.21436731803E+02  0.25909092708E+02  0.00000000000E+00 0. -1.
</event>
<event>
 7    1  0.5987893E-013  0.5930195E+02  0.7816164E-02  0.1266605E+00
        -11   -1    0    0    0    0  0.00000000000E+00  0.00000000000E+00  0.45593999997E+02  0.45594000000E+02  0.51100000000E-03 0. -1.
         11   -1    0    0    0    0 -0.00000000000E+00 -0.00000000000E+00 -0.45593999997E+02  0.45594000000E+02  0.51100000000E-03 0.  1.
    9900012    2    1    2    0    0 -0.16807856804E+02 -0.16409406729E+02  0.21562638014E+02  0.59301952304E+02  0.50000015093E+02 0.  0.
        -12    1    1    2    0    0  0.16807856804E+02  0.16409406729E+02 -0.21562638014E+02  0.31886047696E+02  0.00000000000E+00 0.  1.
         11    1    3    3    0    0 -0.11968710017E+01  0.12396658333E+02  0.17644012193E+02  0.21596777643E+02  0.51100000000E-03 0. -1.
        -11    1    3    3    0    0 -0.19427646266E+02 -0.20930391000E+02  0.13707913671E+01  0.28590099267E+02  0.51100000000E-03 0.  1.
         12    1    3    3    0    0  0.38166604633E+01 -0.78756740623E+01  0.25478344538E+01  0.91150753937E+01  0.00000000000E+00 0. -1.
</event>
<event>
 7    1  0.5987893E-013  0.5930195E+02  0.7816164E-02  0.1266605E+00
        -11   -1    0    0    0    0  0.00000000000E+00  0.00000000000E+00  0.45593999997E+02  0.45594000000E+02  0.51100000000E-03 0. -1.
         11   -1    0    0    0    0 -0.00000000000E+00 -0.00000000000E+00 -0.45593999997E+02  0.45594000000E+02  0.51100000000E-03 0.  1.
    9900012    2    1    2    0    0 -0.17231726249E+02 -0.24443181781E+02  0.11059775596E+02  0.59301950365E+02  0.50000011558E+02 0.  0.
        -12    1    1    2    0    0  0.17231726249E+02  0.24443181781E+02 -0.11059775596E+02  0.31886049635E+02  0.00000000000E+00 0.  1.
         11    1    3    3    0    0 -0.19055691450E+02 -0.30480939421E+02  0.10407179909E+01  0.35962343345E+02  0.51100000000E-03 0. -1.
        -11    1    3    3    0    0 -0.89942637434E+01  0.47825285039E+01  0.50113165117E+01  0.11352649586E+02  0.51100000000E-03 0.  1.
         12    1    3    3    0    0  0.10818228944E+02  0.12552291368E+01  0.50077410933E+01  0.11986957435E+02  0.00000000000E+00 0. -1.
</event>
<event>
 7    1  0.5987893E-013  0.5930193E+02  0.7816164E-02  0.1266605E+00
        -11   -1    0    0    0    0  0.00000000000E+00  0.00000000000E+00  0.45593999997E+02  0.45594000000E+02  0.51100000000E-03 0.  1.
         11   -1    0    0    0    0 -0.00000000000E+00 -0.00000000000E+00 -0.45593999997E+02  0.45594000000E+02  0.51100000000E-03 0. -1.
    9900012    2    1    2    0    0 -0.23151039677E+02 -0.21603233076E+02  0.37484932034E+01  0.59301929080E+02  0.49999972738E+02 0.  0.
        -12    1    1    2    0    0  0.23151039677E+02  0.21603233076E+02 -0.37484932034E+01  0.31886070920E+02  0.00000000000E+00 0.  1.
         11    1    3    3    0    0 -0.15355591412E+02 -0.48359032261E+01  0.46947252081E+01  0.16769633051E+02  0.51100000000E-03 0. -1.
        -11    1    3    3    0    0 -0.42617381347E+01 -0.20768140367E+02 -0.15999553751E+02  0.26560568267E+02  0.51100000000E-03 0.  1.
        -12    1    3    3    0    0 -0.35337101298E+01  0.40008105170E+01  0.15053321746E+02  0.15971727761E+02  0.00000000000E+00 0.  1.
</event>
<event>
 7    1  0.5987893E-013  0.5930195E+02  0.7816164E-02  0.1266605E+00
        -11   -1    0    0    0    0  0.00000000000E+00  0.00000000000E+00  0.45593999997E+02  0.45594000000E+02  0.51100000000E-03 0. -1.
         11   -1    0    0    0    0 -0.00000000000E+00 -0.00000000000E+00 -0.45593999997E+02  0.45594000000E+02  0.51100000000E-03 0.  1.
    9900012    2    1    2    0    0 -0.92075604142E+00  0.83432760238E+01  0.30761371803E+02  0.59301952241E+02  0.50000014979E+02 0.  0.
        -12    1    1    2    0    0  0.92075604142E+00 -0.83432760238E+01 -0.30761371803E+02  0.31886047759E+02  0.00000000000E+00 0.  1.
         11    1    3    3    0    0 -0.45033681963E+01 -0.96717777016E+00  0.71059849649E+01  0.84682218046E+01  0.51100000000E-03 0. -1.
        -11    1    3    3    0    0 -0.59415722890E+01 -0.31207363414E+01 -0.10953842534E+02  0.12846320217E+02  0.51100000000E-03 0.  1.
        -12    1    3    3    0    0  0.95241844438E+01  0.12431190135E+02  0.34609229372E+02  0.37987410220E+02  0.00000000000E+00 0.  1.
</event>
<event>
 7    1  0.5987893E-013  0.5930198E+02  0.7816164E-02  0.1266605E+00
        -11   -1    0    0    0    0  0.00000000000E+00  0.00000000000E+00  0.45593999997E+02  0.45594000000E+02  0.51100000000E-03 0.  1.
         11   -1    0    0    0    0 -0.00000000000E+00 -0.00000000000E+00 -0.45593999997E+02  0.45594000000E+02  0.51100000000E-03 0. -1.
    9900012    2    1    2    0    0 -0.12121654025E+01 -0.14067554691E+02 -0.28589385410E+02  0.59301978015E+02  0.50000061985E+02 0.  0.
        -12    1    1    2    0    0  0.12121654025E+01  0.14067554691E+02  0.28589385410E+02  0.31886021985E+02  0.00000000000E+00 0.  1.
         11    1    3    3    0    0 -0.13392673011E+02  0.75974266452E+01 -0.13219045776E+02  0.20293539699E+02  0.51100000000E-03 0. -1.
        -11    1    3    3    0    0  0.18805503449E+01 -0.18560067003E+02  0.18049463524E+01  0.18742208738E+02  0.51100000000E-03 0.  1.
         12    1    3    3    0    0  0.10299957264E+02 -0.31049143323E+01 -0.17175285986E+02  0.20266229578E+02  0.00000000000E+00 0. -1.
</event>
<event>
 7    1  0.5987893E-013  0.5930193E+02  0.7816164E-02  0.1266605E+00
        -11   -1    0    0    0    0  0.00000000000E+00  0.00000000000E+00  0.45593999997E+02  0.45594000000E+02  0.51100000000E-03 0. -1.
         11   -1    0    0    0    0 -0.00000000000E+00 -0.00000000000E+00 -0.45593999997E+02  0.45594000000E+02  0.51100000000E-03 0.  1.
    9900012    2    1    2    0    0 -0.31087351548E+02 -0.20338649971E+01  0.67942179254E+01  0.59301930467E+02  0.49999975268E+02 0.  0.
        -12    1    1    2    0    0  0.31087351548E+02  0.20338649971E+01 -0.67942179254E+01  0.31886069533E+02  0.00000000000E+00 0.  1.
         11    1    3    3    0    0 -0.19292392472E+02  0.72914532591E+01  0.13043042700E+02  0.24402513417E+02  0.51100000000E-03 0. -1.
        -11    1    3    3    0    0  0.18538022229E+01  0.26542665122E+01 -0.14568589790E+02  0.14923991494E+02  0.51100000000E-03 0.  1.
        -12    1    3    3    0    0 -0.13648761298E+02 -0.11979584768E+02  0.83197650155E+01  0.19975425555E+02  0.00000000000E+00 0.  1.
</event>
<event>
 7    1  0.5987893E-013  0.5930182E+02  0.7816164E-02  0.1266605E+00
        -11   -1    0    0    0    0  0.00000000000E+00  0.00000000000E+00  0.45593999997E+02  0.45594000000E+02  0.51100000000E-03 0. -1.
         11   -1    0    0    0    0 -0.00000000000E+00 -0.00000000000E+00 -0.45593999997E+02  0.45594000000E+02  0.51100000000E-03 0.  1.
    9900012    2    1    2    0    0  0.62034475006E+01  0.31258260717E+02 -0.10802795822E+01  0.59301817602E+02  0.49999769429E+02 0.  0.
        -12    1    1    2    0    0 -0.62034475006E+01 -0.31258260717E+02  0.10802795822E+01  0.31886182398E+02  0.00000000000E+00 0.  1.
         11    1    3    3    0    0  0.11032065216E+02 -0.95689950458E+01 -0.23131350038E+01  0.14785896081E+02  0.51100000000E-03 0. -1.
        -11    1    3    3    0    0  0.84657188889E+00  0.37881579755E+02 -0.48836733509E+00  0.37894185195E+02  0.51100000000E-03 0.  1.
         12    1    3    3    0    0 -0.56751896045E+01  0.29456760082E+01  0.17212227567E+01  0.66217363259E+01  0.00000000000E+00 0. -1.
</event>
<event>
 7    1  0.5987893E-013  0.5930195E+02  0.7816164E-02  0.1266605E+00
        -11   -1    0    0    0    0  0.00000000000E+00  0.00000000000E+00  0.45593999997E+02  0.45594000000E+02  0.51100000000E-03 0.  1.
         11   -1    0    0    0    0 -0.00000000000E+00 -0.00000000000E+00 -0.45593999997E+02  0.45594000000E+02  0.51100000000E-03 0. -1.
    9900012    2    1    2    0    0 -0.20837286369E+02 -0.14313991621E+02 -0.19432889496E+02  0.59301952055E+02  0.50000014640E+02 0.  0.
        -12    1    1    2    0    0  0.20837286369E+02  0.14313991621E+02  0.19432889496E+02  0.31886047945E+02  0.00000000000E+00 0.  1.
         11    1    3    3    0    0  0.28563431198E+01  0.35867797863E+01 -0.15974175341E+02  0.16619204654E+02  0.51100000000E-03 0. -1.
        -11    1    3    3    0    0 -0.16402851616E+02 -0.16890601440E+02  0.11356173324E+02  0.26140172742E+02  0.51100000000E-03 0.  1.
        -12    1    3    3    0    0 -0.72907778728E+01 -0.10101699677E+01 -0.14814887479E+02  0.16542574660E+02  0.00000000000E+00 0.  1.
</event>
<event>
 7    1  0.5987893E-013  0.5930190E+02  0.7816164E-02  0.1266605E+00
        -11   -1    0    0    0    0  0.00000000000E+00  0.00000000000E+00  0.45593999997E+02  0.45594000000E+02  0.51100000000E-03 0.  1.
         11   -1    0    0    0    0 -0.00000000000E+00 -0.00000000000E+00 -0.45593999997E+02  0.45594000000E+02  0.51100000000E-03 0. -1.
    9900012    2    1    2    0    0 -0.15011344721E+02 -0.23339498142E+02 -0.15705123767E+02  0.59301897127E+02  0.49999914465E+02 0.  0.
        -12    1    1    2    0    0  0.15011344721E+02  0.23339498142E+02  0.15705123767E+02  0.31886102873E+02  0.00000000000E+00 0.  1.
         11    1    3    3    0    0 -0.16239479629E+01 -0.14651916302E+02 -0.27559383258E+02  0.31254367121E+02  0.51100000000E-03 0. -1.
        -11    1    3    3    0    0 -0.13708306725E+02  0.27392718431E+01  0.68843524018E+01  0.15582541248E+02  0.51100000000E-03 0.  1.
        -12    1    3    3    0    0  0.32090996625E+00 -0.11426853683E+02  0.49699070884E+01  0.12464988759E+02  0.00000000000E+00 0.  1.
</event>
<event>
 7    1  0.5987893E-013  0.5930191E+02  0.7816164E-02  0.1266605E+00
        -11   -1    0    0    0    0  0.00000000000E+00  0.00000000000E+00  0.45593999997E+02  0.45594000000E+02  0.51100000000E-03 0. -1.
         11   -1    0    0    0    0 -0.00000000000E+00 -0.00000000000E+00 -0.45593999997E+02  0.45594000000E+02  0.51100000000E-03 0.  1.
    9900012    2    1    2    0    0  0.14426235782E+02 -0.26241267940E+02  0.10954549686E+02  0.59301912426E+02  0.49999942366E+02 0.  0.
        -12    1    1    2    0    0 -0.14426235782E+02  0.26241267940E+02 -0.10954549686E+02  0.31886087574E+02  0.00000000000E+00 0.  1.
         11    1    3    3    0    0  0.77321234771E+01 -0.29980734845E+02  0.27516943927E+01  0.31083790271E+02  0.51100000000E-03 0. -1.
        -11    1    3    3    0    0 -0.91125186978E+01  0.33693153818E+01  0.77040336237E+01  0.12399291008E+02  0.51100000000E-03 0.  1.
         12    1    3    3    0    0  0.15806631003E+02  0.37015152347E+00  0.49882166993E+00  0.15818831147E+02  0.00000000000E+00 0. -1.
</event>
<event>
 7    1  0.5987893E-013  0.5930195E+02  0.7816164E-02  0.1266605E+00
        -11   -1    0    0    0    0  0.00000000000E+00  0.00000000000E+00  0.45593999997E+02  0.45594000000E+02  0.51100000000E-03 0.  1.
         11   -1    0    0    0    0 -0.00000000000E+00 -0.00000000000E+00 -0.45593999997E+02  0.45594000000E+02  0.51100000000E-03 0. -1.
    9900012    2    1    2    0    0 -0.16648675077E+02  0.19287141863E+02 -0.19171534292E+02  0.59301953676E+02  0.50000017596E+02 0.  0.
        -12    1    1    2    0    0  0.16648675077E+02 -0.19287141863E+02  0.19171534292E+02  0.31886046324E+02  0.00000000000E+00 0.  1.
         11    1    3    3    0    0  0.30378727398E+01 -0.88749160903E+01 -0.17022959824E+02  0.19436408305E+02  0.51100000000E-03 0. -1.
        -11    1    3    3    0    0 -0.77531935237E+01  0.26585312682E+02 -0.26407356439E+01  0.27818417374E+02  0.51100000000E-03 0.  1.
         12    1    3    3    0    0 -0.11933354293E+02  0.15767452718E+01  0.49216117601E+00  0.12047127997E+02  0.00000000000E+00 0. -1.
</event>
<event>
 7    1  0.5987893E-013  0.5930196E+02  0.7816164E-02  0.1266605E+00
        -11   -1    0    0    0    0  0.00000000000E+00  0.00000000000E+00  0.45593999997E+02  0.45594000000E+02  0.51100000000E-03 0. -1.
         11   -1    0    0    0    0 -0.00000000000E+00 -0.00000000000E+00 -0.45593999997E+02  0.45594000000E+02  0.51100000000E-03 0.  1.
    9900012    2    1    2    0    0  0.12232117313E+02  0.28733213807E+02 -0.64418515477E+01  0.59301957270E+02  0.50000024150E+02 0.  0.
        -12    1    1    2    0    0 -0.12232117313E+02 -0.28733213807E+02  0.64418515477E+01  0.31886042730E+02  0.00000000000E+00 0.  1.
         11    1    3    3    0    0  0.15048817499E+02  0.39444087307E+01 -0.16903719514E+02  0.22973049471E+02  0.51100000000E-03 0. -1.
        -11    1    3    3    0    0 -0.12482093261E+02  0.14616204382E+02  0.11256415022E+02  0.22274266814E+02  0.51100000000E-03 0.  1.
         12    1    3    3    0    0  0.96653930750E+01  0.10172600694E+02 -0.79454705559E+00  0.14054640985E+02  0.00000000000E+00 0. -1.
</event>
<event>
 7    1  0.5987893E-013  0.5930184E+02  0.7816164E-02  0.1266605E+00
        -11   -1    0    0    0    0  0.00000000000E+00  0.00000000000E+00  0.45593999997E+02  0.45594000000E+02  0.51100000000E-03 0.  1.
         11   -1    0    0    0    0 -0.00000000000E+00 -0.00000000000E+00 -0.45593999997E+02  0.45594000000E+02  0.51100000000E-03 0. -1.
    9900012    2    1    2    0    0 -0.13825995850E+02  0.13009884525E+02 -0.25618589456E+02  0.59301837134E+02  0.49999805051E+02 0.  0.
        -12    1    1    2    0    0  0.13825995850E+02 -0.13009884525E+02  0.25618589456E+02  0.31886162866E+02  0.00000000000E+00 0.  1.
         11    1    3    3    0    0  0.12795759658E+02  0.79336460319E+01 -0.12341245743E+02  0.19467422822E+02  0.51100000000E-03 0. -1.
        -11    1    3    3    0    0 -0.25519454803E+02 -0.21026810779E+01 -0.17884567310E+02  0.31233340988E+02  0.51100000000E-03 0.  1.
        -12    1    3    3    0    0 -0.11023007053E+01  0.71789195709E+01  0.46072235970E+01  0.86010733239E+01  0.00000000000E+00 0.  1.
</event>
<event>
 7    1  0.5987893E-013  0.5930196E+02  0.7816164E-02  0.1266605E+00
        -11   -1    0    0    0    0  0.00000000000E+00  0.00000000000E+00  0.45593999997E+02  0.45594000000E+02  0.51100000000E-03 0.  1.
         11   -1    0    0    0    0 -0.00000000000E+00 -0.00000000000E+00 -0.45593999997E+02  0.45594000000E+02  0.51100000000E-03 0. -1.
    9900012    2    1    2    0    0  0.83851646026E+01 -0.16632571508E+02 -0.25879842047E+02  0.59301958465E+02  0.50000026331E+02 0.  0.
        -12    1    1    2    0    0 -0.83851646026E+01  0.16632571508E+02  0.25879842047E+02  0.31886041535E+02  0.00000000000E+00 0.  1.
         11    1    3    3    0    0  0.29671629419E+01 -0.75154268014E+01  0.79739023538E+01  0.11352040122E+02  0.51100000000E-03 0.  1.
        -11    1    3    3    0    0  0.50625044010E+01  0.14111719072E+01 -0.36670764875E+02  0.37045449838E+02  0.51100000000E-03 0. -1.
        -12    1    3    3    0    0  0.35549725970E+00 -0.10528316614E+02  0.28170204741E+01  0.10904468505E+02  0.00000000000E+00 0.  1.
</event>
<event>
 7    1  0.5987893E-013  0.5930192E+02  0.7816164E-02  0.1266605E+00
        -11   -1    0    0    0    0  0.00000000000E+00  0.00000000000E+00  0.45593999997E+02  0.45594000000E+02  0.51100000000E-03 0.  1.
         11   -1    0    0    0    0 -0.00000000000E+00 -0.00000000000E+00 -0.45593999997E+02  0.45594000000E+02  0.51100000000E-03 0. -1.
    9900012    2    1    2    0    0 -0.14115168108E+02 -0.13624919112E+02  0.25136545629E+02  0.59301916552E+02  0.49999949890E+02 0.  0.
        -12    1    1    2    0    0  0.14115168108E+02  0.13624919112E+02 -0.25136545629E+02  0.31886083448E+02  0.00000000000E+00 0.  1.
         11    1    3    3    0    0  0.28191758925E+01  0.13854504080E+02  0.14521751993E+01  0.14212805813E+02  0.51100000000E-03 0. -1.
        -11    1    3    3    0    0 -0.18659816259E+02 -0.11960635860E+02  0.99546777214E+01  0.24296937293E+02  0.51100000000E-03 0.  1.
        -12    1    3    3    0    0  0.17254722584E+01 -0.15518787331E+02  0.13729692708E+02  0.20792173446E+02  0.00000000000E+00 0.  1.
</event>
<event>
 7    1  0.5987893E-013  0.5930198E+02  0.7816164E-02  0.1266605E+00
        -11   -1    0    0    0    0  0.00000000000E+00  0.00000000000E+00  0.45593999997E+02  0.45594000000E+02  0.51100000000E-03 0.  1.
         11   -1    0    0    0    0 -0.00000000000E+00 -0.00000000000E+00 -0.45593999997E+02  0.45594000000E+02  0.51100000000E-03 0. -1.
    9900012    2    1    2    0    0  0.43354014228E+01  0.90248105096E+01 -0.30273340949E+02  0.59301982964E+02  0.50000071010E+02 0.  0.
        -12    1    1    2    0    0 -0.43354014228E+01 -0.90248105096E+01  0.30273340949E+02  0.31886017036E+02  0.00000000000E+00 0.  1.
         11    1    3    3    0    0  0.26921613082E+01  0.97070244025E+01 -0.29243865010E+02  0.30930206857E+02  0.51100000000E-03 0. -1.
        -11    1    3    3    0    0  0.63300557948E+01  0.12594623495E+02 -0.20994632551E+01  0.14251382163E+02  0.51100000000E-03 0.  1.
         12    1    3    3    0    0 -0.46868156802E+01 -0.13276837388E+02  0.10699873159E+01  0.14120393943E+02  0.00000000000E+00 0. -1.
</event>
<event>
 7    1  0.5987893E-013  0.5930192E+02  0.7816164E-02  0.1266605E+00
        -11   -1    0    0    0    0  0.00000000000E+00  0.00000000000E+00  0.45593999997E+02  0.45594000000E+02  0.51100000000E-03 0. -1.
         11   -1    0    0    0    0 -0.00000000000E+00 -0.00000000000E+00 -0.45593999997E+02  0.45594000000E+02  0.51100000000E-03 0.  1.
    9900012    2    1    2    0    0 -0.47986798836E+01 -0.19401811099E+02  0.24844804817E+02  0.59301922647E+02  0.49999961007E+02 0.  0.
        -12    1    1    2    0    0  0.47986798836E+01  0.19401811099E+02 -0.24844804817E+02  0.31886077353E+02  0.00000000000E+00 0.  1.
         11    1    3    3    0    0 -0.42376128072E+01 -0.10241329787E+02  0.25519346114E+02  0.27822279282E+02  0.51100000000E-03 0. -1.
        -11    1    3    3    0    0  0.35489166292E+01 -0.60019205461E+01 -0.14839535055E+02  0.16396025750E+02  0.51100000000E-03 0.  1.
        -12    1    3    3    0    0 -0.41099837057E+01 -0.31585607651E+01  0.14164993759E+02  0.15083617615E+02  0.00000000000E+00 0.  1.
</event>
<event>
 7    1  0.5987893E-013  0.5930195E+02  0.7816164E-02  0.1266605E+00
        -11   -1    0    0    0    0  0.00000000000E+00  0.00000000000E+00  0.45593999997E+02  0.45594000000E+02  0.51100000000E-03 0.  1.
         11   -1    0    0    0    0 -0.00000000000E+00 -0.00000000000E+00 -0.45593999997E+02  0.45594000000E+02  0.51100000000E-03 0. -1.
    9900012    2    1    2    0    0  0.21500097127E+02 -0.20293516791E+02 -0.11943161539E+02  0.59301951205E+02  0.50000013089E+02 0.  0.
        -12    1    1    2    0    0 -0.21500097127E+02  0.20293516791E+02  0.11943161539E+02  0.31886048795E+02  0.00000000000E+00 0.  1.
         11    1    3    3    0    0  0.14898945884E+02  0.25276078044E+01 -0.17741051607E+02  0.23304769942E+02  0.51100000000E-03 0. -1.
        -11    1    3    3    0    0 -0.39692610788E+01 -0.13136764860E+02  0.13897561318E+02  0.19531303985E+02  0.51100000000E-03 0.  1.
        -12    1    3    3    0    0  0.10570412322E+02 -0.96843597352E+01 -0.80996712512E+01  0.16465877278E+02  0.00000000000E+00 0.  1.
</event>
<event>
 7    1  0.5987893E-013  0.5930193E+02  0.7816164E-02  0.1266605E+00
        -11   -1    0    0    0    0  0.00000000000E+00  0.00000000000E+00  0.45593999997E+02  0.45594000000E+02  0.51100000000E-03 0.  1.
         11   -1    0    0    0    0 -0.00000000000E+00 -0.00000000000E+00 -0.45593999997E+02  0.45594000000E+02  0.51100000000E-03 0. -1.
    9900012    2    1    2    0    0  0.22767159112E+02  0.20879545013E+02 -0.79007801000E+01  0.59301933134E+02  0.49999980133E+02 0.  0.
        -12    1    1    2    0    0 -0.22767159112E+02 -0.20879545013E+02  0.79007801000E+01  0.31886066866E+02  0.00000000000E+00 0.  1.
         11    1    3    3    0    0  0.30054886860E+02  0.56981096146E+01 -0.12964543340E+02  0.33224148771E+02  0.51100000000E-03 0. -1.
        -11    1    3    3    0    0  0.23990962930E+01  0.12670362981E+02 -0.29839431049E+01  0.13236225965E+02  0.51100000000E-03 0.  1.
         12    1    3    3    0    0 -0.96868240405E+01  0.25110724174E+01  0.80477063444E+01  0.12841558398E+02  0.00000000000E+00 0. -1.
</event>
<event>
 7    1  0.5987893E-013  0.5930189E+02  0.7816164E-02  0.1266605E+00
        -11   -1    0    0    0    0  0.00000000000E+00  0.00000000000E+00  0.45593999997E+02  0.45594000000E+02  0.51100000000E-03 0. -1.
         11   -1    0    0    0    0 -0.00000000000E+00 -0.00000000000E+00 -0.45593999997E+02  0.45594000000E+02  0.51100000000E-03 0.  1.
    9900012    2    1    2    0    0 -0.28529410744E+02  0.74623779601E+01  0.12128867537E+02  0.59301893465E+02  0.49999907786E+02 0.  0.
        -12    1    1    2    0    0  0.28529410744E+02 -0.74623779601E+01 -0.12128867537E+02  0.31886106535E+02  0.00000000000E+00 0.  1.
         11    1    3    3    0    0 -0.10115636170E+02  0.17556029037E+02  0.70134327087E+01  0.21441280030E+02  0.51100000000E-03 0. -1.
        -11    1    3    3    0    0 -0.17181753704E+02 -0.58912872707E+01 -0.10949994154E+02  0.21209014553E+02  0.51100000000E-03 0.  1.
         12    1    3    3    0    0 -0.12320208690E+01 -0.42023638063E+01  0.16065428982E+02  0.16651598883E+02  0.00000000000E+00 0. -1.
</event>
<event>
 7    1  0.5987893E-013  0.5930215E+02  0.7816164E-02  0.1266604E+00
        -11   -1    0    0    0    0  0.00000000000E+00  0.00000000000E+00  0.45593999997E+02  0.45594000000E+02  0.51100000000E-03 0.  1.
         11   -1    0    0    0    0 -0.00000000000E+00 -0.00000000000E+00 -0.45593999997E+02  0.45594000000E+02  0.51100000000E-03 0. -1.
    9900012    2    1    2    0    0  0.82347674769E+01  0.44001240398E+01 -0.30488277928E+02  0.59302147683E+02  0.50000371418E+02 0.  0.
        -12    1    1    2    0    0 -0.82347674769E+01 -0.44001240398E+01  0.30488277928E+02  0.31885852317E+02  0.00000000000E+00 0.  1.
         11    1    3    3    0    0 -0.21309969060E+01  0.15016951791E+02 -0.41254594823E+01  0.15718441561E+02  0.51100000000E-03 0. -1.
        -11    1    3    3    0    0 -0.82775104477E+01 -0.62046956491E+01 -0.21436715533E+02  0.23802273010E+02  0.51100000000E-03 0.  1.
        -12    1    3    3    0    0  0.18643274831E+02 -0.44121321021E+01 -0.49261029120E+01  0.19781433113E+02  0.00000000000E+00 0.  1.
</event>
<event>
 7    1  0.5987893E-013  0.5930198E+02  0.7816164E-02  0.1266605E+00
        -11   -1    0    0    0    0  0.00000000000E+00  0.00000000000E+00  0.45593999997E+02  0.45594000000E+02  0.51100000000E-03 0.  1.
         11   -1    0    0    0    0 -0.00000000000E+00 -0.00000000000E+00 -0.45593999997E+02  0.45594000000E+02  0.51100000000E-03 0. -1.
    9900012    2    1    2    0    0 -0.12473391950E+02  0.17605263911E+02 -0.23477387064E+02  0.59301975985E+02  0.50000058283E+02 0.  0.
        -12    1    1    2    0    0  0.12473391950E+02 -0.17605263911E+02  0.23477387064E+02  0.31886024015E+02  0.00000000000E+00 0.  1.
         11    1    3    3    0    0 -0.15526704540E+02  0.20817829012E+01 -0.30738383256E+02  0.34500153324E+02  0.51100000000E-03 0. -1.
        -11    1    3    3    0    0 -0.28306328246E+01 -0.22166299816E+01  0.47292671890E+01  0.59406985338E+01  0.51100000000E-03 0.  1.
         12    1    3    3    0    0  0.58839454146E+01  0.17740110991E+02  0.25317290027E+01  0.18861124128E+02  0.00000000000E+00 0. -1.
</event>
<event>
 7    1  0.5987893E-013  0.5930193E+02  0.7816164E-02  0.1266605E+00
        -11   -1    0    0    0    0  0.00000000000E+00  0.00000000000E+00  0.45593999997E+02  0.45594000000E+02  0.51100000000E-03 0.  1.
         11   -1    0    0    0    0 -0.00000000000E+00 -0.00000000000E+00 -0.45593999997E+02  0.45594000000E+02  0.51100000000E-03 0. -1.
    9900012    2    1    2    0    0 -0.50440946909E+01 -0.30282897350E+02 -0.86153902932E+01  0.59301926032E+02  0.49999967181E+02 0.  0.
        -12    1    1    2    0    0  0.50440946909E+01  0.30282897350E+02  0.86153902932E+01  0.31886073968E+02  0.00000000000E+00 0.  1.
         11    1    3    3    0    0 -0.17220648817E+02 -0.16139839469E+02 -0.17614384774E+02  0.29450156450E+02  0.51100000000E-03 0. -1.
        -11    1    3    3    0    0  0.47621810360E+01 -0.16163247193E+02  0.12911742968E+02  0.21228330947E+02  0.51100000000E-03 0.  1.
         12    1    3    3    0    0  0.74143730897E+01  0.20201893119E+01 -0.39127484874E+01  0.86234386352E+01  0.00000000000E+00 0. -1.
</event>
<event>
 7    1  0.5987893E-013  0.5930195E+02  0.7816164E-02  0.1266605E+00
        -11   -1    0    0    0    0  0.00000000000E+00  0.00000000000E+00  0.45593999997E+02  0.45594000000E+02  0.51100000000E-03 0.  1.
         11   -1    0    0    0    0 -0.00000000000E+00 -0.00000000000E+00 -0.45593999997E+02  0.45594000000E+02  0.51100000000E-03 0. -1.
    9900012    2    1    2    0    0  0.10132853108E+01 -0.20158195144E+02 -0.24684831311E+02  0.59301945439E+02  0.50000002575E+02 0.  0.
        -12    1    1    2    0    0 -0.10132853108E+01  0.20158195144E+02  0.24684831311E+02  0.31886054561E+02  0.00000000000E+00 0.  1.
         11    1    3    3    0    0  0.33005839207E+01 -0.21169466459E+02 -0.43349258889E+01  0.21859362917E+02  0.51100000000E-03 0. -1.
        -11    1    3    3    0    0 -0.15232251597E+02  0.28614428691E+01 -0.18660431174E+02  0.24257391366E+02  0.51100000000E-03 0.  1.
        -12    1    3    3    0    0  0.12944952987E+02 -0.18501715539E+01 -0.16894742481E+01  0.13185191157E+02  0.00000000000E+00 0.  1.
</event>
<event>
 7    1  0.5987893E-013  0.5930193E+02  0.7816164E-02  0.1266605E+00
        -11   -1    0    0    0    0  0.00000000000E+00  0.00000000000E+00  0.45593999997E+02  0.45594000000E+02  0.51100000000E-03 0. -1.
         11   -1    0    0    0    0 -0.00000000000E+00 -0.00000000000E+00 -0.45593999997E+02  0.45594000000E+02  0.51100000000E-03 0.  1.
    9900012    2    1    2    0    0 -0.26301393781E+02 -0.11483548242E+02 -0.13895554881E+02  0.59301927170E+02  0.49999969256E+02 0.  0.
        -12    1    1    2    0    0  0.26301393781E+02  0.11483548242E+02  0.13895554881E+02  0.31886072830E+02  0.00000000000E+00 0.  1.
         11    1    3    3    0    0  0.11081656259E+02 -0.37592417111E+00 -0.52107930745E+01  0.12251399478E+02  0.51100000000E-03 0. -1.
        -11    1    3    3    0    0 -0.17593616618E+02  0.69703008598E+01 -0.70586416008E+01  0.20197644944E+02  0.51100000000E-03 0.  1.
         12    1    3    3    0    0 -0.19789433422E+02 -0.18077924931E+02 -0.16261202057E+01  0.26852882749E+02  0.00000000000E+00 0. -1.
</event>
<event>
 7    1  0.5987893E-013  0.5930194E+02  0.7816164E-02  0.1266605E+00
        -11   -1    0    0    0    0  0.00000000000E+00  0.00000000000E+00  0.45593999997E+02  0.45594000000E+02  0.51100000000E-03 0.  1.
         11   -1    0    0    0    0 -0.00000000000E+00 -0.00000000000E+00 -0.45593999997E+02  0.45594000000E+02  0.51100000000E-03 0. -1.
    9900012    2    1    2    0    0 -0.30762049523E+02 -0.38264617379E+01 -0.74682810899E+01  0.59301941561E+02  0.49999995502E+02 0.  0.
        -12    1    1    2    0    0  0.30762049523E+02  0.38264617379E+01  0.74682810899E+01  0.31886058439E+02  0.00000000000E+00 0.  1.
         11    1    3    3    0    0 -0.15760491629E+02  0.17630918623E+02 -0.13678367463E+02  0.27319226281E+02  0.51100000000E-03 0. -1.
        -11    1    3    3    0    0  0.14370950332E+01 -0.12114825059E+02  0.44776025505E+01  0.12995505116E+02  0.51100000000E-03 0.  1.
         12    1    3    3    0    0 -0.16438652928E+02 -0.93425553016E+01  0.17324838231E+01  0.18987210165E+02  0.00000000000E+00 0. -1.
</event>
<event>
 7    1  0.5987893E-013  0.5930171E+02  0.7816164E-02  0.1266606E+00
        -11   -1    0    0    0    0  0.00000000000E+00  0.00000000000E+00  0.45593999997E+02  0.45594000000E+02  0.51100000000E-03 0.  1.
         11   -1    0    0    0    0 -0.00000000000E+00 -0.00000000000E+00 -0.45593999997E+02  0.45594000000E+02  0.51100000000E-03 0. -1.
    9900012    2    1    2    0    0  0.20192885955E+02  0.23798720297E+02 -0.65271545129E+01  0.59301710203E+02  0.49999573558E+02 0.  0.
        -12    1    1    2    0    0 -0.20192885955E+02 -0.23798720297E+02  0.65271545129E+01  0.31886289797E+02  0.00000000000E+00 0.  1.
         11    1    3    3    0    0 -0.11617503678E+02  0.13964578368E+02 -0.12948571336E+02  0.22307876201E+02  0.51100000000E-03 0. -1.
        -11    1    3    3    0    0  0.83069380723E+01 -0.39160196136E+01  0.11100210391E+01  0.92505446715E+01  0.51100000000E-03 0.  1.
         12    1    3    3    0    0  0.23503451560E+02  0.13750161543E+02  0.53113957838E+01  0.27743289330E+02  0.00000000000E+00 0. -1.
</event>
<event>
 7    1  0.5987893E-013  0.5930197E+02  0.7816164E-02  0.1266605E+00
        -11   -1    0    0    0    0  0.00000000000E+00  0.00000000000E+00  0.45593999997E+02  0.45594000000E+02  0.51100000000E-03 0. -1.
         11   -1    0    0    0    0 -0.00000000000E+00 -0.00000000000E+00 -0.45593999997E+02  0.45594000000E+02  0.51100000000E-03 0.  1.
    9900012    2    1    2    0    0 -0.14032899189E+02 -0.23116101686E+02  0.16895036136E+02  0.59301973862E+02  0.50000054411E+02 0.  0.
        -12    1    1    2    0    0  0.14032899189E+02  0.23116101686E+02 -0.16895036136E+02  0.31886026138E+02  0.00000000000E+00 0.  1.
         11    1    3    3    0    0 -0.24822411559E+02 -0.66184029290E+01  0.95931539838E+01  0.27422326242E+02  0.51100000000E-03 0. -1.
        -11    1    3    3    0    0  0.14840140802E+02 -0.45427752275E+01 -0.27275059078E+01  0.15757724281E+02  0.51100000000E-03 0.  1.
         12    1    3    3    0    0 -0.40506284319E+01 -0.11954923530E+02  0.10029388060E+02  0.16121923339E+02  0.00000000000E+00 0. -1.
</event>
<event>
 7    1  0.5987893E-013  0.5930197E+02  0.7816164E-02  0.1266605E+00
        -11   -1    0    0    0    0  0.00000000000E+00  0.00000000000E+00  0.45593999997E+02  0.45594000000E+02  0.51100000000E-03 0.  1.
         11   -1    0    0    0    0 -0.00000000000E+00 -0.00000000000E+00 -0.45593999997E+02  0.45594000000E+02  0.51100000000E-03 0. -1.
    9900012    2    1    2    0    0  0.14908595293E+02 -0.31571259539E+01 -0.28008660528E+02  0.59301972928E+02  0.50000052707E+02 0.  0.
        -12    1    1    2    0    0 -0.14908595293E+02  0.31571259539E+01  0.28008660528E+02  0.31886027072E+02  0.00000000000E+00 0.  1.
         11    1    3    3    0    0  0.25591262526E+02 -0.67978252061E+01 -0.32070222761E+02  0.41588728442E+02  0.51100000000E-03 0. -1.
        -11    1    3    3    0    0 -0.10703006721E+01  0.40297021491E+00  0.70476390343E+01  0.71398280610E+01  0.51100000000E-03 0.  1.
         12    1    3    3    0    0 -0.96123665616E+01  0.32377290373E+01 -0.29860768016E+01  0.10573416425E+02  0.00000000000E+00 0. -1.
</event>
<event>
 7    1  0.5987893E-013  0.5930190E+02  0.7816164E-02  0.1266605E+00
        -11   -1    0    0    0    0  0.00000000000E+00  0.00000000000E+00  0.45593999997E+02  0.45594000000E+02  0.51100000000E-03 0.  1.
         11   -1    0    0    0    0 -0.00000000000E+00 -0.00000000000E+00 -0.45593999997E+02  0.45594000000E+02  0.51100000000E-03 0. -1.
    9900012    2    1    2    0    0  0.22218350529E+02  0.16721657415E+02 -0.15603035942E+02  0.59301895542E+02  0.49999911573E+02 0.  0.
        -12    1    1    2    0    0 -0.22218350529E+02 -0.16721657415E+02  0.15603035942E+02  0.31886104458E+02  0.00000000000E+00 0.  1.
         11    1    3    3    0    0  0.71327570637E+01  0.33120728080E+02 -0.14056431461E+02  0.36680268777E+02  0.51100000000E-03 0. -1.
        -11    1    3    3    0    0  0.11984799625E+02 -0.14640867473E+02 -0.20098152875E+01  0.19027080179E+02  0.51100000000E-03 0.  1.
         12    1    3    3    0    0  0.31007938402E+01 -0.17582031921E+01  0.46321080600E+00  0.35945465855E+01  0.00000000000E+00 0. -1.
</event>
<event>
 7    1  0.5987893E-013  0.5930191E+02  0.7816164E-02  0.1266605E+00
        -11   -1    0    0    0    0  0.00000000000E+00  0.00000000000E+00  0.45593999997E+02  0.45594000000E+02  0.51100000000E-03 0. -1.
         11   -1    0    0    0    0 -0.00000000000E+00 -0.00000000000E+00 -0.45593999997E+02  0.45594000000E+02  0.51100000000E-03 0.  1.
    9900012    2    1    2    0    0  0.10707601255E+02  0.25695066825E+02 -0.15550988294E+02  0.59301914936E+02  0.49999946944E+02 0.  0.
        -12    1    1    2    0    0 -0.10707601255E+02 -0.25695066825E+02  0.15550988294E+02  0.31886085064E+02  0.00000000000E+00 0.  1.
         11    1    3    3    0    0  0.42921984230E+01  0.13650747779E+02 -0.69509727149E+01  0.15908548148E+02  0.51100000000E-03 0. -1.
        -11    1    3    3    0    0 -0.11989437653E+02 -0.46496903715E+01 -0.12855803018E+02  0.18183451468E+02  0.51100000000E-03 0.  1.
        -12    1    3    3    0    0  0.18404840485E+02  0.16694009418E+02  0.42557874395E+01  0.25209915320E+02  0.00000000000E+00 0.  1.
</event>
<event>
 7    1  0.5987893E-013  0.5930193E+02  0.7816164E-02  0.1266605E+00
        -11   -1    0    0    0    0  0.00000000000E+00  0.00000000000E+00  0.45593999997E+02  0.45594000000E+02  0.51100000000E-03 0.  1.
         11   -1    0    0    0    0 -0.00000000000E+00 -0.00000000000E+00 -0.45593999997E+02  0.45594000000E+02  0.51100000000E-03 0. -1.
    9900012    2    1    2    0    0 -0.15724377404E+02 -0.20480160359E+01 -0.27663528469E+02  0.59301933736E+02  0.49999981231E+02 0.  0.
        -12    1    1    2    0    0  0.15724377404E+02  0.20480160359E+01  0.27663528469E+02  0.31886066264E+02  0.00000000000E+00 0.  1.
         11    1    3    3    0    0  0.66222878396E+01  0.84970231665E+01 -0.19584448532E+02  0.22351839376E+02  0.51100000000E-03 0. -1.
        -11    1    3    3    0    0 -0.20258702511E+02 -0.15771686278E+02  0.16319471941E+01  0.25725947357E+02  0.51100000000E-03 0.  1.
        -12    1    3    3    0    0 -0.20879627323E+01  0.52266470759E+01 -0.97110271307E+01  0.11224147004E+02  0.00000000000E+00 0.  1.
</event>
<event>
 7    1  0.5987893E-013  0.5930194E+02  0.7816164E-02  0.1266605E+00
        -11   -1    0    0    0    0  0.00000000000E+00  0.00000000000E+00  0.45593999997E+02  0.45594000000E+02  0.51100000000E-03 0.  1.
         11   -1    0    0    0    0 -0.00000000000E+00 -0.00000000000E+00 -0.45593999997E+02  0.45594000000E+02  0.51100000000E-03 0. -1.
    9900012    2    1    2    0    0  0.49027993525E+01  0.19076480323E+02 -0.25075308657E+02  0.59301942746E+02  0.49999997662E+02 0.  0.
        -12    1    1    2    0    0 -0.49027993525E+01 -0.19076480323E+02  0.25075308657E+02  0.31886057254E+02  0.00000000000E+00 0.  1.
         11    1    3    3    0    0  0.94428754215E+01  0.22911966835E+02 -0.29587250559E+02  0.38594449295E+02  0.51100000000E-03 0. -1.
        -11    1    3    3    0    0 -0.30495486536E+01 -0.10627933551E+02 -0.19349210054E+01  0.11224822409E+02  0.51100000000E-03 0.  1.
         12    1    3    3    0    0 -0.14905274154E+01  0.67924470384E+01  0.64468629074E+01  0.94826710421E+01  0.00000000000E+00 0. -1.
</event>
<event>
 7    1  0.5987893E-013  0.5930193E+02  0.7816164E-02  0.1266605E+00
        -11   -1    0    0    0    0  0.00000000000E+00  0.00000000000E+00  0.45593999997E+02  0.45594000000E+02  0.51100000000E-03 0. -1.
         11   -1    0    0    0    0 -0.00000000000E+00 -0.00000000000E+00 -0.45593999997E+02  0.45594000000E+02  0.51100000000E-03 0.  1.
    9900012    2    1    2    0    0  0.30948655600E+01  0.31698325184E+02 -0.15360949252E+01  0.59301927807E+02  0.49999970417E+02 0.  0.
        -12    1    1    2    0    0 -0.30948655600E+01 -0.31698325184E+02  0.15360949252E+01  0.31886072193E+02  0.00000000000E+00 0.  1.
         11    1    3    3    0    0  0.16518755662E+02  0.34313449867E+02 -0.65751952342E+01  0.38646025967E+02  0.51100000000E-03 0. -1.
        -11    1    3    3    0    0 -0.79018045069E+00 -0.18191798302E+01 -0.44258269125E+01  0.48499221148E+01  0.51100000000E-03 0.  1.
         12    1    3    3    0    0 -0.12633709651E+02 -0.79594485299E+00  0.94649272215E+01  0.15805979725E+02  0.00000000000E+00 0. -1.
</event>
<event>
 7    1  0.5987893E-013  0.5930193E+02  0.7816164E-02  0.1266605E+00
        -11   -1    0    0    0    0  0.00000000000E+00  0.00000000000E+00  0.45593999997E+02  0.45594000000E+02  0.51100000000E-03 0. -1.
         11   -1    0    0    0    0 -0.00000000000E+00 -0.00000000000E+00 -0.45593999997E+02  0.45594000000E+02  0.51100000000E-03 0.  1.
    9900012    2    1    2    0    0 -0.52880098179E+01  0.26224571315E+02  0.17350219260E+02  0.59301932558E+02  0.49999979083E+02 0.  0.
        -12    1    1    2    0    0  0.52880098179E+01 -0.26224571315E+02 -0.17350219260E+02  0.31886067442E+02  0.00000000000E+00 0.  1.
         11    1    3    3    0    0  0.13420583883E+02  0.16222568651E+02  0.55484044383E+01  0.21773116393E+02  0.51100000000E-03 0. -1.
        -11    1    3    3    0    0 -0.63206312557E+01 -0.63676467201E+01  0.14265984772E+02  0.16852763156E+02  0.51100000000E-03 0.  1.
        -12    1    3    3    0    0 -0.12387962445E+02  0.16369649385E+02 -0.24641699502E+01  0.20676053009E+02  0.00000000000E+00 0.  1.
</event>
<event>
 7    1  0.5987893E-013  0.5930198E+02  0.7816164E-02  0.1266605E+00
        -11   -1    0    0    0    0  0.00000000000E+00  0.00000000000E+00  0.45593999997E+02  0.45594000000E+02  0.51100000000E-03 0.  1.
         11   -1    0    0    0    0 -0.00000000000E+00 -0.00000000000E+00 -0.45593999997E+02  0.45594000000E+02  0.51100000000E-03 0. -1.
    9900012    2    1    2    0    0  0.17683469789E+02 -0.16898653279E+02 -0.20456012749E+02  0.59301983566E+02  0.50000072108E+02 0.  0.
        -12    1    1    2    0    0 -0.17683469789E+02  0.16898653279E+02  0.20456012749E+02  0.31886016434E+02  0.00000000000E+00 0.  1.
         11    1    3    3    0    0  0.42773713213E+00 -0.86549778078E+01 -0.14954581766E+02  0.17283839734E+02  0.51100000000E-03 0. -1.
        -11    1    3    3    0    0  0.27920648118E+02  0.29572574213E+00 -0.25322340483E+01  0.28036801789E+02  0.51100000000E-03 0.  1.
        -12    1    3    3    0    0 -0.10664915460E+02 -0.85394012137E+01 -0.29691969351E+01  0.13981342042E+02  0.00000000000E+00 0.  1.
</event>
<event>
 7    1  0.5987893E-013  0.5930193E+02  0.7816164E-02  0.1266605E+00
        -11   -1    0    0    0    0  0.00000000000E+00  0.00000000000E+00  0.45593999997E+02  0.45594000000E+02  0.51100000000E-03 0.  1.
         11   -1    0    0    0    0 -0.00000000000E+00 -0.00000000000E+00 -0.45593999997E+02  0.45594000000E+02  0.51100000000E-03 0. -1.
    9900012    2    1    2    0    0  0.17887898384E+02 -0.91408586742E+01 -0.24762659300E+02  0.59301929350E+02  0.49999973232E+02 0.  0.
        -12    1    1    2    0    0 -0.17887898384E+02  0.91408586742E+01  0.24762659300E+02  0.31886070650E+02  0.00000000000E+00 0.  1.
         11    1    3    3    0    0  0.25509228447E+02 -0.22112197467E+02 -0.24051530555E+02  0.41450526354E+02  0.51100000000E-03 0. -1.
        -11    1    3    3    0    0 -0.88529755538E+00  0.10507204218E+02  0.59350649062E+00  0.10561124109E+02  0.51100000000E-03 0.  1.
         12    1    3    3    0    0 -0.67360325078E+01  0.24641345749E+01 -0.13046352353E+01  0.72902788867E+01  0.00000000000E+00 0. -1.
</event>
<event>
 7    1  0.5987893E-013  0.5930193E+02  0.7816164E-02  0.1266605E+00
        -11   -1    0    0    0    0  0.00000000000E+00  0.00000000000E+00  0.45593999997E+02  0.45594000000E+02  0.51100000000E-03 0.  1.
         11   -1    0    0    0    0 -0.00000000000E+00 -0.00000000000E+00 -0.45593999997E+02  0.45594000000E+02  0.51100000000E-03 0. -1.
    9900012    2    1    2    0    0 -0.25697232533E+02 -0.13856304682E+01 -0.18826936277E+02  0.59301933118E+02  0.49999980103E+02 0.  0.
        -12    1    1    2    0    0  0.25697232533E+02  0.13856304682E+01  0.18826936277E+02  0.31886066882E+02  0.00000000000E+00 0.  1.
         11    1    3    3    0    0 -0.89344546596E+01 -0.44439390007E+01 -0.13675729366E+02  0.16929224668E+02  0.51100000000E-03 0. -1.
        -11    1    3    3    0    0 -0.24786016064E+02  0.47924680970E+00  0.86038205671E+01  0.26241227075E+02  0.51100000000E-03 0.  1.
        -12    1    3    3    0    0  0.80232381905E+01  0.25790617228E+01 -0.13755027478E+02  0.16131481375E+02  0.00000000000E+00 0.  1.
</event>
<event>
 7    1  0.5987893E-013  0.5930195E+02  0.7816164E-02  0.1266605E+00
        -11   -1    0    0    0    0  0.00000000000E+00  0.00000000000E+00  0.45593999997E+02  0.45594000000E+02  0.51100000000E-03 0.  1.
         11   -1    0    0    0    0 -0.00000000000E+00 -0.00000000000E+00 -0.45593999997E+02  0.45594000000E+02  0.51100000000E-03 0. -1.
    9900012    2    1    2    0    0 -0.77346334770E+01 -0.76115857974E+01 -0.29982652329E+02  0.59301949224E+02  0.50000009477E+02 0.  0.
        -12    1    1    2    0    0  0.77346334770E+01  0.76115857974E+01  0.29982652329E+02  0.31886050776E+02  0.00000000000E+00 0.  1.
         11    1    3    3    0    0 -0.65753034909E+01 -0.11293344141E+02 -0.85552312160E+01  0.15619418021E+02  0.51100000000E-03 0. -1.
        -11    1    3    3    0    0  0.16549259864E+02  0.87454176962E+01 -0.59980459096E+01  0.19655454401E+02  0.51100000000E-03 0.  1.
        -12    1    3    3    0    0 -0.17708589850E+02 -0.50636593527E+01 -0.15429375204E+02  0.24027076803E+02  0.00000000000E+00 0.  1.
</event>
<event>
 7    1  0.5987893E-013  0.5930195E+02  0.7816164E-02  0.1266605E+00
        -11   -1    0    0    0    0  0.00000000000E+00  0.00000000000E+00  0.45593999997E+02  0.45594000000E+02  0.51100000000E-03 0.  1.
         11   -1    0    0    0    0 -0.00000000000E+00 -0.00000000000E+00 -0.45593999997E+02  0.45594000000E+02  0.51100000000E-03 0. -1.
    9900012    2    1    2    0    0 -0.12506634727E+02  0.66420421325E+01 -0.28569000308E+02  0.59301946396E+02  0.50000004318E+02 0.  0.
        -12    1    1    2    0    0  0.12506634727E+02 -0.66420421325E+01  0.28569000308E+02  0.31886053604E+02  0.00000000000E+00 0.  1.
         11    1    3    3    0    0  0.13071546732E+01 -0.21253281706E+01 -0.38427837970E+00  0.25245481391E+01  0.51100000000E-03 0. -1.
        -11    1    3    3    0    0 -0.10182035535E+02  0.23610327594E+02 -0.11682240869E+01  0.25738806586E+02  0.51100000000E-03 0.  1.
        -12    1    3    3    0    0 -0.36317538652E+01 -0.14842957291E+02 -0.27016497841E+02  0.31038591670E+02  0.00000000000E+00 0.  1.
</event>
<event>
 7    1  0.5987893E-013  0.5930191E+02  0.7816164E-02  0.1266605E+00
        -11   -1    0    0    0    0  0.00000000000E+00  0.00000000000E+00  0.45593999997E+02  0.45594000000E+02  0.51100000000E-03 0. -1.
         11   -1    0    0    0    0 -0.00000000000E+00 -0.00000000000E+00 -0.45593999997E+02  0.45594000000E+02  0.51100000000E-03 0.  1.
    9900012    2    1    2    0    0  0.13652555194E+01  0.19903288379E+02  0.24874037645E+02  0.59301912757E+02  0.49999942970E+02 0.  0.
        -12    1    1    2    0    0 -0.13652555194E+01 -0.19903288379E+02 -0.24874037645E+02  0.31886087243E+02  0.00000000000E+00 0.  1.
         11    1    3    3    0    0  0.10553879025E+02  0.75240266452E+01  0.14589877114E+02  0.19515631015E+02  0.51100000000E-03 0. -1.
        -11    1    3    3    0    0 -0.16309600996E+02 -0.55055717564E+01 -0.13948053635E+01  0.17270202294E+02  0.51100000000E-03 0.  1.
        -12    1    3    3    0    0  0.71209774902E+01  0.17884833490E+02  0.11678965894E+02  0.22516079448E+02  0.00000000000E+00 0.  1.
</event>
<event>
 7    1  0.5987893E-013  0.5930192E+02  0.7816164E-02  0.1266605E+00
        -11   -1    0    0    0    0  0.00000000000E+00  0.00000000000E+00  0.45593999997E+02  0.45594000000E+02  0.51100000000E-03 0.  1.
         11   -1    0    0    0    0 -0.00000000000E+00 -0.00000000000E+00 -0.45593999997E+02  0.45594000000E+02  0.51100000000E-03 0. -1.
    9900012    2    1    2    0    0  0.75524265201E+01  0.28127655204E+02 -0.12981449033E+02  0.59301919140E+02  0.49999954611E+02 0.  0.
        -12    1    1    2    0    0 -0.75524265201E+01 -0.28127655204E+02  0.12981449033E+02  0.31886080860E+02  0.00000000000E+00 0.  1.
         11    1    3    3    0    0 -0.93493105241E+01  0.89315122439E+00 -0.15062681699E+02  0.17750822702E+02  0.51100000000E-03 0. -1.
        -11    1    3    3    0    0  0.22171171615E+02  0.15320688872E+02  0.66289903319E+01  0.27752979505E+02  0.51100000000E-03 0.  1.
        -12    1    3    3    0    0 -0.52694345709E+01  0.11913815107E+02 -0.45477576662E+01  0.13798116933E+02  0.00000000000E+00 0.  1.
</event>
<event>
 7    1  0.5987893E-013  0.5930196E+02  0.7816164E-02  0.1266605E+00
        -11   -1    0    0    0    0  0.00000000000E+00  0.00000000000E+00  0.45593999997E+02  0.45594000000E+02  0.51100000000E-03 0.  1.
         11   -1    0    0    0    0 -0.00000000000E+00 -0.00000000000E+00 -0.45593999997E+02  0.45594000000E+02  0.51100000000E-03 0. -1.
    9900012    2    1    2    0    0 -0.12707326743E+02 -0.67345914326E+01 -0.28458538674E+02  0.59301963900E+02  0.50000036242E+02 0.  0.
        -12    1    1    2    0    0  0.12707326743E+02  0.67345914326E+01  0.28458538674E+02  0.31886036100E+02  0.00000000000E+00 0.  1.
         11    1    3    3    0    0 -0.21497084903E+02 -0.11095259263E+02 -0.36154386231E+02  0.43501368730E+02  0.51100000000E-03 0. -1.
        -11    1    3    3    0    0  0.44501711171E+01 -0.19029853289E+01  0.64739976639E+01  0.80831938086E+01  0.51100000000E-03 0.  1.
         12    1    3    3    0    0  0.43395870428E+01  0.62636531595E+01  0.12218498924E+01  0.77174013608E+01  0.00000000000E+00 0. -1.
</event>
<event>
 7    1  0.5987893E-013  0.5930195E+02  0.7816164E-02  0.1266605E+00
        -11   -1    0    0    0    0  0.00000000000E+00  0.00000000000E+00  0.45593999997E+02  0.45594000000E+02  0.51100000000E-03 0.  1.
         11   -1    0    0    0    0 -0.00000000000E+00 -0.00000000000E+00 -0.45593999997E+02  0.45594000000E+02  0.51100000000E-03 0. -1.
    9900012    2    1    2    0    0 -0.58817400347E+00  0.16661324090E+02 -0.27180409095E+02  0.59301948071E+02  0.50000007374E+02 0.  0.
        -12    1    1    2    0    0  0.58817400347E+00 -0.16661324090E+02  0.27180409095E+02  0.31886051929E+02  0.00000000000E+00 0.  1.
         11    1    3    3    0    0 -0.25514375297E+01  0.41383956799E+01 -0.13687294726E+01  0.50507002388E+01  0.51100000000E-03 0. -1.
        -11    1    3    3    0    0  0.23882271292E+02  0.44043136457E+01 -0.14491223194E+02  0.28279964828E+02  0.51100000000E-03 0.  1.
        -12    1    3    3    0    0 -0.21919007766E+02  0.81186147639E+01 -0.11320456428E+02  0.25971283004E+02  0.00000000000E+00 0.  1.
</event>
<event>
 7    1  0.5987893E-013  0.5930197E+02  0.7816164E-02  0.1266605E+00
        -11   -1    0    0    0    0  0.00000000000E+00  0.00000000000E+00  0.45593999997E+02  0.45594000000E+02  0.51100000000E-03 0.  1.
         11   -1    0    0    0    0 -0.00000000000E+00 -0.00000000000E+00 -0.45593999997E+02  0.45594000000E+02  0.51100000000E-03 0. -1.
    9900012    2    1    2    0    0 -0.10837003237E+02  0.63860532438E+01 -0.29300114820E+02  0.59301967891E+02  0.50000043522E+02 0.  0.
        -12    1    1    2    0    0  0.10837003237E+02 -0.63860532438E+01  0.29300114820E+02  0.31886032109E+02  0.00000000000E+00 0.  1.
         11    1    3    3    0    0  0.59982196812E+01 -0.84649194397E+01 -0.60542492294E+01  0.12011970465E+02  0.51100000000E-03 0. -1.
        -11    1    3    3    0    0 -0.18437297117E+02  0.11207124307E+02 -0.31468282305E+02  0.38154768400E+02  0.51100000000E-03 0.  1.
         12    1    3    3    0    0  0.16020741984E+01  0.36438483765E+01  0.82224167146E+01  0.91352290259E+01  0.00000000000E+00 0. -1.
</event>
<event>
 7    1  0.5987893E-013  0.5930187E+02  0.7816164E-02  0.1266605E+00
        -11   -1    0    0    0    0  0.00000000000E+00  0.00000000000E+00  0.45593999997E+02  0.45594000000E+02  0.51100000000E-03 0. -1.
         11   -1    0    0    0    0 -0.00000000000E+00 -0.00000000000E+00 -0.45593999997E+02  0.45594000000E+02  0.51100000000E-03 0.  1.
    9900012    2    1    2    0    0 -0.16152135546E+02 -0.11256437654E+00  0.27492197639E+02  0.59301873166E+02  0.49999870765E+02 0.  0.
        -12    1    1    2    0    0  0.16152135546E+02  0.11256437654E+00 -0.27492197639E+02  0.31886126834E+02  0.00000000000E+00 0.  1.
         11    1    3    3    0    0 -0.93083810665E+01  0.24408569339E+01  0.12457682216E+02  0.15741587821E+02  0.51100000000E-03 0. -1.
        -11    1    3    3    0    0  0.76998099198E+01 -0.11503800875E+02 -0.71371472478E+01  0.15574446330E+02  0.51100000000E-03 0.  1.
        -12    1    3    3    0    0 -0.14543564400E+02  0.89503795650E+01  0.22171662671E+02  0.27985839015E+02  0.00000000000E+00 0.  1.
</event>
<event>
 7    1  0.5987893E-013  0.5930196E+02  0.7816164E-02  0.1266605E+00
        -11   -1    0    0    0    0  0.00000000000E+00  0.00000000000E+00  0.45593999997E+02  0.45594000000E+02  0.51100000000E-03 0. -1.
         11   -1    0    0    0    0 -0.00000000000E+00 -0.00000000000E+00 -0.45593999997E+02  0.45594000000E+02  0.51100000000E-03 0.  1.
    9900012    2    1    2    0    0  0.21932374224E+02  0.17651678399E+02  0.14970268991E+02  0.59301956924E+02  0.50000023519E+02 0.  0.
        -12    1    1    2    0    0 -0.21932374224E+02 -0.17651678399E+02 -0.14970268991E+02  0.31886043076E+02  0.00000000000E+00 0.  1.
         11    1    3    3    0    0 -0.65900116605E+01  0.23509102587E+02  0.13252982668E+02  0.27780347514E+02  0.51100000000E-03 0. -1.
        -11    1    3    3    0    0  0.14157536161E+01 -0.20577551959E+01 -0.28302297456E+01  0.37747735590E+01  0.51100000000E-03 0.  1.
         12    1    3    3    0    0  0.27106632268E+02 -0.37996689919E+01  0.45475160690E+01  0.27746835851E+02  0.00000000000E+00 0. -1.
</event>
<event>
 7    1  0.5987893E-013  0.5930200E+02  0.7816164E-02  0.1266605E+00
        -11   -1    0    0    0    0  0.00000000000E+00  0.00000000000E+00  0.45593999997E+02  0.45594000000E+02  0.51100000000E-03 0.  1.
         11   -1    0    0    0    0 -0.00000000000E+00 -0.00000000000E+00 -0.45593999997E+02  0.45594000000E+02  0.51100000000E-03 0. -1.
    9900012    2    1    2    0    0 -0.24086287816E+02  0.19077672260E+02 -0.85211419472E+01  0.59302004646E+02  0.50000110553E+02 0.  0.
        -12    1    1    2    0    0  0.24086287816E+02 -0.19077672260E+02  0.85211419472E+01  0.31885995354E+02  0.00000000000E+00 0.  1.
         11    1    3    3    0    0 -0.53268885224E+01  0.74010511773E+01 -0.59282254893E+01  0.10876357735E+02  0.51100000000E-03 0. -1.
        -11    1    3    3    0    0 -0.70658105092E+01 -0.13959352744E+02 -0.10878147699E+02  0.19055794521E+02  0.51100000000E-03 0.  1.
        -12    1    3    3    0    0 -0.11693588784E+02  0.25635973827E+02  0.82852312409E+01  0.29369852391E+02  0.00000000000E+00 0.  1.
</event>
<event>
 7    1  0.5987893E-013  0.5930195E+02  0.7816164E-02  0.1266605E+00
        -11   -1    0    0    0    0  0.00000000000E+00  0.00000000000E+00  0.45593999997E+02  0.45594000000E+02  0.51100000000E-03 0. -1.
         11   -1    0    0    0    0 -0.00000000000E+00 -0.00000000000E+00 -0.45593999997E+02  0.45594000000E+02  0.51100000000E-03 0.  1.
    9900012    2    1    2    0    0  0.15802621094E+01 -0.23820020365E+02  0.21138341157E+02  0.59301951869E+02  0.50000014300E+02 0.  0.
        -12    1    1    2    0    0 -0.15802621094E+01  0.23820020365E+02 -0.21138341157E+02  0.31886048131E+02  0.00000000000E+00 0.  1.
         11    1    3    3    0    0 -0.44522120639E+01 -0.18551024775E+02  0.91351680363E+00  0.19099665591E+02  0.51100000000E-03 0. -1.
        -11    1    3    3    0    0  0.14801507801E+00  0.14007805188E+02  0.47506165472E+01  0.14792189577E+02  0.51100000000E-03 0.  1.
        -12    1    3    3    0    0  0.58844590953E+01 -0.19276800778E+02  0.15474207806E+02  0.25410096700E+02  0.00000000000E+00 0.  1.
</event>
<event>
 7    1  0.5987893E-013  0.5930197E+02  0.7816164E-02  0.1266605E+00
        -11   -1    0    0    0    0  0.00000000000E+00  0.00000000000E+00  0.45593999997E+02  0.45594000000E+02  0.51100000000E-03 0.  1.
         11   -1    0    0    0    0 -0.00000000000E+00 -0.00000000000E+00 -0.45593999997E+02  0.45594000000E+02  0.51100000000E-03 0. -1.
    9900012    2    1    2    0    0  0.28408292830E+02  0.13981421368E+02 -0.37693407636E+01  0.59301965835E+02  0.50000039771E+02 0.  0.
        -12    1    1    2    0    0 -0.28408292830E+02 -0.13981421368E+02  0.37693407636E+01  0.31886034165E+02  0.00000000000E+00 0.  1.
         11    1    3    3    0    0  0.72244417256E+00 -0.13432989071E+02  0.31939033027E+01  0.13826356698E+02  0.51100000000E-03 0. -1.
        -11    1    3    3    0    0  0.14503334319E+02  0.12468409495E+02  0.78191459503E+01  0.20662695500E+02  0.51100000000E-03 0.  1.
         12    1    3    3    0    0  0.13182514339E+02  0.14946000945E+02 -0.14782390017E+02  0.24812913637E+02  0.00000000000E+00 0. -1.
</event>
<event>
 7    1  0.5987893E-013  0.5930191E+02  0.7816164E-02  0.1266605E+00
        -11   -1    0    0    0    0  0.00000000000E+00  0.00000000000E+00  0.45593999997E+02  0.45594000000E+02  0.51100000000E-03 0. -1.
         11   -1    0    0    0    0 -0.00000000000E+00 -0.00000000000E+00 -0.45593999997E+02  0.45594000000E+02  0.51100000000E-03 0.  1.
    9900012    2    1    2    0    0  0.11700524122E+02 -0.15116101900E+02  0.25521044954E+02  0.59301913114E+02  0.49999943620E+02 0.  0.
        -12    1    1    2    0    0 -0.11700524122E+02  0.15116101900E+02 -0.25521044954E+02  0.31886086886E+02  0.00000000000E+00 0.  1.
         11    1    3    3    0    0  0.17907905873E+02 -0.14907487365E+02  0.37677238755E+02  0.44300119557E+02  0.51100000000E-03 0. -1.
        -11    1    3    3    0    0 -0.45321507992E+01  0.71748185964E-01 -0.24585974598E+01  0.51565725438E+01  0.51100000000E-03 0.  1.
         12    1    3    3    0    0 -0.16752309517E+01 -0.28036272108E+00 -0.96975963412E+01  0.98452210130E+01  0.00000000000E+00 0. -1.
</event>
<event>
 7    1  0.5987893E-013  0.5930194E+02  0.7816164E-02  0.1266605E+00
        -11   -1    0    0    0    0  0.00000000000E+00  0.00000000000E+00  0.45593999997E+02  0.45594000000E+02  0.51100000000E-03 0. -1.
         11   -1    0    0    0    0 -0.00000000000E+00 -0.00000000000E+00 -0.45593999997E+02  0.45594000000E+02  0.51100000000E-03 0.  1.
    9900012    2    1    2    0    0 -0.29775715252E+02  0.56477849613E+01 -0.99111111272E+01  0.59301940075E+02  0.49999992792E+02 0.  0.
        -12    1    1    2    0    0  0.29775715252E+02 -0.56477849613E+01  0.99111111272E+01  0.31886059925E+02  0.00000000000E+00 0.  1.
         11    1    3    3    0    0 -0.52504325940E+01 -0.21194199897E+02 -0.37165868208E+01  0.22148908992E+02  0.51100000000E-03 0. -1.
        -11    1    3    3    0    0 -0.69553103534E+01  0.71330614320E+01 -0.37168260217E+01  0.10633517924E+02  0.51100000000E-03 0.  1.
         12    1    3    3    0    0 -0.17569972305E+02  0.19708923426E+02 -0.24776982848E+01  0.26519513159E+02  0.00000000000E+00 0. -1.
</event>
<event>
 7    1  0.5987893E-013  0.5930204E+02  0.7816164E-02  0.1266604E+00
        -11   -1    0    0    0    0  0.00000000000E+00  0.00000000000E+00  0.45593999997E+02  0.45594000000E+02  0.51100000000E-03 0. -1.
         11   -1    0    0    0    0 -0.00000000000E+00 -0.00000000000E+00 -0.45593999997E+02  0.45594000000E+02  0.51100000000E-03 0.  1.
    9900012    2    1    2    0    0 -0.61040972429E+01 -0.90805080332E+01  0.29949933309E+02  0.59302044871E+02  0.50000183913E+02 0.  0.
        -12    1    1    2    0    0  0.61040972429E+01  0.90805080332E+01 -0.29949933309E+02  0.31885955129E+02  0.00000000000E+00 0.  1.
         11    1    3    3    0    0  0.71341015150E+01 -0.88731222025E+01  0.22053151309E+02  0.24818726498E+02  0.51100000000E-03 0. -1.
        -11    1    3    3    0    0 -0.11450279979E+02  0.14411182943E+02  0.16311873707E+01  0.18478416542E+02  0.51100000000E-03 0.  1.
         12    1    3    3    0    0 -0.17879187792E+01 -0.14618568774E+02  0.62655946289E+01  0.16004901831E+02  0.00000000000E+00 0. -1.
</event>
<event>
 7    1  0.5987893E-013  0.5930195E+02  0.7816164E-02  0.1266605E+00
        -11   -1    0    0    0    0  0.00000000000E+00  0.00000000000E+00  0.45593999997E+02  0.45594000000E+02  0.51100000000E-03 0.  1.
         11   -1    0    0    0    0 -0.00000000000E+00 -0.00000000000E+00 -0.45593999997E+02  0.45594000000E+02  0.51100000000E-03 0. -1.
    9900012    2    1    2    0    0  0.15655626528E+02 -0.23357812209E+02 -0.15034438816E+02  0.59301946878E+02  0.50000005198E+02 0.  0.
        -12    1    1    2    0    0 -0.15655626528E+02  0.23357812209E+02  0.15034438816E+02  0.31886053122E+02  0.00000000000E+00 0.  1.
         11    1    3    3    0    0  0.14047749855E+02 -0.17861642213E+02 -0.31854496150E+02  0.39129099962E+02  0.51100000000E-03 0. -1.
        -11    1    3    3    0    0  0.24240639764E+00 -0.79813863155E+01  0.10072413401E+02  0.12853590952E+02  0.51100000000E-03 0.  1.
         12    1    3    3    0    0  0.13654702746E+01  0.24852163198E+01  0.67476439328E+01  0.73192559643E+01  0.00000000000E+00 0. -1.
</event>
<event>
 7    1  0.5987893E-013  0.5930193E+02  0.7816164E-02  0.1266605E+00
        -11   -1    0    0    0    0  0.00000000000E+00  0.00000000000E+00  0.45593999997E+02  0.45594000000E+02  0.51100000000E-03 0.  1.
         11   -1    0    0    0    0 -0.00000000000E+00 -0.00000000000E+00 -0.45593999997E+02  0.45594000000E+02  0.51100000000E-03 0. -1.
    9900012    2    1    2    0    0  0.19696041315E+02 -0.22148395229E+02 -0.11757379800E+02  0.59301930401E+02  0.49999975149E+02 0.  0.
        -12    1    1    2    0    0 -0.19696041315E+02  0.22148395229E+02  0.11757379800E+02  0.31886069599E+02  0.00000000000E+00 0.  1.
         11    1    3    3    0    0  0.23155116985E+02 -0.26428494181E+02 -0.20530929812E+02  0.40695747031E+02  0.51100000000E-03 0. -1.
        -11    1    3    3    0    0 -0.86693095801E+01  0.18607543724E+01  0.92853483149E+01  0.12838887375E+02  0.51100000000E-03 0.  1.
        -12    1    3    3    0    0  0.52102339102E+01  0.24193445793E+01 -0.51179830266E+00  0.57672959951E+01  0.00000000000E+00 0.  1.
</event>
<event>
 7    1  0.5987893E-013  0.5930192E+02  0.7816164E-02  0.1266605E+00
        -11   -1    0    0    0    0  0.00000000000E+00  0.00000000000E+00  0.45593999997E+02  0.45594000000E+02  0.51100000000E-03 0.  1.
         11   -1    0    0    0    0 -0.00000000000E+00 -0.00000000000E+00 -0.45593999997E+02  0.45594000000E+02  0.51100000000E-03 0. -1.
    9900012    2    1    2    0    0 -0.43670962304E+01 -0.15886938313E+02 -0.27299373861E+02  0.59301919156E+02  0.49999954639E+02 0.  0.
        -12    1    1    2    0    0  0.43670962304E+01  0.15886938313E+02  0.27299373861E+02  0.31886080844E+02  0.00000000000E+00 0.  1.
         11    1    3    3    0    0 -0.11230202462E+02  0.59081455135E+01 -0.90076476781E+00  0.12721438919E+02  0.51100000000E-03 0.  1.
        -11    1    3    3    0    0  0.13539344686E+02 -0.26197678538E+02 -0.16285735596E+02  0.33687644612E+02  0.51100000000E-03 0. -1.
         12    1    3    3    0    0 -0.66762384543E+01  0.44025947120E+01 -0.10112873496E+02  0.12892835625E+02  0.00000000000E+00 0. -1.
</event>
<event>
 7    1  0.5987893E-013  0.5930197E+02  0.7816164E-02  0.1266605E+00
        -11   -1    0    0    0    0  0.00000000000E+00  0.00000000000E+00  0.45593999997E+02  0.45594000000E+02  0.51100000000E-03 0. -1.
         11   -1    0    0    0    0 -0.00000000000E+00 -0.00000000000E+00 -0.45593999997E+02  0.45594000000E+02  0.51100000000E-03 0.  1.
    9900012    2    1    2    0    0 -0.11158155160E+02  0.77029465531E+01  0.28859645336E+02  0.59301969499E+02  0.50000046454E+02 0.  0.
        -12    1    1    2    0    0  0.11158155160E+02 -0.77029465531E+01 -0.28859645336E+02  0.31886030501E+02  0.00000000000E+00 0.  1.
         11    1    3    3    0    0  0.37171692649E+00 -0.16766700558E+02  0.14986576103E+01  0.16837648172E+02  0.51100000000E-03 0.  1.
        -11    1    3    3    0    0 -0.15717270655E+02  0.18875778835E+02  0.25102906291E+02  0.35120984155E+02  0.51100000000E-03 0. -1.
        -12    1    3    3    0    0  0.41873985684E+01  0.55938682757E+01  0.22580814348E+01  0.73433371720E+01  0.00000000000E+00 0.  1.
</event>
<event>
 7    1  0.5987893E-013  0.5930196E+02  0.7816164E-02  0.1266605E+00
        -11   -1    0    0    0    0  0.00000000000E+00  0.00000000000E+00  0.45593999997E+02  0.45594000000E+02  0.51100000000E-03 0. -1.
         11   -1    0    0    0    0 -0.00000000000E+00 -0.00000000000E+00 -0.45593999997E+02  0.45594000000E+02  0.51100000000E-03 0.  1.
    9900012    2    1    2    0    0 -0.23756695215E+02 -0.78169469236E+01  0.19779650873E+02  0.59301955789E+02  0.50000021451E+02 0.  0.
        -12    1    1    2    0    0  0.23756695215E+02  0.78169469236E+01 -0.19779650873E+02  0.31886044211E+02  0.00000000000E+00 0.  1.
         11    1    3    3    0    0  0.26874941370E+01  0.52219509600E+01  0.17393410086E+02  0.18358161979E+02  0.51100000000E-03 0. -1.
        -11    1    3    3    0    0 -0.28715610162E+02 -0.58776538622E+01 -0.57497872097E+01  0.29869602192E+02  0.51100000000E-03 0.  1.
        -12    1    3    3    0    0  0.22714208104E+01 -0.71612440214E+01  0.81360279971E+01  0.11074191618E+02  0.00000000000E+00 0.  1.
</event>
<event>
 7    1  0.5987893E-013  0.5930191E+02  0.7816164E-02  0.1266605E+00
        -11   -1    0    0    0    0  0.00000000000E+00  0.00000000000E+00  0.45593999997E+02  0.45594000000E+02  0.51100000000E-03 0. -1.
         11   -1    0    0    0    0 -0.00000000000E+00 -0.00000000000E+00 -0.45593999997E+02  0.45594000000E+02  0.51100000000E-03 0.  1.
    9900012    2    1    2    0    0  0.99068460699E+01 -0.30294952024E+02  0.89062269811E+00  0.59301907013E+02  0.49999932494E+02 0.  0.
        -12    1    1    2    0    0 -0.99068460699E+01  0.30294952024E+02 -0.89062269811E+00  0.31886092987E+02  0.00000000000E+00 0.  1.
         11    1    3    3    0    0 -0.11654189345E+02 -0.25405249034E+02  0.68018229839E-01  0.27950875380E+02  0.51100000000E-03 0. -1.
        -11    1    3    3    0    0  0.15276067375E+02 -0.12373868055E+02 -0.45781962198E+01  0.20184913326E+02  0.51100000000E-03 0.  1.
         12    1    3    3    0    0  0.62849680399E+01  0.74841650653E+01  0.54008006881E+01  0.11166118308E+02  0.00000000000E+00 0. -1.
</event>
<event>
 7    1  0.5987893E-013  0.5930204E+02  0.7816164E-02  0.1266604E+00
        -11   -1    0    0    0    0  0.00000000000E+00  0.00000000000E+00  0.45593999997E+02  0.45594000000E+02  0.51100000000E-03 0.  1.
         11   -1    0    0    0    0 -0.00000000000E+00 -0.00000000000E+00 -0.45593999997E+02  0.45594000000E+02  0.51100000000E-03 0. -1.
    9900012    2    1    2    0    0 -0.74655312313E+01 -0.28223542662E+02  0.12822313816E+02  0.59302043082E+02  0.50000180652E+02 0.  0.
        -12    1    1    2    0    0  0.74655312313E+01  0.28223542662E+02 -0.12822313816E+02  0.31885956918E+02  0.00000000000E+00 0.  1.
         11    1    3    3    0    0  0.19420005579E+01 -0.14390188892E+01 -0.17347179136E+01  0.29751282378E+01  0.51100000000E-03 0. -1.
        -11    1    3    3    0    0 -0.11846318389E+02 -0.34076726216E+02  0.24609137335E+02  0.43671136573E+02  0.51100000000E-03 0.  1.
        -12    1    3    3    0    0  0.24387865995E+01  0.72922024440E+01 -0.10052105605E+02  0.12655778271E+02  0.00000000000E+00 0.  1.
</event>
<event>
 7    1  0.5987893E-013  0.5930203E+02  0.7816164E-02  0.1266604E+00
        -11   -1    0    0    0    0  0.00000000000E+00  0.00000000000E+00  0.45593999997E+02  0.45594000000E+02  0.51100000000E-03 0.  1.
         11   -1    0    0    0    0 -0.00000000000E+00 -0.00000000000E+00 -0.45593999997E+02  0.45594000000E+02  0.51100000000E-03 0. -1.
    9900012    2    1    2    0    0 -0.69925434037E+01  0.23333278955E+01 -0.31022172881E+02  0.59302026711E+02  0.50000150795E+02 0.  0.
        -12    1    1    2    0    0  0.69925434037E+01 -0.23333278955E+01  0.31022172881E+02  0.31885973289E+02  0.00000000000E+00 0.  1.
         11    1    3    3    0    0 -0.51801076690E+01  0.62726492238E+00 -0.39142614268E+02  0.39488874746E+02  0.51100000000E-03 0. -1.
        -11    1    3    3    0    0  0.59598626551E+01  0.61626991586E+01  0.63792924580E+01  0.10686168458E+02  0.51100000000E-03 0.  1.
         12    1    3    3    0    0 -0.77722983898E+01 -0.44566361854E+01  0.17411489287E+01  0.91269835073E+01  0.00000000000E+00 0. -1.
</event>
<event>
 7    1  0.5987893E-013  0.5930193E+02  0.7816164E-02  0.1266605E+00
        -11   -1    0    0    0    0  0.00000000000E+00  0.00000000000E+00  0.45593999997E+02  0.45594000000E+02  0.51100000000E-03 0.  1.
         11   -1    0    0    0    0 -0.00000000000E+00 -0.00000000000E+00 -0.45593999997E+02  0.45594000000E+02  0.51100000000E-03 0. -1.
    9900012    2    1    2    0    0 -0.10752233667E+01 -0.88126390907E+01 -0.30625201070E+02  0.59301926965E+02  0.49999968881E+02 0.  0.
        -12    1    1    2    0    0  0.10752233667E+01  0.88126390907E+01  0.30625201070E+02  0.31886073035E+02  0.00000000000E+00 0.  1.
         11    1    3    3    0    0 -0.14075900124E+02  0.78650741855E+01 -0.21941563884E+02  0.27229076043E+02  0.51100000000E-03 0. -1.
        -11    1    3    3    0    0  0.11917591871E+02 -0.21806358721E+02 -0.98008556549E+01  0.26713349631E+02  0.51100000000E-03 0.  1.
         12    1    3    3    0    0  0.10830848864E+01  0.51286454453E+01  0.11172184685E+01  0.53595012903E+01  0.00000000000E+00 0. -1.
</event>
<event>
 7    1  0.5987893E-013  0.5930198E+02  0.7816164E-02  0.1266605E+00
        -11   -1    0    0    0    0  0.00000000000E+00  0.00000000000E+00  0.45593999997E+02  0.45594000000E+02  0.51100000000E-03 0.  1.
         11   -1    0    0    0    0 -0.00000000000E+00 -0.00000000000E+00 -0.45593999997E+02  0.45594000000E+02  0.51100000000E-03 0. -1.
    9900012    2    1    2    0    0 -0.15781481856E+02  0.11226720482E+02 -0.25330292201E+02  0.59301982291E+02  0.50000069783E+02 0.  0.
        -12    1    1    2    0    0  0.15781481856E+02 -0.11226720482E+02  0.25330292201E+02  0.31886017709E+02  0.00000000000E+00 0.  1.
         11    1    3    3    0    0 -0.11358588887E+02  0.18465981045E+01  0.11750163777E+02  0.16446696176E+02  0.51100000000E-03 0. -1.
        -11    1    3    3    0    0  0.22685910180E+01 -0.22255420422E+00 -0.27866309720E+02  0.27959385781E+02  0.51100000000E-03 0.  1.
         12    1    3    3    0    0 -0.66914839875E+01  0.96026765822E+01 -0.92141462579E+01  0.14895900334E+02  0.00000000000E+00 0. -1.
</event>
<event>
 7    1  0.5987893E-013  0.5930196E+02  0.7816164E-02  0.1266605E+00
        -11   -1    0    0    0    0  0.00000000000E+00  0.00000000000E+00  0.45593999997E+02  0.45594000000E+02  0.51100000000E-03 0.  1.
         11   -1    0    0    0    0 -0.00000000000E+00 -0.00000000000E+00 -0.45593999997E+02  0.45594000000E+02  0.51100000000E-03 0. -1.
    9900012    2    1    2    0    0 -0.19217452846E+01  0.29613861375E+02 -0.11663859536E+02  0.59301960582E+02  0.50000030192E+02 0.  0.
        -12    1    1    2    0    0  0.19217452846E+01 -0.29613861375E+02  0.11663859536E+02  0.31886039418E+02  0.00000000000E+00 0.  1.
         11    1    3    3    0    0 -0.58367605427E+01  0.41017431630E+02 -0.15356931222E+02  0.44185210285E+02  0.51100000000E-03 0. -1.
        -11    1    3    3    0    0 -0.19577216293E+01 -0.54633773965E+01  0.34675810558E+01  0.67605684076E+01  0.51100000000E-03 0.  1.
         12    1    3    3    0    0  0.58727368873E+01 -0.59401928588E+01  0.22549062985E+00  0.83561818896E+01  0.00000000000E+00 0. -1.
</event>
<event>
 7    1  0.5987893E-013  0.5930194E+02  0.7816164E-02  0.1266605E+00
        -11   -1    0    0    0    0  0.00000000000E+00  0.00000000000E+00  0.45593999997E+02  0.45594000000E+02  0.51100000000E-03 0. -1.
         11   -1    0    0    0    0 -0.00000000000E+00 -0.00000000000E+00 -0.45593999997E+02  0.45594000000E+02  0.51100000000E-03 0.  1.
    9900012    2    1    2    0    0 -0.16140895151E+02  0.38670890524E+01  0.27225687572E+02  0.59301938189E+02  0.49999989352E+02 0.  0.
        -12    1    1    2    0    0  0.16140895151E+02 -0.38670890524E+01 -0.27225687572E+02  0.31886061811E+02  0.00000000000E+00 0.  1.
         11    1    3    3    0    0  0.35221060819E+01 -0.85823243422E+01  0.24945364090E+02  0.26614520703E+02  0.51100000000E-03 0. -1.
        -11    1    3    3    0    0 -0.18562203722E+02 -0.24957794857E+00  0.58264065565E+01  0.19456739444E+02  0.51100000000E-03 0.  1.
         12    1    3    3    0    0 -0.11007975111E+01  0.12698991343E+02 -0.35460830749E+01  0.13230678043E+02  0.00000000000E+00 0. -1.
</event>
<event>
 7    1  0.5987893E-013  0.5930195E+02  0.7816164E-02  0.1266605E+00
        -11   -1    0    0    0    0  0.00000000000E+00  0.00000000000E+00  0.45593999997E+02  0.45594000000E+02  0.51100000000E-03 0.  1.
         11   -1    0    0    0    0 -0.00000000000E+00 -0.00000000000E+00 -0.45593999997E+02  0.45594000000E+02  0.51100000000E-03 0. -1.
    9900012    2    1    2    0    0 -0.33084206287E+00 -0.23147495804E+02 -0.21927244543E+02  0.59301951770E+02  0.50000014121E+02 0.  0.
        -12    1    1    2    0    0  0.33084206287E+00  0.23147495804E+02  0.21927244543E+02  0.31886048230E+02  0.00000000000E+00 0.  1.
         11    1    3    3    0    0  0.81315942890E+01 -0.28142676406E+02 -0.20538889092E+02  0.35776794523E+02  0.51100000000E-03 0. -1.
        -11    1    3    3    0    0 -0.18292063460E+01  0.22542035995E+01  0.98064823610E+01  0.10227146537E+02  0.51100000000E-03 0.  1.
         12    1    3    3    0    0 -0.66332300059E+01  0.27409770021E+01 -0.11194837811E+02  0.13298010711E+02  0.00000000000E+00 0. -1.
</event>
<event>
 7    1  0.5987893E-013  0.5930196E+02  0.7816164E-02  0.1266605E+00
        -11   -1    0    0    0    0  0.00000000000E+00  0.00000000000E+00  0.45593999997E+02  0.45594000000E+02  0.51100000000E-03 0. -1.
         11   -1    0    0    0    0 -0.00000000000E+00 -0.00000000000E+00 -0.45593999997E+02  0.45594000000E+02  0.51100000000E-03 0.  1.
    9900012    2    1    2    0    0 -0.14332886174E+02  0.21891145077E+02  0.18222677192E+02  0.59301955672E+02  0.50000021237E+02 0.  0.
        -12    1    1    2    0    0  0.14332886174E+02 -0.21891145077E+02 -0.18222677192E+02  0.31886044328E+02  0.00000000000E+00 0.  1.
         11    1    3    3    0    0  0.15082055351E+02  0.15846122603E+02 -0.26458769368E+01  0.22035622528E+02  0.51100000000E-03 0. -1.
        -11    1    3    3    0    0 -0.14097462168E+02  0.36913334779E+01  0.14355973871E+02  0.20456254996E+02  0.51100000000E-03 0.  1.
        -12    1    3    3    0    0 -0.15317479357E+02  0.23536889957E+01  0.65125802573E+01  0.16810078148E+02  0.00000000000E+00 0.  1.
</event>
<event>
 7    1  0.5987893E-013  0.5930195E+02  0.7816164E-02  0.1266605E+00
        -11   -1    0    0    0    0  0.00000000000E+00  0.00000000000E+00  0.45593999997E+02  0.45594000000E+02  0.51100000000E-03 0.  1.
         11   -1    0    0    0    0 -0.00000000000E+00 -0.00000000000E+00 -0.45593999997E+02  0.45594000000E+02  0.51100000000E-03 0. -1.
    9900012    2    1    2    0    0  0.30283559209E+02 -0.87133688657E+01 -0.48686456037E+01  0.59301945597E+02  0.50000002862E+02 0.  0.
        -12    1    1    2    0    0 -0.30283559209E+02  0.87133688657E+01  0.48686456037E+01  0.31886054403E+02  0.00000000000E+00 0.  1.
         11    1    3    3    0    0 -0.11314371457E+00 -0.12615601629E+02  0.11287946344E+02  0.16928790237E+02  0.51100000000E-03 0. -1.
        -11    1    3    3    0    0  0.15109621559E+01 -0.33945447878E-02 -0.12962301653E+02  0.13050068297E+02  0.51100000000E-03 0.  1.
         12    1    3    3    0    0  0.28885740768E+02  0.39056273080E+01 -0.31942902945E+01  0.29323087063E+02  0.00000000000E+00 0. -1.
</event>
<event>
 7    1  0.5987893E-013  0.5930193E+02  0.7816164E-02  0.1266605E+00
        -11   -1    0    0    0    0  0.00000000000E+00  0.00000000000E+00  0.45593999997E+02  0.45594000000E+02  0.51100000000E-03 0.  1.
         11   -1    0    0    0    0 -0.00000000000E+00 -0.00000000000E+00 -0.45593999997E+02  0.45594000000E+02  0.51100000000E-03 0. -1.
    9900012    2    1    2    0    0  0.10107786755E+02 -0.21174073171E+02 -0.21591966186E+02  0.59301925743E+02  0.49999966653E+02 0.  0.
        -12    1    1    2    0    0 -0.10107786755E+02  0.21174073171E+02  0.21591966186E+02  0.31886074257E+02  0.00000000000E+00 0.  1.
         11    1    3    3    0    0 -0.46764406202E+01 -0.61205372235E+01  0.58552850440E+01  0.96754553374E+01  0.51100000000E-03 0. -1.
        -11    1    3    3    0    0  0.58288853182E+01 -0.23020996273E+02 -0.29063154424E+02  0.37531441736E+02  0.51100000000E-03 0.  1.
        -12    1    3    3    0    0  0.89553420571E+01  0.79674603250E+01  0.16159031937E+01  0.12095028670E+02  0.00000000000E+00 0.  1.
</event>
<event>
 7    1  0.5987893E-013  0.5930194E+02  0.7816164E-02  0.1266605E+00
        -11   -1    0    0    0    0  0.00000000000E+00  0.00000000000E+00  0.45593999997E+02  0.45594000000E+02  0.51100000000E-03 0. -1.
         11   -1    0    0    0    0 -0.00000000000E+00 -0.00000000000E+00 -0.45593999997E+02  0.45594000000E+02  0.51100000000E-03 0.  1.
    9900012    2    1    2    0    0 -0.28344586100E+02 -0.85648281957E+01 -0.11830001812E+02  0.59301940568E+02  0.49999993691E+02 0.  0.
        -12    1    1    2    0    0  0.28344586100E+02  0.85648281957E+01  0.11830001812E+02  0.31886059432E+02  0.00000000000E+00 0.  1.
         11    1    3    3    0    0 -0.35584564950E+02 -0.12155610888E+02  0.35421042624E+01  0.37769917151E+02  0.51100000000E-03 0. -1.
        -11    1    3    3    0    0  0.31444011553E+01  0.80382651276E+01 -0.65422192336E+01  0.10830586210E+02  0.51100000000E-03 0.  1.
         12    1    3    3    0    0  0.40955776948E+01 -0.44474824357E+01 -0.88298868411E+01  0.10701437207E+02  0.00000000000E+00 0. -1.
</event>
<event>
 7    1  0.5987893E-013  0.5930204E+02  0.7816164E-02  0.1266604E+00
        -11   -1    0    0    0    0  0.00000000000E+00  0.00000000000E+00  0.45593999997E+02  0.45594000000E+02  0.51100000000E-03 0. -1.
         11   -1    0    0    0    0 -0.00000000000E+00 -0.00000000000E+00 -0.45593999997E+02  0.45594000000E+02  0.51100000000E-03 0.  1.
    9900012    2    1    2    0    0  0.15089527066E+02 -0.17820085509E+02  0.21713244384E+02  0.59302042961E+02  0.50000180430E+02 0.  0.
        -12    1    1    2    0    0 -0.15089527066E+02  0.17820085509E+02 -0.21713244384E+02  0.31885957039E+02  0.00000000000E+00 0.  1.
         11    1    3    3    0    0  0.13528371409E+02  0.33240143552E+01  0.85457609479E+01  0.16343069934E+02  0.51100000000E-03 0. -1.
        -11    1    3    3    0    0 -0.16681898236E+02 -0.99268867090E+01  0.50677653798E+01  0.20062678154E+02  0.51100000000E-03 0.  1.
        -12    1    3    3    0    0  0.18243053893E+02 -0.11217213155E+02  0.80997180566E+01  0.22896294873E+02  0.00000000000E+00 0.  1.
</event>
<event>
 7    1  0.5987893E-013  0.5930188E+02  0.7816164E-02  0.1266605E+00
        -11   -1    0    0    0    0  0.00000000000E+00  0.00000000000E+00  0.45593999997E+02  0.45594000000E+02  0.51100000000E-03 0.  1.
         11   -1    0    0    0    0 -0.00000000000E+00 -0.00000000000E+00 -0.45593999997E+02  0.45594000000E+02  0.51100000000E-03 0. -1.
    9900012    2    1    2    0    0 -0.11729866867E+02  0.39412928543E+01 -0.29387087793E+02  0.59301882409E+02  0.49999887622E+02 0.  0.
        -12    1    1    2    0    0  0.11729866867E+02 -0.39412928543E+01  0.29387087793E+02  0.31886117591E+02  0.00000000000E+00 0.  1.
         11    1    3    3    0    0  0.41108927479E+01 -0.63127465899E+01 -0.92149796170E+01  0.11902355158E+02  0.51100000000E-03 0. -1.
        -11    1    3    3    0    0 -0.27414501863E+02  0.16548112548E+01 -0.17951599976E+02  0.32810870983E+02  0.51100000000E-03 0.  1.
        -12    1    3    3    0    0  0.11573742248E+02  0.85992281894E+01 -0.22205081993E+01  0.14588656269E+02  0.00000000000E+00 0.  1.
</event>
<event>
 7    1  0.5987893E-013  0.5930194E+02  0.7816164E-02  0.1266605E+00
        -11   -1    0    0    0    0  0.00000000000E+00  0.00000000000E+00  0.45593999997E+02  0.45594000000E+02  0.51100000000E-03 0.  1.
         11   -1    0    0    0    0 -0.00000000000E+00 -0.00000000000E+00 -0.45593999997E+02  0.45594000000E+02  0.51100000000E-03 0. -1.
    9900012    2    1    2    0    0  0.18169068027E+02  0.21205987821E+02 -0.15391934551E+02  0.59301943460E+02  0.49999998965E+02 0.  0.
        -12    1    1    2    0    0 -0.18169068027E+02 -0.21205987821E+02  0.15391934551E+02  0.31886056540E+02  0.00000000000E+00 0.  1.
         11    1    3    3    0    0 -0.77690595634E+00  0.26709482694E+01 -0.21392744973E+02  0.21572832111E+02  0.51100000000E-03 0. -1.
        -11    1    3    3    0    0  0.89804138206E+01 -0.30046500359E+01  0.98748516051E+01  0.13681682963E+02  0.51100000000E-03 0.  1.
        -12    1    3    3    0    0  0.99655601628E+01  0.21539689588E+02 -0.38740411830E+01  0.24047428386E+02  0.00000000000E+00 0.  1.
</event>
<event>
 7    1  0.5987893E-013  0.5930193E+02  0.7816164E-02  0.1266605E+00
        -11   -1    0    0    0    0  0.00000000000E+00  0.00000000000E+00  0.45593999997E+02  0.45594000000E+02  0.51100000000E-03 0.  1.
         11   -1    0    0    0    0 -0.00000000000E+00 -0.00000000000E+00 -0.45593999997E+02  0.45594000000E+02  0.51100000000E-03 0. -1.
    9900012    2    1    2    0    0  0.98238124856E+01 -0.18075231631E+02 -0.24361861854E+02  0.59301927754E+02  0.49999970321E+02 0.  0.
        -12    1    1    2    0    0 -0.98238124856E+01  0.18075231631E+02  0.24361861854E+02  0.31886072246E+02  0.00000000000E+00 0.  1.
         11    1    3    3    0    0  0.17437834398E+02 -0.20831240832E+02 -0.35459849044E+02  0.44670119292E+02  0.51100000000E-03 0. -1.
        -11    1    3    3    0    0 -0.34174374615E+01  0.24269225046E+01  0.20789093044E+01  0.46787493846E+01  0.51100000000E-03 0.  1.
         12    1    3    3    0    0 -0.41965844506E+01  0.32908669693E+00  0.90190778852E+01  0.99530590777E+01  0.00000000000E+00 0. -1.
</event>
<event>
 7    1  0.5987893E-013  0.5930193E+02  0.7816164E-02  0.1266605E+00
        -11   -1    0    0    0    0  0.00000000000E+00  0.00000000000E+00  0.45593999997E+02  0.45594000000E+02  0.51100000000E-03 0.  1.
         11   -1    0    0    0    0 -0.00000000000E+00 -0.00000000000E+00 -0.45593999997E+02  0.45594000000E+02  0.51100000000E-03 0. -1.
    9900012    2    1    2    0    0  0.25236407573E+02 -0.26605753837E+01 -0.19307158726E+02  0.59301932406E+02  0.49999978804E+02 0.  0.
        -12    1    1    2    0    0 -0.25236407573E+02  0.26605753837E+01  0.19307158726E+02  0.31886067594E+02  0.00000000000E+00 0.  1.
         11    1    3    3    0    0  0.19641633985E+02 -0.15814141083E+02 -0.11474005451E+02  0.27704397578E+02  0.51100000000E-03 0. -1.
        -11    1    3    3    0    0  0.74467128160E+01  0.17313534564E+02 -0.14321318864E+02  0.23670914328E+02  0.51100000000E-03 0.  1.
        -12    1    3    3    0    0 -0.18519392277E+01 -0.41599688640E+01  0.64881655887E+01  0.79266205005E+01  0.00000000000E+00 0.  1.
</event>
<event>
 7    1  0.5987893E-013  0.5930204E+02  0.7816164E-02  0.1266604E+00
        -11   -1    0    0    0    0  0.00000000000E+00  0.00000000000E+00  0.45593999997E+02  0.45594000000E+02  0.51100000000E-03 0.  1.
         11   -1    0    0    0    0 -0.00000000000E+00 -0.00000000000E+00 -0.45593999997E+02  0.45594000000E+02  0.51100000000E-03 0. -1.
    9900012    2    1    2    0    0 -0.91605594463E+00  0.29028306187E+02 -0.13161801958E+02  0.59302035229E+02  0.50000166329E+02 0.  0.
        -12    1    1    2    0    0  0.91605594463E+00 -0.29028306187E+02  0.13161801958E+02  0.31885964771E+02  0.00000000000E+00 0.  1.
         11    1    3    3    0    0 -0.12558329209E+02  0.27939694972E+02  0.51510916298E+01  0.31062387752E+02  0.51100000000E-03 0. -1.
        -11    1    3    3    0    0  0.93187667210E+01  0.90223327979E+01 -0.13268561535E+02  0.18555231817E+02  0.51100000000E-03 0.  1.
         12    1    3    3    0    0  0.23235065433E+01 -0.79337215828E+01 -0.50443320528E+01  0.96844156596E+01  0.00000000000E+00 0. -1.
</event>
<event>
 7    1  0.5987893E-013  0.5930194E+02  0.7816164E-02  0.1266605E+00
        -11   -1    0    0    0    0  0.00000000000E+00  0.00000000000E+00  0.45593999997E+02  0.45594000000E+02  0.51100000000E-03 0.  1.
         11   -1    0    0    0    0 -0.00000000000E+00 -0.00000000000E+00 -0.45593999997E+02  0.45594000000E+02  0.51100000000E-03 0. -1.
    9900012    2    1    2    0    0 -0.58827901494E+01 -0.28850771742E+02 -0.12237104684E+02  0.59301937510E+02  0.49999988113E+02 0.  0.
        -12    1    1    2    0    0  0.58827901494E+01  0.28850771742E+02  0.12237104684E+02  0.31886062490E+02  0.00000000000E+00 0.  1.
         11    1    3    3    0    0 -0.68964470324E+01 -0.68745566125E+01  0.46213489204E+01  0.10778560961E+02  0.51100000000E-03 0. -1.
        -11    1    3    3    0    0  0.11469972999E+02 -0.22379467027E+02 -0.24851849362E+02  0.35355554613E+02  0.51100000000E-03 0.  1.
        -12    1    3    3    0    0 -0.10456316116E+02  0.40325189686E+00  0.79933957570E+01  0.13167821936E+02  0.00000000000E+00 0.  1.
</event>
<event>
 7    1  0.5987893E-013  0.5930191E+02  0.7816164E-02  0.1266605E+00
        -11   -1    0    0    0    0  0.00000000000E+00  0.00000000000E+00  0.45593999997E+02  0.45594000000E+02  0.51100000000E-03 0. -1.
         11   -1    0    0    0    0 -0.00000000000E+00 -0.00000000000E+00 -0.45593999997E+02  0.45594000000E+02  0.51100000000E-03 0.  1.
    9900012    2    1    2    0    0 -0.36380322943E+01  0.31209919044E+02 -0.54247811714E+01  0.59301912494E+02  0.49999942490E+02 0.  0.
        -12    1    1    2    0    0  0.36380322943E+01 -0.31209919044E+02  0.54247811714E+01  0.31886087506E+02  0.00000000000E+00 0.  1.
         11    1    3    3    0    0  0.41084877810E+01  0.31406559871E+02  0.75322233160E+01  0.32557427158E+02  0.51100000000E-03 0. -1.
        -11    1    3    3    0    0 -0.14066558543E+02 -0.27843687396E+01 -0.13753306317E+02  0.19868925825E+02  0.51100000000E-03 0.  1.
        -12    1    3    3    0    0  0.63200384682E+01  0.25877279120E+01  0.79630182994E+00  0.68755595111E+01  0.00000000000E+00 0.  1.
</event>
<event>
 7    1  0.5987893E-013  0.5930194E+02  0.7816164E-02  0.1266605E+00
        -11   -1    0    0    0    0  0.00000000000E+00  0.00000000000E+00  0.45593999997E+02  0.45594000000E+02  0.51100000000E-03 0. -1.
         11   -1    0    0    0    0 -0.00000000000E+00 -0.00000000000E+00 -0.45593999997E+02  0.45594000000E+02  0.51100000000E-03 0.  1.
    9900012    2    1    2    0    0  0.18388087420E+02  0.92084336026E+01  0.24368087369E+02  0.59301942069E+02  0.49999996427E+02 0.  0.
        -12    1    1    2    0    0 -0.18388087420E+02 -0.92084336026E+01 -0.24368087369E+02  0.31886057931E+02  0.00000000000E+00 0.  1.
         11    1    3    3    0    0 -0.27221535839E+01  0.20107152554E+02  0.24178969534E+02  0.31564699776E+02  0.51100000000E-03 0. -1.
        -11    1    3    3    0    0  0.55025946062E+00  0.34029787678E-01 -0.40339073135E+01  0.40714066335E+01  0.51100000000E-03 0.  1.
         12    1    3    3    0    0  0.20559981544E+02 -0.10932748739E+02  0.42230251485E+01  0.23665835659E+02  0.00000000000E+00 0. -1.
</event>
<event>
 7    1  0.5987893E-013  0.5930206E+02  0.7816164E-02  0.1266604E+00
        -11   -1    0    0    0    0  0.00000000000E+00  0.00000000000E+00  0.45593999997E+02  0.45594000000E+02  0.51100000000E-03 0.  1.
         11   -1    0    0    0    0 -0.00000000000E+00 -0.00000000000E+00 -0.45593999997E+02  0.45594000000E+02  0.51100000000E-03 0. -1.
    9900012    2    1    2    0    0 -0.13641049542E+02  0.15650817510E+02 -0.24200967641E+02  0.59302060213E+02  0.50000211894E+02 0.  0.
        -12    1    1    2    0    0  0.13641049542E+02 -0.15650817510E+02  0.24200967641E+02  0.31885939787E+02  0.00000000000E+00 0.  1.
         11    1    3    3    0    0 -0.91370567033E+01 -0.15106542893E+02 -0.67936044363E+01  0.18916831259E+02  0.51100000000E-03 0. -1.
        -11    1    3    3    0    0 -0.49289810352E+01  0.31849400247E+02 -0.11278028497E+02  0.34144883616E+02  0.51100000000E-03 0.  1.
         12    1    3    3    0    0  0.42498819658E+00 -0.10920398438E+01 -0.61293347073E+01  0.62403453384E+01  0.00000000000E+00 0. -1.
</event>
<event>
 7    1  0.5987893E-013  0.5930192E+02  0.7816164E-02  0.1266605E+00
        -11   -1    0    0    0    0  0.00000000000E+00  0.00000000000E+00  0.45593999997E+02  0.45594000000E+02  0.51100000000E-03 0. -1.
         11   -1    0    0    0    0 -0.00000000000E+00 -0.00000000000E+00 -0.45593999997E+02  0.45594000000E+02  0.51100000000E-03 0.  1.
    9900012    2    1    2    0    0 -0.29044987251E+01 -0.24331351682E+02  0.20402732008E+02  0.59301917442E+02  0.49999951513E+02 0.  0.
        -12    1    1    2    0    0  0.29044987251E+01  0.24331351682E+02 -0.20402732008E+02  0.31886082558E+02  0.00000000000E+00 0.  1.
         11    1    3    3    0    0  0.63274018560E+00 -0.22682276424E+01  0.44229922151E+01  0.50107960621E+01  0.51100000000E-03 0. -1.
        -11    1    3    3    0    0 -0.15093706775E+02 -0.30261129903E+02  0.12306901718E+01  0.33838891321E+02  0.51100000000E-03 0.  1.
        -12    1    3    3    0    0  0.11556467865E+02  0.81980058639E+01  0.14749049622E+02  0.20452230059E+02  0.00000000000E+00 0.  1.
</event>
<event>
 7    1  0.5987893E-013  0.5930193E+02  0.7816164E-02  0.1266605E+00
        -11   -1    0    0    0    0  0.00000000000E+00  0.00000000000E+00  0.45593999997E+02  0.45594000000E+02  0.51100000000E-03 0.  1.
         11   -1    0    0    0    0 -0.00000000000E+00 -0.00000000000E+00 -0.45593999997E+02  0.45594000000E+02  0.51100000000E-03 0. -1.
    9900012    2    1    2    0    0  0.29959651334E+02 -0.17124550441E+01  0.10779996966E+02  0.59301928669E+02  0.49999971989E+02 0.  0.
        -12    1    1    2    0    0 -0.29959651334E+02  0.17124550441E+01 -0.10779996966E+02  0.31886071331E+02  0.00000000000E+00 0.  1.
         11    1    3    3    0    0 -0.95550907566E+00  0.10555580154E+02  0.76245572322E+01  0.13056306646E+02  0.51100000000E-03 0. -1.
        -11    1    3    3    0    0  0.10834629591E+02 -0.18680813085E+02  0.10382375373E+02  0.23961546163E+02  0.51100000000E-03 0.  1.
        -12    1    3    3    0    0  0.20080530819E+02  0.64127778866E+01 -0.72269356398E+01  0.22284075860E+02  0.00000000000E+00 0.  1.
</event>
<event>
 7    1  0.5987893E-013  0.5930204E+02  0.7816164E-02  0.1266604E+00
        -11   -1    0    0    0    0  0.00000000000E+00  0.00000000000E+00  0.45593999997E+02  0.45594000000E+02  0.51100000000E-03 0.  1.
         11   -1    0    0    0    0 -0.00000000000E+00 -0.00000000000E+00 -0.45593999997E+02  0.45594000000E+02  0.51100000000E-03 0. -1.
    9900012    2    1    2    0    0 -0.43363352863E+01  0.24697046029E+01 -0.31493032349E+02  0.59302041788E+02  0.50000178291E+02 0.  0.
        -12    1    1    2    0    0  0.43363352863E+01 -0.24697046029E+01  0.31493032349E+02  0.31885958212E+02  0.00000000000E+00 0.  1.
         11    1    3    3    0    0  0.17500780277E+02 -0.80296110672E+01 -0.23706310543E+01  0.19400305566E+02  0.51100000000E-03 0.  1.
        -11    1    3    3    0    0 -0.14142960858E+02  0.53222333432E+01 -0.86138711320E+01  0.17393915192E+02  0.51100000000E-03 0. -1.
         12    1    3    3    0    0 -0.76941547060E+01  0.51770823268E+01 -0.20508530163E+02  0.22507821030E+02  0.00000000000E+00 0. -1.
</event>
<event>
 7    1  0.5987893E-013  0.5930192E+02  0.7816164E-02  0.1266605E+00
        -11   -1    0    0    0    0  0.00000000000E+00  0.00000000000E+00  0.45593999997E+02  0.45594000000E+02  0.51100000000E-03 0. -1.
         11   -1    0    0    0    0 -0.00000000000E+00 -0.00000000000E+00 -0.45593999997E+02  0.45594000000E+02  0.51100000000E-03 0.  1.
    9900012    2    1    2    0    0 -0.70181202644E+01  0.23440280725E+02  0.20445577138E+02  0.59301915308E+02  0.49999947621E+02 0.  0.
        -12    1    1    2    0    0  0.70181202644E+01 -0.23440280725E+02 -0.20445577138E+02  0.31886084692E+02  0.00000000000E+00 0.  1.
         11    1    3    3    0    0  0.58218321159E+01 -0.31407957279E+01  0.22932298249E+01  0.70012306262E+01  0.51100000000E-03 0. -1.
        -11    1    3    3    0    0 -0.19483840959E+02  0.13347805710E+02 -0.56356350172E+01  0.24280534551E+02  0.51100000000E-03 0.  1.
        -12    1    3    3    0    0  0.66438885784E+01  0.13233270743E+02  0.23787982330E+02  0.28020150130E+02  0.00000000000E+00 0.  1.
</event>
<event>
 7    1  0.5987893E-013  0.5930203E+02  0.7816164E-02  0.1266604E+00
        -11   -1    0    0    0    0  0.00000000000E+00  0.00000000000E+00  0.45593999997E+02  0.45594000000E+02  0.51100000000E-03 0.  1.
         11   -1    0    0    0    0 -0.00000000000E+00 -0.00000000000E+00 -0.45593999997E+02  0.45594000000E+02  0.51100000000E-03 0. -1.
    9900012    2    1    2    0    0  0.85297757591E+01  0.30364558239E+02 -0.46852597981E+01  0.59302029246E+02  0.50000155418E+02 0.  0.
        -12    1    1    2    0    0 -0.85297757591E+01 -0.30364558239E+02  0.46852597981E+01  0.31885970754E+02  0.00000000000E+00 0.  1.
         11    1    3    3    0    0  0.15434764757E+02  0.87595284282E+01 -0.16028343524E+02  0.23913784681E+02  0.51100000000E-03 0. -1.
        -11    1    3    3    0    0 -0.44745427937E+01  0.33116018139E+01  0.15502037036E+02  0.16471229229E+02  0.51100000000E-03 0.  1.
         12    1    3    3    0    0 -0.24304462038E+01  0.18293427996E+02 -0.41589533101E+01  0.18917015337E+02  0.00000000000E+00 0. -1.
</event>
<event>
 7    1  0.5987893E-013  0.5930196E+02  0.7816164E-02  0.1266605E+00
        -11   -1    0    0    0    0  0.00000000000E+00  0.00000000000E+00  0.45593999997E+02  0.45594000000E+02  0.51100000000E-03 0. -1.
         11   -1    0    0    0    0 -0.00000000000E+00 -0.00000000000E+00 -0.45593999997E+02  0.45594000000E+02  0.51100000000E-03 0.  1.
    9900012    2    1    2    0    0  0.27756643794E+02  0.18637374914E+01 -0.15582516908E+02  0.59301958770E+02  0.50000026886E+02 0.  0.
        -12    1    1    2    0    0 -0.27756643794E+02 -0.18637374914E+01  0.15582516908E+02  0.31886041230E+02  0.00000000000E+00 0.  1.
         11    1    3    3    0    0  0.41343901760E+01 -0.72477044379E+01  0.62756875780E+01  0.10440625297E+02  0.51100000000E-03 0. -1.
        -11    1    3    3    0    0 -0.37855613930E+01  0.12912691758E+02 -0.15394043289E+02  0.20446140285E+02  0.51100000000E-03 0.  1.
        -12    1    3    3    0    0  0.27407815011E+02 -0.38012498289E+01 -0.64641611969E+01  0.28415193188E+02  0.00000000000E+00 0.  1.
</event>
<event>
 7    1  0.5987893E-013  0.5930194E+02  0.7816164E-02  0.1266605E+00
        -11   -1    0    0    0    0  0.00000000000E+00  0.00000000000E+00  0.45593999997E+02  0.45594000000E+02  0.51100000000E-03 0. -1.
         11   -1    0    0    0    0 -0.00000000000E+00 -0.00000000000E+00 -0.45593999997E+02  0.45594000000E+02  0.51100000000E-03 0.  1.
    9900012    2    1    2    0    0 -0.27762527877E+02  0.15480488722E+02 -0.25134163901E+01  0.59301941179E+02  0.49999994804E+02 0.  0.
        -12    1    1    2    0    0  0.27762527877E+02 -0.15480488722E+02  0.25134163901E+01  0.31886058821E+02  0.00000000000E+00 0.  1.
         11    1    3    3    0    0  0.10629534458E+00  0.50549481601E+00  0.12893162555E+01  0.13889421792E+01  0.51100000000E-03 0. -1.
        -11    1    3    3    0    0  0.42755720720E+01  0.21806200155E+02 -0.10172476369E+02  0.24439111225E+02  0.51100000000E-03 0.  1.
        -12    1    3    3    0    0 -0.32144395294E+02 -0.68312062488E+01  0.63697437235E+01  0.33473887774E+02  0.00000000000E+00 0.  1.
</event>
<event>
 7    1  0.5987893E-013  0.5930203E+02  0.7816164E-02  0.1266604E+00
        -11   -1    0    0    0    0  0.00000000000E+00  0.00000000000E+00  0.45593999997E+02  0.45594000000E+02  0.51100000000E-03 0.  1.
         11   -1    0    0    0    0 -0.00000000000E+00 -0.00000000000E+00 -0.45593999997E+02  0.45594000000E+02  0.51100000000E-03 0. -1.
    9900012    2    1    2    0    0 -0.31066905204E+01 -0.21449594983E+02  0.23387574649E+02  0.59302026612E+02  0.50000150614E+02 0.  0.
        -12    1    1    2    0    0  0.31066905204E+01  0.21449594983E+02 -0.23387574649E+02  0.31885973388E+02  0.00000000000E+00 0.  1.
         11    1    3    3    0    0  0.63813273596E+01 -0.62897472500E+00 -0.11128530611E+02  0.12843719940E+02  0.51100000000E-03 0. -1.
        -11    1    3    3    0    0 -0.19498607266E+01  0.94158168603E+00  0.17970155031E+02  0.18100138260E+02  0.51100000000E-03 0.  1.
         12    1    3    3    0    0 -0.75381571535E+01 -0.21762201944E+02  0.16545950229E+02  0.28358168413E+02  0.00000000000E+00 0. -1.
</event>
<event>
 7    1  0.5987893E-013  0.5930195E+02  0.7816164E-02  0.1266605E+00
        -11   -1    0    0    0    0  0.00000000000E+00  0.00000000000E+00  0.45593999997E+02  0.45594000000E+02  0.51100000000E-03 0.  1.
         11   -1    0    0    0    0 -0.00000000000E+00 -0.00000000000E+00 -0.45593999997E+02  0.45594000000E+02  0.51100000000E-03 0. -1.
    9900012    2    1    2    0    0 -0.34472060643E+01 -0.68131210602E+01 -0.30958335339E+02  0.59301947011E+02  0.50000005441E+02 0.  0.
        -12    1    1    2    0    0  0.34472060643E+01  0.68131210602E+01  0.30958335339E+02  0.31886052989E+02  0.00000000000E+00 0.  1.
         11    1    3    3    0    0 -0.10396390705E+02 -0.12231837632E+01 -0.28763482647E+02  0.30609133481E+02  0.51100000000E-03 0. -1.
        -11    1    3    3    0    0 -0.24997268871E+01  0.92848523448E+01 -0.50177498474E+01  0.10845963828E+02  0.51100000000E-03 0.  1.
        -12    1    3    3    0    0  0.94489115274E+01 -0.14874789642E+02  0.28228971548E+01  0.17846849702E+02  0.00000000000E+00 0.  1.
</event>
<event>
 7    1  0.5987893E-013  0.5930195E+02  0.7816164E-02  0.1266605E+00
        -11   -1    0    0    0    0  0.00000000000E+00  0.00000000000E+00  0.45593999997E+02  0.45594000000E+02  0.51100000000E-03 0.  1.
         11   -1    0    0    0    0 -0.00000000000E+00 -0.00000000000E+00 -0.45593999997E+02  0.45594000000E+02  0.51100000000E-03 0. -1.
    9900012    2    1    2    0    0  0.16210799829E+02 -0.22328483204E+02 -0.15980271301E+02  0.59301948753E+02  0.50000008617E+02 0.  0.
        -12    1    1    2    0    0 -0.16210799829E+02  0.22328483204E+02  0.15980271301E+02  0.31886051247E+02  0.00000000000E+00 0.  1.
         11    1    3    3    0    0  0.29496826581E+01  0.21409734307E+01 -0.51821184542E+01  0.63355147343E+01  0.51100000000E-03 0. -1.
        -11    1    3    3    0    0 -0.54741213744E+01 -0.27717103867E+02 -0.16991734164E+02  0.32968513491E+02  0.51100000000E-03 0.  1.
        -12    1    3    3    0    0  0.18735238545E+02  0.32476472325E+01  0.61935813177E+01  0.19997920528E+02  0.00000000000E+00 0.  1.
</event>
<event>
 7    1  0.5987893E-013  0.5930203E+02  0.7816164E-02  0.1266604E+00
        -11   -1    0    0    0    0  0.00000000000E+00  0.00000000000E+00  0.45593999997E+02  0.45594000000E+02  0.51100000000E-03 0.  1.
         11   -1    0    0    0    0 -0.00000000000E+00 -0.00000000000E+00 -0.45593999997E+02  0.45594000000E+02  0.51100000000E-03 0. -1.
    9900012    2    1    2    0    0 -0.19981978715E+01  0.18334492527E+02 -0.26010935993E+02  0.59302028129E+02  0.50000153380E+02 0.  0.
        -12    1    1    2    0    0  0.19981978715E+01 -0.18334492527E+02  0.26010935993E+02  0.31885971871E+02  0.00000000000E+00 0.  1.
         11    1    3    3    0    0 -0.12895552588E+02  0.17321125657E+02 -0.15049798930E+02  0.26321343406E+02  0.51100000000E-03 0. -1.
        -11    1    3    3    0    0  0.10939777041E+02 -0.11144374272E+02  0.13542823811E+01  0.15675135746E+02  0.51100000000E-03 0.  1.
        -12    1    3    3    0    0 -0.42422324217E-01  0.12157741142E+02 -0.12315419443E+02  0.17305548977E+02  0.00000000000E+00 0.  1.
</event>
<event>
 7    1  0.5987893E-013  0.5930195E+02  0.7816164E-02  0.1266605E+00
        -11   -1    0    0    0    0  0.00000000000E+00  0.00000000000E+00  0.45593999997E+02  0.45594000000E+02  0.51100000000E-03 0.  1.
         11   -1    0    0    0    0 -0.00000000000E+00 -0.00000000000E+00 -0.45593999997E+02  0.45594000000E+02  0.51100000000E-03 0. -1.
    9900012    2    1    2    0    0  0.26098338099E+01 -0.23379133269E+02 -0.21524989289E+02  0.59301948679E+02  0.50000008483E+02 0.  0.
        -12    1    1    2    0    0 -0.26098338099E+01  0.23379133269E+02  0.21524989289E+02  0.31886051321E+02  0.00000000000E+00 0.  1.
         11    1    3    3    0    0  0.75910848711E+01 -0.10401027810E+02  0.16951274123E+01  0.12987663617E+02  0.51100000000E-03 0. -1.
        -11    1    3    3    0    0 -0.56631239860E+01 -0.19637365131E+02 -0.30314383754E+02  0.36560346623E+02  0.51100000000E-03 0.  1.
        -12    1    3    3    0    0  0.68187292481E+00  0.66592596714E+01  0.70942670529E+01  0.97539384391E+01  0.00000000000E+00 0.  1.
</event>
<event>
 7    1  0.5987893E-013  0.5930197E+02  0.7816164E-02  0.1266605E+00
        -11   -1    0    0    0    0  0.00000000000E+00  0.00000000000E+00  0.45593999997E+02  0.45594000000E+02  0.51100000000E-03 0. -1.
         11   -1    0    0    0    0 -0.00000000000E+00 -0.00000000000E+00 -0.45593999997E+02  0.45594000000E+02  0.51100000000E-03 0.  1.
    9900012    2    1    2    0    0 -0.44813768090E+01  0.15363769931E+02  0.27578809751E+02  0.59301969957E+02  0.50000047289E+02 0.  0.
        -12    1    1    2    0    0  0.44813768090E+01 -0.15363769931E+02 -0.27578809751E+02  0.31886030043E+02  0.00000000000E+00 0.  1.
         11    1    3    3    0    0 -0.17119907103E+02  0.71103809040E+01  0.93415647140E+01  0.20758457731E+02  0.51100000000E-03 0. -1.
        -11    1    3    3    0    0  0.21836065550E+02  0.99474983645E+00  0.14557150658E+02  0.26262405097E+02  0.51100000000E-03 0.  1.
        -12    1    3    3    0    0 -0.91975352557E+01  0.72586391908E+01  0.36800943788E+01  0.12281107129E+02  0.00000000000E+00 0.  1.
</event>
<event>
 7    1  0.5987893E-013  0.5930188E+02  0.7816164E-02  0.1266605E+00
        -11   -1    0    0    0    0  0.00000000000E+00  0.00000000000E+00  0.45593999997E+02  0.45594000000E+02  0.51100000000E-03 0.  1.
         11   -1    0    0    0    0 -0.00000000000E+00 -0.00000000000E+00 -0.45593999997E+02  0.45594000000E+02  0.51100000000E-03 0. -1.
    9900012    2    1    2    0    0  0.24001979421E+02 -0.20477448587E+02 -0.46155957764E+01  0.59301880118E+02  0.49999883443E+02 0.  0.
        -12    1    1    2    0    0 -0.24001979421E+02  0.20477448587E+02  0.46155957764E+01  0.31886119882E+02  0.00000000000E+00 0.  1.
         11    1    3    3    0    0 -0.68649072587E+01  0.84803515489E+01 -0.49706831661E+01  0.11989620739E+02  0.51100000000E-03 0. -1.
        -11    1    3    3    0    0  0.12658472575E+02 -0.20991176310E+02  0.83411234949E+01  0.25892870684E+02  0.51100000000E-03 0.  1.
         12    1    3    3    0    0  0.18208414105E+02 -0.79666238258E+01 -0.79860361052E+01  0.21419388695E+02  0.00000000000E+00 0. -1.
</event>
<event>
 7    1  0.5987893E-013  0.5930195E+02  0.7816164E-02  0.1266605E+00
        -11   -1    0    0    0    0  0.00000000000E+00  0.00000000000E+00  0.45593999997E+02  0.45594000000E+02  0.51100000000E-03 0. -1.
         11   -1    0    0    0    0 -0.00000000000E+00 -0.00000000000E+00 -0.45593999997E+02  0.45594000000E+02  0.51100000000E-03 0.  1.
    9900012    2    1    2    0    0  0.10980920963E+02  0.25258166080E+02 -0.16067504082E+02  0.59301948718E+02  0.50000008554E+02 0.  0.
        -12    1    1    2    0    0 -0.10980920963E+02 -0.25258166080E+02  0.16067504082E+02  0.31886051282E+02  0.00000000000E+00 0.  1.
         11    1    3    3    0    0 -0.72334808563E+01  0.23523015750E+02  0.27287532818E+01  0.24760888716E+02  0.51100000000E-03 0. -1.
        -11    1    3    3    0    0  0.12312058102E+02 -0.57062145905E+01 -0.20798863287E+02  0.24834258071E+02  0.51100000000E-03 0.  1.
        -12    1    3    3    0    0  0.59023437172E+01  0.74413649213E+01  0.20026059231E+01  0.97068019312E+01  0.00000000000E+00 0.  1.
</event>
<event>
 7    1  0.5987893E-013  0.5930197E+02  0.7816164E-02  0.1266605E+00
        -11   -1    0    0    0    0  0.00000000000E+00  0.00000000000E+00  0.45593999997E+02  0.45594000000E+02  0.51100000000E-03 0. -1.
         11   -1    0    0    0    0 -0.00000000000E+00 -0.00000000000E+00 -0.45593999997E+02  0.45594000000E+02  0.51100000000E-03 0.  1.
    9900012    2    1    2    0    0  0.39334841293E+01  0.31628035966E+02 -0.95612897506E+00  0.59301966394E+02  0.50000040791E+02 0.  0.
        -12    1    1    2    0    0 -0.39334841293E+01 -0.31628035966E+02  0.95612897506E+00  0.31886033606E+02  0.00000000000E+00 0.  1.
         11    1    3    3    0    0 -0.53420125561E+01  0.15202157444E+02  0.73075597622E+01  0.17693024587E+02  0.51100000000E-03 0. -1.
        -11    1    3    3    0    0  0.19176085544E+02  0.35052046730E-01  0.29751049227E+01  0.19405533618E+02  0.51100000000E-03 0.  1.
        -12    1    3    3    0    0 -0.99005888583E+01  0.16390826475E+02 -0.11238793660E+02  0.22203408189E+02  0.00000000000E+00 0.  1.
</event>
<event>
 7    1  0.5987893E-013  0.5930194E+02  0.7816164E-02  0.1266605E+00
        -11   -1    0    0    0    0  0.00000000000E+00  0.00000000000E+00  0.45593999997E+02  0.45594000000E+02  0.51100000000E-03 0. -1.
         11   -1    0    0    0    0 -0.00000000000E+00 -0.00000000000E+00 -0.45593999997E+02  0.45594000000E+02  0.51100000000E-03 0.  1.
    9900012    2    1    2    0    0 -0.47367927644E+01 -0.18869157488E+02  0.25263384861E+02  0.59301938395E+02  0.49999989728E+02 0.  0.
        -12    1    1    2    0    0  0.47367927644E+01  0.18869157488E+02 -0.25263384861E+02  0.31886061605E+02  0.00000000000E+00 0.  1.
         11    1    3    3    0    0  0.17043220636E+01 -0.15034705466E+02 -0.43151886642E+01  0.15734291710E+02  0.51100000000E-03 0.  1.
        -11    1    3    3    0    0 -0.17410614102E+02 -0.75261946286E+01  0.24354264667E+02  0.30869131778E+02  0.51100000000E-03 0. -1.
        -12    1    3    3    0    0  0.10969499274E+02  0.36917426066E+01  0.52243088585E+01  0.12698514907E+02  0.00000000000E+00 0.  1.
</event>
<event>
 7    1  0.5987893E-013  0.5930194E+02  0.7816164E-02  0.1266605E+00
        -11   -1    0    0    0    0  0.00000000000E+00  0.00000000000E+00  0.45593999997E+02  0.45594000000E+02  0.51100000000E-03 0.  1.
         11   -1    0    0    0    0 -0.00000000000E+00 -0.00000000000E+00 -0.45593999997E+02  0.45594000000E+02  0.51100000000E-03 0. -1.
    9900012    2    1    2    0    0  0.92089194996E+01 -0.10630544173E+02 -0.28616568019E+02  0.59301942969E+02  0.49999998069E+02 0.  0.
        -12    1    1    2    0    0 -0.92089194996E+01  0.10630544173E+02  0.28616568019E+02  0.31886057031E+02  0.00000000000E+00 0.  1.
         11    1    3    3    0    0  0.11580673303E+02 -0.22776956266E+02 -0.10915224628E+02  0.27785677242E+02  0.51100000000E-03 0. -1.
        -11    1    3    3    0    0 -0.26321977831E+01  0.10813111220E+02  0.23870442521E+01  0.11381995429E+02  0.51100000000E-03 0.  1.
        -12    1    3    3    0    0  0.26044397985E+00  0.13333008720E+01 -0.20088387644E+02  0.20134270297E+02  0.00000000000E+00 0.  1.
</event>
<event>
 7    1  0.5987893E-013  0.5930194E+02  0.7816164E-02  0.1266605E+00
        -11   -1    0    0    0    0  0.00000000000E+00  0.00000000000E+00  0.45593999997E+02  0.45594000000E+02  0.51100000000E-03 0.  1.
         11   -1    0    0    0    0 -0.00000000000E+00 -0.00000000000E+00 -0.45593999997E+02  0.45594000000E+02  0.51100000000E-03 0. -1.
    9900012    2    1    2    0    0 -0.69796888989E+01 -0.97656168790E+01 -0.29540443356E+02  0.59301935272E+02  0.49999984032E+02 0.  0.
        -12    1    1    2    0    0  0.69796888989E+01  0.97656168790E+01  0.29540443356E+02  0.31886064728E+02  0.00000000000E+00 0.  1.
         11    1    3    3    0    0  0.12878194766E+02  0.60103072510E+01 -0.80255564780E+01  0.16321190236E+02  0.51100000000E-03 0.  1.
        -11    1    3    3    0    0 -0.16536082387E+02 -0.22558895005E+02 -0.21738604622E+02  0.35424746939E+02  0.51100000000E-03 0. -1.
         12    1    3    3    0    0 -0.33218012779E+01  0.67829708746E+01  0.22371774399E+00  0.75559980972E+01  0.00000000000E+00 0. -1.
</event>
<event>
 7    1  0.5987893E-013  0.5930193E+02  0.7816164E-02  0.1266605E+00
        -11   -1    0    0    0    0  0.00000000000E+00  0.00000000000E+00  0.45593999997E+02  0.45594000000E+02  0.51100000000E-03 0.  1.
         11   -1    0    0    0    0 -0.00000000000E+00 -0.00000000000E+00 -0.45593999997E+02  0.45594000000E+02  0.51100000000E-03 0. -1.
    9900012    2    1    2    0    0  0.24302462100E+02  0.36960830349E+01 -0.20308889822E+02  0.59301926242E+02  0.49999967562E+02 0.  0.
        -12    1    1    2    0    0 -0.24302462100E+02 -0.36960830349E+01  0.20308889822E+02  0.31886073758E+02  0.00000000000E+00 0.  1.
         11    1    3    3    0    0 -0.30610388082E+01  0.10358005408E+02 -0.13111872792E+02  0.16987626174E+02  0.51100000000E-03 0. -1.
        -11    1    3    3    0    0  0.14661918166E+01 -0.92301037283E+01  0.78917752638E+01  0.12232115531E+02  0.51100000000E-03 0.  1.
         12    1    3    3    0    0  0.25897309092E+02  0.25681813549E+01 -0.15088792293E+02  0.30082184537E+02  0.00000000000E+00 0. -1.
</event>
<event>
 7    1  0.5987893E-013  0.5930197E+02  0.7816164E-02  0.1266605E+00
        -11   -1    0    0    0    0  0.00000000000E+00  0.00000000000E+00  0.45593999997E+02  0.45594000000E+02  0.51100000000E-03 0.  1.
         11   -1    0    0    0    0 -0.00000000000E+00 -0.00000000000E+00 -0.45593999997E+02  0.45594000000E+02  0.51100000000E-03 0. -1.
    9900012    2    1    2    0    0 -0.22102769494E+01  0.23763394750E+02 -0.21145552938E+02  0.59301973855E+02  0.50000054398E+02 0.  0.
        -12    1    1    2    0    0  0.22102769494E+01 -0.23763394750E+02  0.21145552938E+02  0.31886026145E+02  0.00000000000E+00 0.  1.
         11    1    3    3    0    0 -0.11443898822E+02  0.22236551368E+02 -0.23831625738E+02  0.34545237336E+02  0.51100000000E-03 0. -1.
        -11    1    3    3    0    0  0.15894982530E+02  0.40849594176E+00  0.62919998059E+01  0.17099900595E+02  0.51100000000E-03 0.  1.
        -12    1    3    3    0    0 -0.66613606569E+01  0.11183474398E+01 -0.36059270059E+01  0.76568359241E+01  0.00000000000E+00 0.  1.
</event>
<event>
 7    1  0.5987893E-013  0.5930196E+02  0.7816164E-02  0.1266605E+00
        -11   -1    0    0    0    0  0.00000000000E+00  0.00000000000E+00  0.45593999997E+02  0.45594000000E+02  0.51100000000E-03 0.  1.
         11   -1    0    0    0    0 -0.00000000000E+00 -0.00000000000E+00 -0.45593999997E+02  0.45594000000E+02  0.51100000000E-03 0. -1.
    9900012    2    1    2    0    0  0.23927458201E+02 -0.67114516580E+01 -0.19978810786E+02  0.59301957289E+02  0.50000024186E+02 0.  0.
        -12    1    1    2    0    0 -0.23927458201E+02  0.67114516580E+01  0.19978810786E+02  0.31886042711E+02  0.00000000000E+00 0.  1.
         11    1    3    3    0    0  0.25034138000E+02 -0.10131675735E+02 -0.22093427789E+01  0.27096865397E+02  0.51100000000E-03 0.  1.
        -11    1    3    3    0    0 -0.74803377457E+01  0.38825400628E+01 -0.22648040707E+02  0.24165332984E+02  0.51100000000E-03 0. -1.
         12    1    3    3    0    0  0.63736579475E+01 -0.46231598598E+00  0.48785726999E+01  0.80397589075E+01  0.00000000000E+00 0. -1.
</event>
<event>
 7    1  0.5987893E-013  0.5930196E+02  0.7816164E-02  0.1266605E+00
        -11   -1    0    0    0    0  0.00000000000E+00  0.00000000000E+00  0.45593999997E+02  0.45594000000E+02  0.51100000000E-03 0. -1.
         11   -1    0    0    0    0 -0.00000000000E+00 -0.00000000000E+00 -0.45593999997E+02  0.45594000000E+02  0.51100000000E-03 0.  1.
    9900012    2    1    2    0    0 -0.11208791732E+02 -0.35506543155E+01  0.29639088023E+02  0.59301957646E+02  0.50000024837E+02 0.  0.
        -12    1    1    2    0    0  0.11208791732E+02  0.35506543155E+01 -0.29639088023E+02  0.31886042354E+02  0.00000000000E+00 0.  1.
         11    1    3    3    0    0 -0.23598247754E+01  0.26065111992E+01 -0.11181994659E+02  0.11721760892E+02  0.51100000000E-03 0. -1.
        -11    1    3    3    0    0  0.58859532792E+01 -0.58881264481E+01  0.22966870280E+02  0.24429318652E+02  0.51100000000E-03 0.  1.
         12    1    3    3    0    0 -0.14734920236E+02 -0.26903906666E+00  0.17854212402E+02  0.23150878102E+02  0.00000000000E+00 0. -1.
</event>
<event>
 7    1  0.5987893E-013  0.5930197E+02  0.7816164E-02  0.1266605E+00
        -11   -1    0    0    0    0  0.00000000000E+00  0.00000000000E+00  0.45593999997E+02  0.45594000000E+02  0.51100000000E-03 0.  1.
         11   -1    0    0    0    0 -0.00000000000E+00 -0.00000000000E+00 -0.45593999997E+02  0.45594000000E+02  0.51100000000E-03 0. -1.
    9900012    2    1    2    0    0 -0.96434058129E+01 -0.25825711999E+02  0.16023605542E+02  0.59301974683E+02  0.50000055908E+02 0.  0.
        -12    1    1    2    0    0  0.96434058129E+01  0.25825711999E+02 -0.16023605542E+02  0.31886025317E+02  0.00000000000E+00 0.  1.
         11    1    3    3    0    0  0.35611258127E+01 -0.19147688170E+02 -0.99099503287E+01  0.21852292674E+02  0.51100000000E-03 0. -1.
        -11    1    3    3    0    0  0.79261893409E+00 -0.24703879057E+01  0.22217922438E+02  0.22368887744E+02  0.51100000000E-03 0.  1.
         12    1    3    3    0    0 -0.13997150560E+02 -0.42076359232E+01  0.37156334327E+01  0.15080794265E+02  0.00000000000E+00 0. -1.
</event>
<event>
 7    1  0.5987893E-013  0.5930196E+02  0.7816164E-02  0.1266605E+00
        -11   -1    0    0    0    0  0.00000000000E+00  0.00000000000E+00  0.45593999997E+02  0.45594000000E+02  0.51100000000E-03 0.  1.
         11   -1    0    0    0    0 -0.00000000000E+00 -0.00000000000E+00 -0.45593999997E+02  0.45594000000E+02  0.51100000000E-03 0. -1.
    9900012    2    1    2    0    0 -0.23288003449E+02  0.17334830363E+02 -0.13186816206E+02  0.59301959637E+02  0.50000028468E+02 0.  0.
        -12    1    1    2    0    0  0.23288003449E+02 -0.17334830363E+02  0.13186816206E+02  0.31886040363E+02  0.00000000000E+00 0.  1.
         11    1    3    3    0    0 -0.23237363101E+02  0.43285179259E+01 -0.36680781884E+01  0.23919989740E+02  0.51100000000E-03 0. -1.
        -11    1    3    3    0    0  0.14636179054E+02  0.15370328951E+01 -0.78327251060E+01  0.16671286401E+02  0.51100000000E-03 0.  1.
        -12    1    3    3    0    0 -0.14686819402E+02  0.11469279542E+02 -0.16860129120E+01  0.18710683496E+02  0.00000000000E+00 0.  1.
</event>
<event>
 7    1  0.5987893E-013  0.5930197E+02  0.7816164E-02  0.1266605E+00
        -11   -1    0    0    0    0  0.00000000000E+00  0.00000000000E+00  0.45593999997E+02  0.45594000000E+02  0.51100000000E-03 0.  1.
         11   -1    0    0    0    0 -0.00000000000E+00 -0.00000000000E+00 -0.45593999997E+02  0.45594000000E+02  0.51100000000E-03 0. -1.
    9900012    2    1    2    0    0  0.19171973252E+02 -0.21787065647E+02 -0.13209011863E+02  0.59301971989E+02  0.50000050996E+02 0.  0.
        -12    1    1    2    0    0 -0.19171973252E+02  0.21787065647E+02  0.13209011863E+02  0.31886028011E+02  0.00000000000E+00 0.  1.
         11    1    3    3    0    0  0.14585154419E+02  0.11192202415E+02 -0.26207283270E+01  0.18570415761E+02  0.51100000000E-03 0. -1.
        -11    1    3    3    0    0 -0.62057099085E+01 -0.19847558009E+02 -0.17130378435E+00  0.20795810627E+02  0.51100000000E-03 0.  1.
         12    1    3    3    0    0  0.10792528742E+02 -0.13131710053E+02 -0.10416979752E+02  0.19935745602E+02  0.00000000000E+00 0. -1.
</event>
<event>
 7    1  0.5987893E-013  0.5930195E+02  0.7816164E-02  0.1266605E+00
        -11   -1    0    0    0    0  0.00000000000E+00  0.00000000000E+00  0.45593999997E+02  0.45594000000E+02  0.51100000000E-03 0.  1.
         11   -1    0    0    0    0 -0.00000000000E+00 -0.00000000000E+00 -0.45593999997E+02  0.45594000000E+02  0.51100000000E-03 0. -1.
    9900012    2    1    2    0    0 -0.11429465452E+02  0.15230136160E+02 -0.25575975552E+02  0.59301948921E+02  0.50000008924E+02 0.  0.
        -12    1    1    2    0    0  0.11429465452E+02 -0.15230136160E+02  0.25575975552E+02  0.31886051079E+02  0.00000000000E+00 0.  1.
         11    1    3    3    0    0  0.91752305884E+01 -0.52813034321E+01  0.48562960834E+01  0.11647344513E+02  0.51100000000E-03 0. -1.
        -11    1    3    3    0    0 -0.14290996508E+02  0.23909287445E+02 -0.17582455252E+02  0.32939783549E+02  0.51100000000E-03 0.  1.
         12    1    3    3    0    0 -0.63136995330E+01 -0.33978478532E+01 -0.12849816383E+02  0.14714820859E+02  0.00000000000E+00 0. -1.
</event>
<event>
 7    1  0.5987893E-013  0.5930192E+02  0.7816164E-02  0.1266605E+00
        -11   -1    0    0    0    0  0.00000000000E+00  0.00000000000E+00  0.45593999997E+02  0.45594000000E+02  0.51100000000E-03 0.  1.
         11   -1    0    0    0    0 -0.00000000000E+00 -0.00000000000E+00 -0.45593999997E+02  0.45594000000E+02  0.51100000000E-03 0. -1.
    9900012    2    1    2    0    0  0.80965736605E+01 -0.30773439924E+02 -0.20403067438E+01  0.59301922138E+02  0.49999960079E+02 0.  0.
        -12    1    1    2    0    0 -0.80965736605E+01  0.30773439924E+02  0.20403067438E+01  0.31886077862E+02  0.00000000000E+00 0.  1.
         11    1    3    3    0    0  0.17636001152E+02 -0.16009546173E+02  0.13762533739E+02  0.27508933830E+02  0.51100000000E-03 0.  1.
        -11    1    3    3    0    0 -0.92540918965E+01 -0.17835580385E+02 -0.52069127071E+01  0.20757121301E+02  0.51100000000E-03 0. -1.
        -12    1    3    3    0    0 -0.28533559455E+00  0.30716866334E+01 -0.10595927776E+02  0.11035867008E+02  0.00000000000E+00 0.  1.
</event>
<event>
 7    1  0.5987893E-013  0.5930193E+02  0.7816164E-02  0.1266605E+00
        -11   -1    0    0    0    0  0.00000000000E+00  0.00000000000E+00  0.45593999997E+02  0.45594000000E+02  0.51100000000E-03 0.  1.
         11   -1    0    0    0    0 -0.00000000000E+00 -0.00000000000E+00 -0.45593999997E+02  0.45594000000E+02  0.51100000000E-03 0. -1.
    9900012    2    1    2    0    0 -0.30637520194E+02  0.71573436288E+00 -0.88063452135E+01  0.59301927252E+02  0.49999969405E+02 0.  0.
        -12    1    1    2    0    0  0.30637520194E+02 -0.71573436288E+00  0.88063452135E+01  0.31886072748E+02  0.00000000000E+00 0.  1.
         11    1    3    3    0    0 -0.18585931596E+02 -0.19582102399E+02 -0.71757624807E+01  0.27935410416E+02  0.51100000000E-03 0. -1.
        -11    1    3    3    0    0  0.54370781080E+00  0.36123287955E+01  0.76622382904E+01  0.84884882865E+01  0.51100000000E-03 0.  1.
         12    1    3    3    0    0 -0.12595296408E+02  0.16685507967E+02 -0.92928210232E+01  0.22878028549E+02  0.00000000000E+00 0. -1.
</event>
<event>
 7    1  0.5987893E-013  0.5930204E+02  0.7816164E-02  0.1266604E+00
        -11   -1    0    0    0    0  0.00000000000E+00  0.00000000000E+00  0.45593999997E+02  0.45594000000E+02  0.51100000000E-03 0. -1.
         11   -1    0    0    0    0 -0.00000000000E+00 -0.00000000000E+00 -0.45593999997E+02  0.45594000000E+02  0.51100000000E-03 0.  1.
    9900012    2    1    2    0    0 -0.26278836157E+02  0.12983377347E+02 -0.12552654392E+02  0.59302039934E+02  0.50000174909E+02 0.  0.
        -12    1    1    2    0    0  0.26278836157E+02 -0.12983377347E+02  0.12552654392E+02  0.31885960066E+02  0.00000000000E+00 0.  1.
         11    1    3    3    0    0 -0.21600611820E+02 -0.95731966875E+01 -0.20593025134E+02  0.31341748679E+02  0.51100000000E-03 0. -1.
        -11    1    3    3    0    0  0.72366729107E+00 -0.15109828059E+01  0.19157482927E+01  0.25449666343E+01  0.51100000000E-03 0.  1.
         12    1    3    3    0    0 -0.54018916277E+01  0.24067556840E+02  0.61246224492E+01  0.25415324621E+02  0.00000000000E+00 0. -1.
</event>
<event>
 7    1  0.5987893E-013  0.5930193E+02  0.7816164E-02  0.1266605E+00
        -11   -1    0    0    0    0  0.00000000000E+00  0.00000000000E+00  0.45593999997E+02  0.45594000000E+02  0.51100000000E-03 0. -1.
         11   -1    0    0    0    0 -0.00000000000E+00 -0.00000000000E+00 -0.45593999997E+02  0.45594000000E+02  0.51100000000E-03 0.  1.
    9900012    2    1    2    0    0  0.30703979822E+02  0.61361963187E+01 -0.60277715257E+01  0.59301932326E+02  0.49999978658E+02 0.  0.
        -12    1    1    2    0    0 -0.30703979822E+02 -0.61361963187E+01  0.60277715257E+01  0.31886067674E+02  0.00000000000E+00 0.  1.
         11    1    3    3    0    0 -0.60727227399E+01 -0.10058950168E+02 -0.14841259147E+01  0.11843271084E+02  0.51100000000E-03 0. -1.
        -11    1    3    3    0    0  0.19829232026E+02  0.20738635057E+02  0.19268906732E+01  0.28757648282E+02  0.51100000000E-03 0.  1.
        -12    1    3    3    0    0  0.16947470536E+02 -0.45434885696E+01 -0.64705362841E+01  0.18701012960E+02  0.00000000000E+00 0.  1.
</event>
<event>
 7    1  0.5987893E-013  0.5930198E+02  0.7816164E-02  0.1266605E+00
        -11   -1    0    0    0    0  0.00000000000E+00  0.00000000000E+00  0.45593999997E+02  0.45594000000E+02  0.51100000000E-03 0. -1.
         11   -1    0    0    0    0 -0.00000000000E+00 -0.00000000000E+00 -0.45593999997E+02  0.45594000000E+02  0.51100000000E-03 0.  1.
    9900012    2    1    2    0    0  0.25865866387E+02 -0.12040394759E+02  0.14237419754E+02  0.59301980005E+02  0.50000065614E+02 0.  0.
        -12    1    1    2    0    0 -0.25865866387E+02  0.12040394759E+02 -0.14237419754E+02  0.31886019995E+02  0.00000000000E+00 0.  1.
         11    1    3    3    0    0  0.22314614235E+02 -0.78245973076E+01  0.30690628701E+02  0.38743786881E+02  0.51100000000E-03 0. -1.
        -11    1    3    3    0    0  0.52664458413E+01 -0.37392453503E+01 -0.32407175869E+01  0.72263170653E+01  0.51100000000E-03 0.  1.
         12    1    3    3    0    0 -0.17151936902E+01 -0.47655210130E+00 -0.13212491361E+02  0.13331876059E+02  0.00000000000E+00 0. -1.
</event>
<event>
 7    1  0.5987893E-013  0.5930195E+02  0.7816164E-02  0.1266605E+00
        -11   -1    0    0    0    0  0.00000000000E+00  0.00000000000E+00  0.45593999997E+02  0.45594000000E+02  0.51100000000E-03 0.  1.
         11   -1    0    0    0    0 -0.00000000000E+00 -0.00000000000E+00 -0.45593999997E+02  0.45594000000E+02  0.51100000000E-03 0. -1.
    9900012    2    1    2    0    0 -0.32169337646E+01 -0.16078496305E+02 -0.27346913228E+02  0.59301947102E+02  0.50000005608E+02 0.  0.
        -12    1    1    2    0    0  0.32169337646E+01  0.16078496305E+02  0.27346913228E+02  0.31886052898E+02  0.00000000000E+00 0.  1.
         11    1    3    3    0    0 -0.16387176991E+02 -0.20928262151E+01 -0.25399751764E+01  0.16714393961E+02  0.51100000000E-03 0. -1.
        -11    1    3    3    0    0  0.57533847057E+01  0.11607782089E+01 -0.25042398873E+02  0.25721014428E+02  0.51100000000E-03 0.  1.
        -12    1    3    3    0    0  0.74168585211E+01 -0.15146448299E+02  0.23546082110E+00  0.16866538714E+02  0.00000000000E+00 0.  1.
</event>
<event>
 7    1  0.5987893E-013  0.5930203E+02  0.7816164E-02  0.1266604E+00
        -11   -1    0    0    0    0  0.00000000000E+00  0.00000000000E+00  0.45593999997E+02  0.45594000000E+02  0.51100000000E-03 0. -1.
         11   -1    0    0    0    0 -0.00000000000E+00 -0.00000000000E+00 -0.45593999997E+02  0.45594000000E+02  0.51100000000E-03 0.  1.
    9900012    2    1    2    0    0 -0.29015812773E+02  0.51563931158E+01  0.12174132851E+02  0.59302026728E+02  0.50000150825E+02 0.  0.
        -12    1    1    2    0    0  0.29015812773E+02 -0.51563931158E+01 -0.12174132851E+02  0.31885973272E+02  0.00000000000E+00 0.  1.
         11    1    3    3    0    0 -0.44329019493E+01 -0.55577163512E+01  0.44453778222E+00  0.71229519747E+01  0.51100000000E-03 0. -1.
        -11    1    3    3    0    0 -0.12205848693E+02  0.20153207193E+02  0.23027557460E+02  0.32945453485E+02  0.51100000000E-03 0.  1.
        -12    1    3    3    0    0 -0.12377062131E+02 -0.94390977259E+01 -0.11297962392E+02  0.19233621268E+02  0.00000000000E+00 0.  1.
</event>
<event>
 7    1  0.5987893E-013  0.5930193E+02  0.7816164E-02  0.1266605E+00
        -11   -1    0    0    0    0  0.00000000000E+00  0.00000000000E+00  0.45593999997E+02  0.45594000000E+02  0.51100000000E-03 0. -1.
         11   -1    0    0    0    0 -0.00000000000E+00 -0.00000000000E+00 -0.45593999997E+02  0.45594000000E+02  0.51100000000E-03 0.  1.
    9900012    2    1    2    0    0 -0.28544235698E+02 -0.53167430086E+00  0.14200904452E+02  0.59301925353E+02  0.49999965941E+02 0.  0.
        -12    1    1    2    0    0  0.28544235698E+02  0.53167430086E+00 -0.14200904452E+02  0.31886074647E+02  0.00000000000E+00 0.  1.
         11    1    3    3    0    0 -0.25202897438E+02 -0.11658865088E+02 -0.13661482803E+01  0.27802545492E+02  0.51100000000E-03 0.  1.
        -11    1    3    3    0    0 -0.38694643160E+01  0.17191278487E+02  0.17770254759E+02  0.25025881894E+02  0.51100000000E-03 0. -1.
        -12    1    3    3    0    0  0.52812605610E+00 -0.60640876995E+01 -0.22032020266E+01  0.64734979669E+01  0.00000000000E+00 0.  1.
</event>
<event>
 7    1  0.5987893E-013  0.5930194E+02  0.7816164E-02  0.1266605E+00
        -11   -1    0    0    0    0  0.00000000000E+00  0.00000000000E+00  0.45593999997E+02  0.45594000000E+02  0.51100000000E-03 0.  1.
         11   -1    0    0    0    0 -0.00000000000E+00 -0.00000000000E+00 -0.45593999997E+02  0.45594000000E+02  0.51100000000E-03 0. -1.
    9900012    2    1    2    0    0 -0.77327865092E+00  0.96052853990E+01 -0.30395092196E+02  0.59301935692E+02  0.49999984798E+02 0.  0.
        -12    1    1    2    0    0  0.77327865092E+00 -0.96052853990E+01  0.30395092196E+02  0.31886064308E+02  0.00000000000E+00 0.  1.
         11    1    3    3    0    0 -0.17159391696E+02 -0.33991905040E+01 -0.14890817769E+02  0.22972498200E+02  0.51100000000E-03 0.  1.
        -11    1    3    3    0    0  0.92618094950E+01  0.13812458169E+02 -0.21361098865E+02  0.27071417783E+02  0.51100000000E-03 0. -1.
         12    1    3    3    0    0  0.71243035504E+01 -0.80798226628E+00  0.58568244387E+01  0.92580197087E+01  0.00000000000E+00 0. -1.
</event>
<event>
 7    1  0.5987893E-013  0.5930199E+02  0.7816164E-02  0.1266605E+00
        -11   -1    0    0    0    0  0.00000000000E+00  0.00000000000E+00  0.45593999997E+02  0.45594000000E+02  0.51100000000E-03 0. -1.
         11   -1    0    0    0    0 -0.00000000000E+00 -0.00000000000E+00 -0.45593999997E+02  0.45594000000E+02  0.51100000000E-03 0.  1.
    9900012    2    1    2    0    0 -0.87524315796E+01  0.28529520712E+01  0.30528239130E+02  0.59301987731E+02  0.50000079704E+02 0.  0.
        -12    1    1    2    0    0  0.87524315796E+01 -0.28529520712E+01 -0.30528239130E+02  0.31886012269E+02  0.00000000000E+00 0.  1.
         11    1    3    3    0    0  0.11946990754E+02 -0.70321250589E+01  0.20449453223E+01  0.14012964446E+02  0.51100000000E-03 0. -1.
        -11    1    3    3    0    0 -0.19926951599E+02 -0.43416395958E+01  0.20678655739E+02  0.29043760738E+02  0.51100000000E-03 0.  1.
         12    1    3    3    0    0 -0.77247073499E+00  0.14226716726E+02  0.78046380690E+01  0.16245262547E+02  0.00000000000E+00 0. -1.
</event>
<event>
 7    1  0.5987893E-013  0.5930195E+02  0.7816164E-02  0.1266605E+00
        -11   -1    0    0    0    0  0.00000000000E+00  0.00000000000E+00  0.45593999997E+02  0.45594000000E+02  0.51100000000E-03 0.  1.
         11   -1    0    0    0    0 -0.00000000000E+00 -0.00000000000E+00 -0.45593999997E+02  0.45594000000E+02  0.51100000000E-03 0. -1.
    9900012    2    1    2    0    0 -0.41494527920E+01 -0.80966477898E+01 -0.30560537033E+02  0.59301951521E+02  0.50000013665E+02 0.  0.
        -12    1    1    2    0    0  0.41494527920E+01  0.80966477898E+01  0.30560537033E+02  0.31886048479E+02  0.00000000000E+00 0.  1.
         11    1    3    3    0    0  0.32205893218E+01 -0.21503941762E+02 -0.34281400712E+02  0.40595641908E+02  0.51100000000E-03 0. -1.
        -11    1    3    3    0    0 -0.26736255992E+01  0.13229943362E+02  0.17513256943E+01  0.13610540663E+02  0.51100000000E-03 0.  1.
         12    1    3    3    0    0 -0.46964165146E+01  0.17735061033E+00  0.19695379847E+01  0.50957689499E+01  0.00000000000E+00 0. -1.
</event>
<event>
 7    1  0.5987893E-013  0.5930192E+02  0.7816164E-02  0.1266605E+00
        -11   -1    0    0    0    0  0.00000000000E+00  0.00000000000E+00  0.45593999997E+02  0.45594000000E+02  0.51100000000E-03 0.  1.
         11   -1    0    0    0    0 -0.00000000000E+00 -0.00000000000E+00 -0.45593999997E+02  0.45594000000E+02  0.51100000000E-03 0. -1.
    9900012    2    1    2    0    0 -0.21811900848E+02  0.79742165901E+01 -0.21848905120E+02  0.59301924610E+02  0.49999964587E+02 0.  0.
        -12    1    1    2    0    0  0.21811900848E+02 -0.79742165901E+01  0.21848905120E+02  0.31886075390E+02  0.00000000000E+00 0.  1.
         11    1    3    3    0    0 -0.19489108074E+02 -0.64569307366E+01 -0.17960046767E+02  0.27277840241E+02  0.51100000000E-03 0. -1.
        -11    1    3    3    0    0 -0.12714231187E+02  0.13942452753E+02  0.35954776315E+01  0.19208621062E+02  0.51100000000E-03 0.  1.
        -12    1    3    3    0    0  0.10391438413E+02  0.48869457388E+00 -0.74843359840E+01  0.12815463308E+02  0.00000000000E+00 0.  1.
</event>
<event>
 7    1  0.5987893E-013  0.5930204E+02  0.7816164E-02  0.1266604E+00
        -11   -1    0    0    0    0  0.00000000000E+00  0.00000000000E+00  0.45593999997E+02  0.45594000000E+02  0.51100000000E-03 0. -1.
         11   -1    0    0    0    0 -0.00000000000E+00 -0.00000000000E+00 -0.45593999997E+02  0.45594000000E+02  0.51100000000E-03 0.  1.
    9900012    2    1    2    0    0  0.22118617089E+02  0.65980142544E+01  0.21998811750E+02  0.59302035494E+02  0.50000166813E+02 0.  0.
        -12    1    1    2    0    0 -0.22118617089E+02 -0.65980142544E+01 -0.21998811750E+02  0.31885964506E+02  0.00000000000E+00 0.  1.
         11    1    3    3    0    0  0.30226339621E+01 -0.70658431797E+01  0.53835836896E+01  0.93832526084E+01  0.51100000000E-03 0. -1.
        -11    1    3    3    0    0  0.49457437925E+01  0.25355692594E+02  0.18038502096E+02  0.31508079705E+02  0.51100000000E-03 0.  1.
        -12    1    3    3    0    0  0.14150239334E+02 -0.11691835160E+02 -0.14232740350E+01  0.18410703181E+02  0.00000000000E+00 0.  1.
</event>
<event>
 7    1  0.5987893E-013  0.5930194E+02  0.7816164E-02  0.1266605E+00
        -11   -1    0    0    0    0  0.00000000000E+00  0.00000000000E+00  0.45593999997E+02  0.45594000000E+02  0.51100000000E-03 0.  1.
         11   -1    0    0    0    0 -0.00000000000E+00 -0.00000000000E+00 -0.45593999997E+02  0.45594000000E+02  0.51100000000E-03 0. -1.
    9900012    2    1    2    0    0  0.20932798794E+02 -0.21673342595E+02 -0.10430950709E+02  0.59301943842E+02  0.49999999662E+02 0.  0.
        -12    1    1    2    0    0 -0.20932798794E+02  0.21673342595E+02  0.10430950709E+02  0.31886056158E+02  0.00000000000E+00 0.  1.
         11    1    3    3    0    0  0.10865579158E+02 -0.36478192748E+01 -0.15842144145E+02  0.19553540019E+02  0.51100000000E-03 0. -1.
        -11    1    3    3    0    0  0.16710274917E+02 -0.10166804849E+02  0.15786249364E+02  0.25135689326E+02  0.51100000000E-03 0.  1.
        -12    1    3    3    0    0 -0.66430552804E+01 -0.78587184708E+01 -0.10375055928E+02  0.14612714497E+02  0.00000000000E+00 0.  1.
</event>
<event>
 7    1  0.5987893E-013  0.5930196E+02  0.7816164E-02  0.1266605E+00
        -11   -1    0    0    0    0  0.00000000000E+00  0.00000000000E+00  0.45593999997E+02  0.45594000000E+02  0.51100000000E-03 0. -1.
         11   -1    0    0    0    0 -0.00000000000E+00 -0.00000000000E+00 -0.45593999997E+02  0.45594000000E+02  0.51100000000E-03 0.  1.
    9900012    2    1    2    0    0 -0.38557709875E+01  0.34655144420E+01  0.31461770599E+02  0.59301956509E+02  0.50000022763E+02 0.  0.
        -12    1    1    2    0    0  0.38557709875E+01 -0.34655144420E+01 -0.31461770599E+02  0.31886043491E+02  0.00000000000E+00 0.  1.
         11    1    3    3    0    0 -0.18125890693E+02  0.94889693968E+01  0.10214388941E+02  0.22867492108E+02  0.51100000000E-03 0. -1.
        -11    1    3    3    0    0  0.75692511500E+01 -0.15299518366E+02  0.17367067618E+02  0.24351259990E+02  0.51100000000E-03 0.  1.
         12    1    3    3    0    0  0.67008685551E+01  0.92760634106E+01  0.38803140402E+01  0.12083204411E+02  0.00000000000E+00 0. -1.
</event>
<event>
 7    1  0.5987893E-013  0.5930192E+02  0.7816164E-02  0.1266605E+00
        -11   -1    0    0    0    0  0.00000000000E+00  0.00000000000E+00  0.45593999997E+02  0.45594000000E+02  0.51100000000E-03 0. -1.
         11   -1    0    0    0    0 -0.00000000000E+00 -0.00000000000E+00 -0.45593999997E+02  0.45594000000E+02  0.51100000000E-03 0.  1.
    9900012    2    1    2    0    0  0.61522345441E+01  0.15235879323E+02  0.27326546963E+02  0.59301918749E+02  0.49999953898E+02 0.  0.
        -12    1    1    2    0    0 -0.61522345441E+01 -0.15235879323E+02 -0.27326546963E+02  0.31886081251E+02  0.00000000000E+00 0.  1.
         11    1    3    3    0    0 -0.14808268268E+02 -0.46196537044E+01  0.10530351802E+02  0.18748715123E+02  0.51100000000E-03 0. -1.
        -11    1    3    3    0    0  0.24147892872E+01  0.15942444437E+02  0.14944118330E+01  0.16193393990E+02  0.51100000000E-03 0.  1.
         12    1    3    3    0    0  0.18545713525E+02  0.39130885904E+01  0.15301783328E+02  0.24359809635E+02  0.00000000000E+00 0. -1.
</event>
<event>
 7    1  0.5987893E-013  0.5930192E+02  0.7816164E-02  0.1266605E+00
        -11   -1    0    0    0    0  0.00000000000E+00  0.00000000000E+00  0.45593999997E+02  0.45594000000E+02  0.51100000000E-03 0. -1.
         11   -1    0    0    0    0 -0.00000000000E+00 -0.00000000000E+00 -0.45593999997E+02  0.45594000000E+02  0.51100000000E-03 0.  1.
    9900012    2    1    2    0    0  0.20524812548E+02  0.17696715687E+02  0.16801197358E+02  0.59301922962E+02  0.49999961581E+02 0.  0.
        -12    1    1    2    0    0 -0.20524812548E+02 -0.17696715687E+02 -0.16801197358E+02  0.31886077038E+02  0.00000000000E+00 0.  1.
         11    1    3    3    0    0  0.15551089805E+02  0.24249762235E+02  0.26382348183E+02  0.39062970426E+02  0.51100000000E-03 0. -1.
        -11    1    3    3    0    0  0.88845423516E+01 -0.85495661293E+01 -0.99338057481E+01  0.15833845733E+02  0.51100000000E-03 0.  1.
        -12    1    3    3    0    0 -0.39108196084E+01  0.19965195812E+01  0.35265492254E+00  0.44051068026E+01  0.00000000000E+00 0.  1.
</event>
<event>
 7    1  0.5987893E-013  0.5930215E+02  0.7816164E-02  0.1266604E+00
        -11   -1    0    0    0    0  0.00000000000E+00  0.00000000000E+00  0.45593999997E+02  0.45594000000E+02  0.51100000000E-03 0.  1.
         11   -1    0    0    0    0 -0.00000000000E+00 -0.00000000000E+00 -0.45593999997E+02  0.45594000000E+02  0.51100000000E-03 0. -1.
    9900012    2    1    2    0    0  0.17906268230E+02 -0.10280731268E+02 -0.24297732920E+02  0.59302145732E+02  0.50000367859E+02 0.  0.
        -12    1    1    2    0    0 -0.17906268230E+02  0.10280731268E+02  0.24297732920E+02  0.31885854268E+02  0.00000000000E+00 0.  1.
         11    1    3    3    0    0 -0.14825992420E+02 -0.74101895864E+01 -0.17307847287E+02  0.23964192849E+02  0.51100000000E-03 0. -1.
        -11    1    3    3    0    0  0.18911840069E+02  0.18092258401E+01  0.35683519156E+00  0.19001534794E+02  0.51100000000E-03 0.  1.
         12    1    3    3    0    0  0.13820420581E+02 -0.46797675219E+01 -0.73467208249E+01  0.16336418089E+02  0.00000000000E+00 0. -1.
</event>
<event>
 7    1  0.5987893E-013  0.5930192E+02  0.7816164E-02  0.1266605E+00
        -11   -1    0    0    0    0  0.00000000000E+00  0.00000000000E+00  0.45593999997E+02  0.45594000000E+02  0.51100000000E-03 0. -1.
         11   -1    0    0    0    0 -0.00000000000E+00 -0.00000000000E+00 -0.45593999997E+02  0.45594000000E+02  0.51100000000E-03 0.  1.
    9900012    2    1    2    0    0 -0.22969455779E+02 -0.51672436297E+01  0.21504081605E+02  0.59301924180E+02  0.49999963802E+02 0.  0.
        -12    1    1    2    0    0  0.22969455779E+02  0.51672436297E+01 -0.21504081605E+02  0.31886075820E+02  0.00000000000E+00 0.  1.
         11    1    3    3    0    0 -0.17018067916E+02 -0.18815695887E+01  0.36031717609E+02  0.39892851663E+02  0.51100000000E-03 0. -1.
        -11    1    3    3    0    0 -0.90626580700E+01 -0.19869134345E+01 -0.89469945367E+01  0.12889077073E+02  0.51100000000E-03 0.  1.
         12    1    3    3    0    0  0.31112702063E+01 -0.12987606064E+01 -0.55806414667E+01  0.65199954439E+01  0.00000000000E+00 0. -1.
</event>
<event>
 7    1  0.5987893E-013  0.5930192E+02  0.7816164E-02  0.1266605E+00
        -11   -1    0    0    0    0  0.00000000000E+00  0.00000000000E+00  0.45593999997E+02  0.45594000000E+02  0.51100000000E-03 0.  1.
         11   -1    0    0    0    0 -0.00000000000E+00 -0.00000000000E+00 -0.45593999997E+02  0.45594000000E+02  0.51100000000E-03 0. -1.
    9900012    2    1    2    0    0  0.28481497723E+02 -0.14311355742E+02 -0.84359504677E+00  0.59301917326E+02  0.49999951302E+02 0.  0.
        -12    1    1    2    0    0 -0.28481497723E+02  0.14311355742E+02  0.84359504677E+00  0.31886082674E+02  0.00000000000E+00 0.  1.
         11    1    3    3    0    0  0.14150673285E+02 -0.21360411210E+02  0.11182746772E+02  0.27956440172E+02  0.51100000000E-03 0. -1.
        -11    1    3    3    0    0  0.20114610871E+02  0.91116897130E+01 -0.63346217362E+01  0.22972764151E+02  0.51100000000E-03 0.  1.
         12    1    3    3    0    0 -0.57837864329E+01 -0.20626342454E+01 -0.56917200826E+01  0.83727130030E+01  0.00000000000E+00 0. -1.
</event>
<event>
 7    1  0.5987893E-013  0.5930195E+02  0.7816164E-02  0.1266605E+00
        -11   -1    0    0    0    0  0.00000000000E+00  0.00000000000E+00  0.45593999997E+02  0.45594000000E+02  0.51100000000E-03 0.  1.
         11   -1    0    0    0    0 -0.00000000000E+00 -0.00000000000E+00 -0.45593999997E+02  0.45594000000E+02  0.51100000000E-03 0. -1.
    9900012    2    1    2    0    0  0.44396730999E+01  0.24870028643E+02 -0.19454847507E+02  0.59301951115E+02  0.50000012926E+02 0.  0.
        -12    1    1    2    0    0 -0.44396730999E+01 -0.24870028643E+02  0.19454847507E+02  0.31886048885E+02  0.00000000000E+00 0.  1.
         11    1    3    3    0    0 -0.17027636596E+02  0.45780129151E+01 -0.14015041342E+02  0.22523765102E+02  0.51100000000E-03 0. -1.
        -11    1    3    3    0    0  0.31739722458E+01  0.17550976158E+02 -0.18036248486E+01  0.17926626196E+02  0.51100000000E-03 0.  1.
         12    1    3    3    0    0  0.18293337450E+02  0.27410395706E+01 -0.36361813162E+01  0.18851559818E+02  0.00000000000E+00 0. -1.
</event>
<event>
 7    1  0.5987893E-013  0.5930194E+02  0.7816164E-02  0.1266605E+00
        -11   -1    0    0    0    0  0.00000000000E+00  0.00000000000E+00  0.45593999997E+02  0.45594000000E+02  0.51100000000E-03 0. -1.
         11   -1    0    0    0    0 -0.00000000000E+00 -0.00000000000E+00 -0.45593999997E+02  0.45594000000E+02  0.51100000000E-03 0.  1.
    9900012    2    1    2    0    0  0.28545706909E+02  0.11838771670E+02  0.78553579911E+01  0.59301944321E+02  0.50000000535E+02 0.  0.
        -12    1    1    2    0    0 -0.28545706909E+02 -0.11838771670E+02 -0.78553579911E+01  0.31886055679E+02  0.00000000000E+00 0.  1.
         11    1    3    3    0    0  0.20835152002E+02  0.18278726222E+02  0.25243132771E+02  0.37489080325E+02  0.51100000000E-03 0. -1.
        -11    1    3    3    0    0  0.61600250431E+01 -0.49949161604E+01 -0.52951899131E+01  0.95359389919E+01  0.51100000000E-03 0.  1.
         12    1    3    3    0    0  0.15505298636E+01 -0.14450383914E+01 -0.12092584866E+02  0.12276925004E+02  0.00000000000E+00 0. -1.
</event>
<event>
 7    1  0.5987893E-013  0.5930192E+02  0.7816164E-02  0.1266605E+00
        -11   -1    0    0    0    0  0.00000000000E+00  0.00000000000E+00  0.45593999997E+02  0.45594000000E+02  0.51100000000E-03 0.  1.
         11   -1    0    0    0    0 -0.00000000000E+00 -0.00000000000E+00 -0.45593999997E+02  0.45594000000E+02  0.51100000000E-03 0. -1.
    9900012    2    1    2    0    0  0.18407844723E+02  0.33380698963E+00 -0.26033855301E+02  0.59301924727E+02  0.49999964801E+02 0.  0.
        -12    1    1    2    0    0 -0.18407844723E+02 -0.33380698963E+00  0.26033855301E+02  0.31886075273E+02  0.00000000000E+00 0.  1.
         11    1    3    3    0    0  0.23426342334E+02 -0.15667507960E+02 -0.17649691036E+02  0.33253209090E+02  0.51100000000E-03 0. -1.
        -11    1    3    3    0    0 -0.35547654223E+01  0.98045810601E+00  0.47697004611E+01  0.60289052120E+01  0.51100000000E-03 0.  1.
         12    1    3    3    0    0 -0.14637321886E+01  0.15020856844E+02 -0.13153864726E+02  0.20019810426E+02  0.00000000000E+00 0. -1.
</event>
<event>
 7    1  0.5987893E-013  0.5930197E+02  0.7816164E-02  0.1266605E+00
        -11   -1    0    0    0    0  0.00000000000E+00  0.00000000000E+00  0.45593999997E+02  0.45594000000E+02  0.51100000000E-03 0.  1.
         11   -1    0    0    0    0 -0.00000000000E+00 -0.00000000000E+00 -0.45593999997E+02  0.45594000000E+02  0.51100000000E-03 0. -1.
    9900012    2    1    2    0    0 -0.25861250120E+02  0.16140397977E+02  0.93489282405E+01  0.59301966006E+02  0.50000040083E+02 0.  0.
        -12    1    1    2    0    0  0.25861250120E+02 -0.16140397977E+02 -0.93489282405E+01  0.31886033994E+02  0.00000000000E+00 0.  1.
         11    1    3    3    0    0  0.49208571451E-01  0.49814737842E+00 -0.29611413423E+01  0.30031534434E+01  0.51100000000E-03 0. -1.
        -11    1    3    3    0    0 -0.22321834336E+01  0.18270987237E+02  0.23604832472E+02  0.29933254647E+02  0.51100000000E-03 0.  1.
        -12    1    3    3    0    0 -0.23678275258E+02 -0.26287366377E+01 -0.11294762889E+02  0.26365557916E+02  0.00000000000E+00 0.  1.
</event>
<event>
 7    1  0.7787063E-013  0.5930193E+02  0.7816164E-02  0.1266605E+00
        -11   -1    0    0    0    0  0.00000000000E+00  0.00000000000E+00  0.45593999997E+02  0.45594000000E+02  0.51100000000E-03 0. -1.
         11   -1    0    0    0    0 -0.00000000000E+00 -0.00000000000E+00 -0.45593999997E+02  0.45594000000E+02  0.51100000000E-03 0.  1.
    9900012    2    1    2    0    0 -0.13410127001E+02  0.85946128866E+01  0.27622859600E+02  0.59301933304E+02  0.49999980443E+02 0.  0.
        -12    1    1    2    0    0  0.13410127001E+02 -0.85946128866E+01 -0.27622859600E+02  0.31886066696E+02  0.00000000000E+00 0.  1.
         11    1    3    3    0    0 -0.12643565682E+02  0.15643719971E+02  0.24620850494E+02  0.31792640768E+02  0.51100000000E-03 0. -1.
        -11    1    3    3    0    0  0.89498695362E+01 -0.10653497921E+02  0.79502993948E+01  0.16025119138E+02  0.51100000000E-03 0.  1.
        -12    1    3    3    0    0 -0.97164308549E+01  0.36043908369E+01 -0.49482902887E+01  0.11484173398E+02  0.00000000000E+00 0.  1.
</event>
<event>
 7    1  0.5987893E-013  0.5930196E+02  0.7816164E-02  0.1266605E+00
        -11   -1    0    0    0    0  0.00000000000E+00  0.00000000000E+00  0.45593999997E+02  0.45594000000E+02  0.51100000000E-03 0. -1.
         11   -1    0    0    0    0 -0.00000000000E+00 -0.00000000000E+00 -0.45593999997E+02  0.45594000000E+02  0.51100000000E-03 0.  1.
    9900012    2    1    2    0    0 -0.64441139153E+01 -0.23599024509E+02  0.20451869515E+02  0.59301960287E+02  0.50000029653E+02 0.  0.
        -12    1    1    2    0    0  0.64441139153E+01  0.23599024509E+02 -0.20451869515E+02  0.31886039713E+02  0.00000000000E+00 0.  1.
         11    1    3    3    0    0 -0.85942325828E+01 -0.14738847633E+01  0.16421379551E+02  0.18592871661E+02  0.51100000000E-03 0. -1.
        -11    1    3    3    0    0 -0.61846303845E+01 -0.25459624907E+02 -0.63769557567E+01  0.26964934979E+02  0.51100000000E-03 0.  1.
         12    1    3    3    0    0  0.83347490520E+01  0.33344851615E+01  0.10407445721E+02  0.13744153647E+02  0.00000000000E+00 0. -1.
</event>
<event>
 7    1  0.5987893E-013  0.5930201E+02  0.7816164E-02  0.1266605E+00
        -11   -1    0    0    0    0  0.00000000000E+00  0.00000000000E+00  0.45593999997E+02  0.45594000000E+02  0.51100000000E-03 0.  1.
         11   -1    0    0    0    0 -0.00000000000E+00 -0.00000000000E+00 -0.45593999997E+02  0.45594000000E+02  0.51100000000E-03 0. -1.
    9900012    2    1    2    0    0 -0.19143175976E+02 -0.21398747205E+02 -0.13868986150E+02  0.59302010205E+02  0.50000120691E+02 0.  0.
        -12    1    1    2    0    0  0.19143175976E+02  0.21398747205E+02  0.13868986150E+02  0.31885989795E+02  0.00000000000E+00 0.  1.
         11    1    3    3    0    0 -0.16635031469E+01  0.12324650009E+02  0.82435179424E+00  0.12463699158E+02  0.51100000000E-03 0. -1.
        -11    1    3    3    0    0  0.42637743225E+00 -0.15593179556E+02  0.29087965712E+01  0.15867896652E+02  0.51100000000E-03 0.  1.
         12    1    3    3    0    0 -0.17906050261E+02 -0.18130217658E+02 -0.17602134515E+02  0.30970414395E+02  0.00000000000E+00 0. -1.
</event>
<event>
 7    1  0.5987893E-013  0.5930189E+02  0.7816164E-02  0.1266605E+00
        -11   -1    0    0    0    0  0.00000000000E+00  0.00000000000E+00  0.45593999997E+02  0.45594000000E+02  0.51100000000E-03 0.  1.
         11   -1    0    0    0    0 -0.00000000000E+00 -0.00000000000E+00 -0.45593999997E+02  0.45594000000E+02  0.51100000000E-03 0. -1.
    9900012    2    1    2    0    0  0.23424576961E+02  0.13272988792E+02 -0.17083355340E+02  0.59301889121E+02  0.49999899864E+02 0.  0.
        -12    1    1    2    0    0 -0.23424576961E+02 -0.13272988792E+02  0.17083355340E+02  0.31886110879E+02  0.00000000000E+00 0.  1.
         11    1    3    3    0    0  0.35736926118E+02  0.22185896851E+00 -0.22067623509E+01  0.35805682651E+02  0.51100000000E-03 0. -1.
        -11    1    3    3    0    0 -0.99586222772E+01  0.11074453497E+02 -0.10830934497E+02  0.18415396282E+02  0.51100000000E-03 0.  1.
         12    1    3    3    0    0 -0.23537268798E+01  0.19766763267E+01 -0.40456584925E+01  0.50808101876E+01  0.00000000000E+00 0. -1.
</event>
<event>
 7    1  0.5987893E-013  0.5930196E+02  0.7816164E-02  0.1266605E+00
        -11   -1    0    0    0    0  0.00000000000E+00  0.00000000000E+00  0.45593999997E+02  0.45594000000E+02  0.51100000000E-03 0.  1.
         11   -1    0    0    0    0 -0.00000000000E+00 -0.00000000000E+00 -0.45593999997E+02  0.45594000000E+02  0.51100000000E-03 0. -1.
    9900012    2    1    2    0    0 -0.92576503942E+00 -0.16267709411E+02 -0.27408467720E+02  0.59301960529E+02  0.50000030094E+02 0.  0.
        -12    1    1    2    0    0  0.92576503942E+00  0.16267709411E+02  0.27408467720E+02  0.31886039471E+02  0.00000000000E+00 0.  1.
         11    1    3    3    0    0 -0.57255391116E+00 -0.24478316227E+02 -0.17874489833E+02  0.30315230006E+02  0.51100000000E-03 0. -1.
        -11    1    3    3    0    0 -0.12499622849E+01  0.14433718003E+02  0.31533506173E+01  0.14826943093E+02  0.51100000000E-03 0.  1.
         12    1    3    3    0    0  0.89675115663E+00 -0.62231111869E+01 -0.12687328504E+02  0.14159787430E+02  0.00000000000E+00 0. -1.
</event>
<event>
 7    1  0.5987893E-013  0.5930195E+02  0.7816164E-02  0.1266605E+00
        -11   -1    0    0    0    0  0.00000000000E+00  0.00000000000E+00  0.45593999997E+02  0.45594000000E+02  0.51100000000E-03 0. -1.
         11   -1    0    0    0    0 -0.00000000000E+00 -0.00000000000E+00 -0.45593999997E+02  0.45594000000E+02  0.51100000000E-03 0.  1.
    9900012    2    1    2    0    0 -0.42154125679E+01 -0.26463967932E+02  0.17280299931E+02  0.59301951835E+02  0.50000014239E+02 0.  0.
        -12    1    1    2    0    0  0.42154125679E+01  0.26463967932E+02 -0.17280299931E+02  0.31886048165E+02  0.00000000000E+00 0.  1.
         11    1    3    3    0    0 -0.87332295719E+01 -0.27020878774E+02  0.22820863581E+02  0.36430605310E+02  0.51100000000E-03 0. -1.
        -11    1    3    3    0    0  0.11423264755E+02  0.39742393064E+01 -0.83204344395E+01  0.14680435459E+02  0.51100000000E-03 0.  1.
         12    1    3    3    0    0 -0.69054477511E+01 -0.34173284653E+01  0.27798707903E+01  0.81909110661E+01  0.00000000000E+00 0. -1.
</event>
<event>
 7    1  0.5987893E-013  0.5930192E+02  0.7816164E-02  0.1266605E+00
        -11   -1    0    0    0    0  0.00000000000E+00  0.00000000000E+00  0.45593999997E+02  0.45594000000E+02  0.51100000000E-03 0. -1.
         11   -1    0    0    0    0 -0.00000000000E+00 -0.00000000000E+00 -0.45593999997E+02  0.45594000000E+02  0.51100000000E-03 0.  1.
    9900012    2    1    2    0    0 -0.14998693406E+02  0.36966913736E+00  0.28135827007E+02  0.59301918075E+02  0.49999952668E+02 0.  0.
        -12    1    1    2    0    0  0.14998693406E+02 -0.36966913736E+00 -0.28135827007E+02  0.31886081925E+02  0.00000000000E+00 0.  1.
         11    1    3    3    0    0  0.37993961817E+01  0.17815305960E+02  0.64432925223E+01  0.19321919071E+02  0.51100000000E-03 0. -1.
        -11    1    3    3    0    0 -0.22291692947E+02 -0.94267048291E+01  0.12313391603E+02  0.27155145947E+02  0.51100000000E-03 0.  1.
         12    1    3    3    0    0  0.34936033588E+01 -0.80189319931E+01  0.93791428817E+01  0.12824853057E+02  0.00000000000E+00 0. -1.
</event>
<event>
 7    1  0.5987893E-013  0.5930194E+02  0.7816164E-02  0.1266605E+00
        -11   -1    0    0    0    0  0.00000000000E+00  0.00000000000E+00  0.45593999997E+02  0.45594000000E+02  0.51100000000E-03 0.  1.
         11   -1    0    0    0    0 -0.00000000000E+00 -0.00000000000E+00 -0.45593999997E+02  0.45594000000E+02  0.51100000000E-03 0. -1.
    9900012    2    1    2    0    0 -0.48715287805E+01  0.22859573360E+02  0.21689379747E+02  0.59301935949E+02  0.49999985266E+02 0.  0.
        -12    1    1    2    0    0  0.48715287805E+01 -0.22859573360E+02 -0.21689379747E+02  0.31886064051E+02  0.00000000000E+00 0.  1.
         11    1    3    3    0    0  0.60203241660E+00  0.12713367349E+02 -0.85561567381E+01  0.15336230657E+02  0.51100000000E-03 0. -1.
        -11    1    3    3    0    0  0.53123638939E+01  0.16961726296E+02  0.23703900236E+02  0.29627626563E+02  0.51100000000E-03 0.  1.
        -12    1    3    3    0    0 -0.10785925091E+02 -0.68155202848E+01  0.65416362495E+01  0.14338078729E+02  0.00000000000E+00 0.  1.
</event>
<event>
 7    1  0.5987893E-013  0.5930195E+02  0.7816164E-02  0.1266605E+00
        -11   -1    0    0    0    0  0.00000000000E+00  0.00000000000E+00  0.45593999997E+02  0.45594000000E+02  0.51100000000E-03 0.  1.
         11   -1    0    0    0    0 -0.00000000000E+00 -0.00000000000E+00 -0.45593999997E+02  0.45594000000E+02  0.51100000000E-03 0. -1.
    9900012    2    1    2    0    0  0.30892487472E+02 -0.13812491175E+01 -0.77760221157E+01  0.59301950522E+02  0.50000011845E+02 0.  0.
        -12    1    1    2    0    0 -0.30892487472E+02  0.13812491175E+01  0.77760221157E+01  0.31886049478E+02  0.00000000000E+00 0.  1.
         11    1    3    3    0    0  0.23048101502E+02 -0.16451313934E+02 -0.41249052657E+01  0.28616001760E+02  0.51100000000E-03 0. -1.
        -11    1    3    3    0    0  0.69907281988E+01  0.22147605981E+02 -0.16583893193E+01  0.23283835312E+02  0.51100000000E-03 0.  1.
        -12    1    3    3    0    0  0.85365777166E+00 -0.70775411644E+01 -0.19927275307E+01  0.74021134507E+01  0.00000000000E+00 0.  1.
</event>
<event>
 7    1  0.5987893E-013  0.5930194E+02  0.7816164E-02  0.1266605E+00
        -11   -1    0    0    0    0  0.00000000000E+00  0.00000000000E+00  0.45593999997E+02  0.45594000000E+02  0.51100000000E-03 0. -1.
         11   -1    0    0    0    0 -0.00000000000E+00 -0.00000000000E+00 -0.45593999997E+02  0.45594000000E+02  0.51100000000E-03 0.  1.
    9900012    2    1    2    0    0  0.21098466510E+02 -0.17250529669E+02  0.16552793843E+02  0.59301936478E+02  0.49999986231E+02 0.  0.
        -12    1    1    2    0    0 -0.21098466510E+02  0.17250529669E+02 -0.16552793843E+02  0.31886063522E+02  0.00000000000E+00 0.  1.
         11    1    3    3    0    0  0.93852427880E+01 -0.96103248019E+01  0.13067836382E+02  0.18740583581E+02  0.51100000000E-03 0. -1.
        -11    1    3    3    0    0 -0.12814050479E+02 -0.92918200464E+01  0.13094039101E+01  0.15882454103E+02  0.51100000000E-03 0.  1.
        -12    1    3    3    0    0  0.24527274201E+02  0.16516151794E+01  0.21755535515E+01  0.24678898794E+02  0.00000000000E+00 0.  1.
</event>
<event>
 7    1  0.5987893E-013  0.5930194E+02  0.7816164E-02  0.1266605E+00
        -11   -1    0    0    0    0  0.00000000000E+00  0.00000000000E+00  0.45593999997E+02  0.45594000000E+02  0.51100000000E-03 0.  1.
         11   -1    0    0    0    0 -0.00000000000E+00 -0.00000000000E+00 -0.45593999997E+02  0.45594000000E+02  0.51100000000E-03 0. -1.
    9900012    2    1    2    0    0 -0.19201107836E+02 -0.22482089994E+02 -0.11941268680E+02  0.59301940188E+02  0.49999992997E+02 0.  0.
        -12    1    1    2    0    0  0.19201107836E+02  0.22482089994E+02  0.11941268680E+02  0.31886059812E+02  0.00000000000E+00 0.  1.
         11    1    3    3    0    0  0.92150143875E+01  0.43284043697E+01 -0.50110442823E+01  0.11347340640E+02  0.51100000000E-03 0. -1.
        -11    1    3    3    0    0 -0.13037973843E+02 -0.28737598576E+02 -0.75363172851E+01  0.32444327891E+02  0.51100000000E-03 0.  1.
        -12    1    3    3    0    0 -0.15378148381E+02  0.19271042114E+01  0.60609288746E+00  0.15510271657E+02  0.00000000000E+00 0.  1.
</event>
<event>
 7    1  0.5987893E-013  0.5930191E+02  0.7816164E-02  0.1266605E+00
        -11   -1    0    0    0    0  0.00000000000E+00  0.00000000000E+00  0.45593999997E+02  0.45594000000E+02  0.51100000000E-03 0.  1.
         11   -1    0    0    0    0 -0.00000000000E+00 -0.00000000000E+00 -0.45593999997E+02  0.45594000000E+02  0.51100000000E-03 0. -1.
    9900012    2    1    2    0    0  0.17802531494E+02  0.94572621341E+01 -0.24705316541E+02  0.59301912124E+02  0.49999941815E+02 0.  0.
        -12    1    1    2    0    0 -0.17802531494E+02 -0.94572621341E+01  0.24705316541E+02  0.31886087876E+02  0.00000000000E+00 0.  1.
         11    1    3    3    0    0  0.19094096403E+02  0.19064602467E+02 -0.27284811134E+02  0.38373226390E+02  0.51100000000E-03 0. -1.
        -11    1    3    3    0    0  0.24502868609E+01 -0.45386755357E+01 -0.74639654134E+01  0.90727207205E+01  0.51100000000E-03 0.  1.
         12    1    3    3    0    0 -0.37418517699E+01 -0.50686647973E+01  0.10043460006E+02  0.11855965013E+02  0.00000000000E+00 0. -1.
</event>
<event>
 7    1  0.5987893E-013  0.5930195E+02  0.7816164E-02  0.1266605E+00
        -11   -1    0    0    0    0  0.00000000000E+00  0.00000000000E+00  0.45593999997E+02  0.45594000000E+02  0.51100000000E-03 0.  1.
         11   -1    0    0    0    0 -0.00000000000E+00 -0.00000000000E+00 -0.45593999997E+02  0.45594000000E+02  0.51100000000E-03 0. -1.
    9900012    2    1    2    0    0 -0.30870808899E+02 -0.75775313313E+01  0.25088586444E+01  0.59301949839E+02  0.50000010599E+02 0.  0.
        -12    1    1    2    0    0  0.30870808899E+02  0.75775313313E+01 -0.25088586444E+01  0.31886050161E+02  0.00000000000E+00 0.  1.
         11    1    3    3    0    0 -0.29090699466E+02 -0.23782158023E+01 -0.14539215204E+01  0.29223938713E+02  0.51100000000E-03 0. -1.
        -11    1    3    3    0    0  0.13573953997E+02 -0.41171664825E-01  0.98945637222E+00  0.13610031095E+02  0.51100000000E-03 0.  1.
        -12    1    3    3    0    0 -0.15354063430E+02 -0.51581438642E+01  0.29733237926E+01  0.16467980032E+02  0.00000000000E+00 0.  1.
</event>
<event>
 7    1  0.5987893E-013  0.5930197E+02  0.7816164E-02  0.1266605E+00
        -11   -1    0    0    0    0  0.00000000000E+00  0.00000000000E+00  0.45593999997E+02  0.45594000000E+02  0.51100000000E-03 0. -1.
         11   -1    0    0    0    0 -0.00000000000E+00 -0.00000000000E+00 -0.45593999997E+02  0.45594000000E+02  0.51100000000E-03 0.  1.
    9900012    2    1    2    0    0 -0.12351626954E+02  0.63313014899E+01  0.28706636791E+02  0.59301967591E+02  0.50000042973E+02 0.  0.
        -12    1    1    2    0    0  0.12351626954E+02 -0.63313014899E+01 -0.28706636791E+02  0.31886032409E+02  0.00000000000E+00 0.  1.
         11    1    3    3    0    0 -0.12729292724E+00  0.13879602432E+02  0.43406884404E+01  0.14543078889E+02  0.51100000000E-03 0. -1.
        -11    1    3    3    0    0 -0.22836939974E+02 -0.13394336239E+01  0.22913102898E+02  0.32377927581E+02  0.51100000000E-03 0.  1.
        -12    1    3    3    0    0  0.10612605946E+02 -0.62088673187E+01  0.14528454522E+01  0.12380961120E+02  0.00000000000E+00 0.  1.
</event>
<event>
 7    1  0.5987893E-013  0.5930193E+02  0.7816164E-02  0.1266605E+00
        -11   -1    0    0    0    0  0.00000000000E+00  0.00000000000E+00  0.45593999997E+02  0.45594000000E+02  0.51100000000E-03 0.  1.
         11   -1    0    0    0    0 -0.00000000000E+00 -0.00000000000E+00 -0.45593999997E+02  0.45594000000E+02  0.51100000000E-03 0. -1.
    9900012    2    1    2    0    0 -0.94517491257E+01 -0.46438585164E+01 -0.30096846424E+02  0.59301934891E+02  0.49999983336E+02 0.  0.
        -12    1    1    2    0    0  0.94517491257E+01  0.46438585164E+01  0.30096846424E+02  0.31886065109E+02  0.00000000000E+00 0.  1.
         11    1    3    3    0    0 -0.58401135969E+00 -0.75388624546E+01 -0.30969342729E+02  0.31879079436E+02  0.51100000000E-03 0. -1.
        -11    1    3    3    0    0 -0.97237290756E+01  0.12624900303E+02  0.51680595165E+01  0.16752547694E+02  0.51100000000E-03 0.  1.
        -12    1    3    3    0    0  0.85599130952E+00 -0.97298963651E+01 -0.42955632118E+01  0.10670307761E+02  0.00000000000E+00 0.  1.
</event>
<event>
 7    1  0.5987893E-013  0.5930186E+02  0.7816164E-02  0.1266605E+00
        -11   -1    0    0    0    0  0.00000000000E+00  0.00000000000E+00  0.45593999997E+02  0.45594000000E+02  0.51100000000E-03 0.  1.
         11   -1    0    0    0    0 -0.00000000000E+00 -0.00000000000E+00 -0.45593999997E+02  0.45594000000E+02  0.51100000000E-03 0. -1.
    9900012    2    1    2    0    0  0.11929415281E+02 -0.12155950157E+02 -0.26956410516E+02  0.59301856598E+02  0.49999840548E+02 0.  0.
        -12    1    1    2    0    0 -0.11929415281E+02  0.12155950157E+02  0.26956410516E+02  0.31886143402E+02  0.00000000000E+00 0.  1.
         11    1    3    3    0    0 -0.18726937321E+00 -0.12028035644E+02 -0.36115809626E+02  0.38066526194E+02  0.51100000000E-03 0. -1.
        -11    1    3    3    0    0  0.84804872172E+01 -0.72433287193E+01  0.49214268943E+01  0.12190361656E+02  0.51100000000E-03 0.  1.
        -12    1    3    3    0    0  0.36361974373E+01  0.71154142063E+01  0.42379722161E+01  0.90449687470E+01  0.00000000000E+00 0.  1.
</event>
<event>
 7    1  0.5987893E-013  0.5930194E+02  0.7816164E-02  0.1266605E+00
        -11   -1    0    0    0    0  0.00000000000E+00  0.00000000000E+00  0.45593999997E+02  0.45594000000E+02  0.51100000000E-03 0. -1.
         11   -1    0    0    0    0 -0.00000000000E+00 -0.00000000000E+00 -0.45593999997E+02  0.45594000000E+02  0.51100000000E-03 0.  1.
    9900012    2    1    2    0    0 -0.25814806457E+02 -0.16176821740E+02  0.94141847668E+01  0.59301942406E+02  0.49999997043E+02 0.  0.
        -12    1    1    2    0    0  0.25814806457E+02  0.16176821740E+02 -0.94141847668E+01  0.31886057594E+02  0.00000000000E+00 0.  1.
         11    1    3    3    0    0 -0.27651738022E+02  0.58084925142E+01  0.64988015788E+01  0.28992958165E+02  0.51100000000E-03 0. -1.
        -11    1    3    3    0    0  0.75921804501E+01 -0.40131236056E+01  0.69066051979E+01  0.11020324890E+02  0.51100000000E-03 0.  1.
        -12    1    3    3    0    0 -0.57552488858E+01 -0.17972190649E+02 -0.39912220099E+01  0.19288659352E+02  0.00000000000E+00 0.  1.
</event>
<event>
 7    1  0.5987893E-013  0.5930191E+02  0.7816164E-02  0.1266605E+00
        -11   -1    0    0    0    0  0.00000000000E+00  0.00000000000E+00  0.45593999997E+02  0.45594000000E+02  0.51100000000E-03 0.  1.
         11   -1    0    0    0    0 -0.00000000000E+00 -0.00000000000E+00 -0.45593999997E+02  0.45594000000E+02  0.51100000000E-03 0. -1.
    9900012    2    1    2    0    0  0.14826411198E+02  0.14951357686E+02 -0.23944878663E+02  0.59301909305E+02  0.49999936673E+02 0.  0.
        -12    1    1    2    0    0 -0.14826411198E+02 -0.14951357686E+02  0.23944878663E+02  0.31886090695E+02  0.00000000000E+00 0.  1.
         11    1    3    3    0    0  0.11153626369E+00  0.16124820449E+02 -0.23310468591E+02  0.28344315498E+02  0.51100000000E-03 0. -1.
        -11    1    3    3    0    0  0.22509815075E+02 -0.26737275244E+01 -0.24935399059E+01  0.22804787548E+02  0.51100000000E-03 0.  1.
        -12    1    3    3    0    0 -0.77949401410E+01  0.15002647612E+01  0.18591298337E+01  0.81528062588E+01  0.00000000000E+00 0.  1.
</event>
<event>
 7    1  0.5987893E-013  0.5930193E+02  0.7816164E-02  0.1266605E+00
        -11   -1    0    0    0    0  0.00000000000E+00  0.00000000000E+00  0.45593999997E+02  0.45594000000E+02  0.51100000000E-03 0.  1.
         11   -1    0    0    0    0 -0.00000000000E+00 -0.00000000000E+00 -0.45593999997E+02  0.45594000000E+02  0.51100000000E-03 0. -1.
    9900012    2    1    2    0    0  0.28318745679E+02 -0.12167098116E+02 -0.81689576782E+01  0.59301929328E+02  0.49999973190E+02 0.  0.
        -12    1    1    2    0    0 -0.28318745679E+02  0.12167098116E+02  0.81689576782E+01  0.31886070672E+02  0.00000000000E+00 0.  1.
         11    1    3    3    0    0  0.15237749820E+02 -0.13657968472E+02  0.59232345551E+01  0.21302906614E+02  0.51100000000E-03 0.  1.
        -11    1    3    3    0    0 -0.18780066576E+01  0.14824138316E+02 -0.85160929216E+01  0.17199006504E+02  0.51100000000E-03 0. -1.
         12    1    3    3    0    0  0.14959002517E+02 -0.13333267960E+02 -0.55760993117E+01  0.20800016210E+02  0.00000000000E+00 0. -1.
</event>
<event>
 7    1  0.5987893E-013  0.5930192E+02  0.7816164E-02  0.1266605E+00
        -11   -1    0    0    0    0  0.00000000000E+00  0.00000000000E+00  0.45593999997E+02  0.45594000000E+02  0.51100000000E-03 0.  1.
         11   -1    0    0    0    0 -0.00000000000E+00 -0.00000000000E+00 -0.45593999997E+02  0.45594000000E+02  0.51100000000E-03 0. -1.
    9900012    2    1    2    0    0 -0.19263968519E+01 -0.13387423294E+02 -0.28875383025E+02  0.59301923852E+02  0.49999963205E+02 0.  0.
        -12    1    1    2    0    0  0.19263968519E+01  0.13387423294E+02  0.28875383025E+02  0.31886076148E+02  0.00000000000E+00 0.  1.
         11    1    3    3    0    0 -0.18556148876E+01 -0.20614007622E+02 -0.28933565263E+01  0.20898615483E+02  0.51100000000E-03 0. -1.
        -11    1    3    3    0    0  0.13098107982E+02  0.32451446810E+01 -0.77442236022E+01  0.15558418820E+02  0.51100000000E-03 0.  1.
         12    1    3    3    0    0 -0.13168889946E+02  0.39814396473E+01 -0.18237802896E+02  0.22844889550E+02  0.00000000000E+00 0. -1.
</event>
<event>
 7    1  0.7707400E-013  0.5930196E+02  0.7816164E-02  0.1266605E+00
        -11   -1    0    0    0    0  0.00000000000E+00  0.00000000000E+00  0.45593999997E+02  0.45594000000E+02  0.51100000000E-03 0. -1.
         11   -1    0    0    0    0 -0.00000000000E+00 -0.00000000000E+00 -0.45593999997E+02  0.45594000000E+02  0.51100000000E-03 0.  1.
    9900012    2    1    2    0    0  0.20983676739E+02 -0.10884320762E+02  0.21399452920E+02  0.59301957392E+02  0.50000024373E+02 0.  0.
        -12    1    1    2    0    0 -0.20983676739E+02  0.10884320762E+02 -0.21399452920E+02  0.31886042608E+02  0.00000000000E+00 0.  1.
         11    1    3    3    0    0  0.26928538189E+02 -0.39640001913E+01  0.18357662050E+02  0.32830827323E+02  0.51100000000E-03 0. -1.
        -11    1    3    3    0    0 -0.37631491813E+01 -0.15533110208E+02  0.60524461795E+01  0.17090082198E+02  0.51100000000E-03 0.  1.
        -12    1    3    3    0    0 -0.21817122692E+01  0.86127896374E+01 -0.30106553094E+01  0.93810478709E+01  0.00000000000E+00 0.  1.
</event>
<event>
 7    1  0.5987893E-013  0.5930194E+02  0.7816164E-02  0.1266605E+00
        -11   -1    0    0    0    0  0.00000000000E+00  0.00000000000E+00  0.45593999997E+02  0.45594000000E+02  0.51100000000E-03 0.  1.
         11   -1    0    0    0    0 -0.00000000000E+00 -0.00000000000E+00 -0.45593999997E+02  0.45594000000E+02  0.51100000000E-03 0. -1.
    9900012    2    1    2    0    0 -0.28141545965E+02 -0.66463769131E+01  0.13438747566E+02  0.59301939229E+02  0.49999991248E+02 0.  0.
        -12    1    1    2    0    0  0.28141545965E+02  0.66463769131E+01 -0.13438747566E+02  0.31886060771E+02  0.00000000000E+00 0.  1.
         11    1    3    3    0    0 -0.17025160430E+02 -0.98117027470E+01 -0.13209746714E+02  0.23677478898E+02  0.51100000000E-03 0. -1.
        -11    1    3    3    0    0 -0.22272475876E+01  0.15081932869E+01  0.26443397915E+02  0.26579852753E+02  0.51100000000E-03 0.  1.
        -12    1    3    3    0    0 -0.88891379471E+01  0.16571325470E+01  0.20509636439E+00  0.90446075779E+01  0.00000000000E+00 0.  1.
</event>
<event>
 7    1  0.5987893E-013  0.5930196E+02  0.7816164E-02  0.1266605E+00
        -11   -1    0    0    0    0  0.00000000000E+00  0.00000000000E+00  0.45593999997E+02  0.45594000000E+02  0.51100000000E-03 0.  1.
         11   -1    0    0    0    0 -0.00000000000E+00 -0.00000000000E+00 -0.45593999997E+02  0.45594000000E+02  0.51100000000E-03 0. -1.
    9900012    2    1    2    0    0  0.10087588950E+02 -0.24658507488E+02 -0.17519070889E+02  0.59301964072E+02  0.50000036556E+02 0.  0.
        -12    1    1    2    0    0 -0.10087588950E+02  0.24658507488E+02  0.17519070889E+02  0.31886035928E+02  0.00000000000E+00 0.  1.
         11    1    3    3    0    0 -0.93254839359E+01 -0.41819716879E+01 -0.43437956871E+01  0.11105048360E+02  0.51100000000E-03 0. -1.
        -11    1    3    3    0    0  0.19362737259E+02  0.56210722587E+01 -0.41667286999E+01  0.20588192631E+02  0.51100000000E-03 0.  1.
         12    1    3    3    0    0  0.50335627308E-01 -0.26097608059E+02 -0.90085465023E+01  0.27608723081E+02  0.00000000000E+00 0. -1.
</event>
<event>
 7    1  0.5987893E-013  0.5930189E+02  0.7816164E-02  0.1266605E+00
        -11   -1    0    0    0    0  0.00000000000E+00  0.00000000000E+00  0.45593999997E+02  0.45594000000E+02  0.51100000000E-03 0.  1.
         11   -1    0    0    0    0 -0.00000000000E+00 -0.00000000000E+00 -0.45593999997E+02  0.45594000000E+02  0.51100000000E-03 0. -1.
    9900012    2    1    2    0    0 -0.13901993661E+02 -0.25474022094E+02 -0.13211096189E+02  0.59301885594E+02  0.49999893431E+02 0.  0.
        -12    1    1    2    0    0  0.13901993661E+02  0.25474022094E+02  0.13211096189E+02  0.31886114406E+02  0.00000000000E+00 0.  1.
         11    1    3    3    0    0 -0.46426322670E+01 -0.27128760861E+02 -0.30057261911E+01  0.27686785483E+02  0.51100000000E-03 0. -1.
        -11    1    3    3    0    0 -0.12223495793E+02  0.11259682207E+02  0.89076761614E+00  0.16642949258E+02  0.51100000000E-03 0.  1.
         12    1    3    3    0    0  0.29641343984E+01 -0.96049434399E+01 -0.11096137614E+02  0.14972150853E+02  0.00000000000E+00 0. -1.
</event>
<event>
 7    1  0.5987893E-013  0.5930197E+02  0.7816164E-02  0.1266605E+00
        -11   -1    0    0    0    0  0.00000000000E+00  0.00000000000E+00  0.45593999997E+02  0.45594000000E+02  0.51100000000E-03 0.  1.
         11   -1    0    0    0    0 -0.00000000000E+00 -0.00000000000E+00 -0.45593999997E+02  0.45594000000E+02  0.51100000000E-03 0. -1.
    9900012    2    1    2    0    0 -0.51924047969E+01 -0.62453963505E+01 -0.30834283165E+02  0.59301967612E+02  0.50000043012E+02 0.  0.
        -12    1    1    2    0    0  0.51924047969E+01  0.62453963505E+01  0.30834283165E+02  0.31886032388E+02  0.00000000000E+00 0.  1.
         11    1    3    3    0    0  0.16767138460E+02 -0.79123672074E+01 -0.10365735019E+01  0.18569248016E+02  0.51100000000E-03 0.  1.
        -11    1    3    3    0    0 -0.16902533513E+02  0.83557564121E+01 -0.16737084053E+02  0.25211986975E+02  0.51100000000E-03 0. -1.
        -12    1    3    3    0    0 -0.50570097441E+01 -0.66887855552E+01 -0.13060625610E+02  0.15520732621E+02  0.00000000000E+00 0.  1.
</event>
<event>
 7    1  0.5987893E-013  0.5930201E+02  0.7816164E-02  0.1266605E+00
        -11   -1    0    0    0    0  0.00000000000E+00  0.00000000000E+00  0.45593999997E+02  0.45594000000E+02  0.51100000000E-03 0.  1.
         11   -1    0    0    0    0 -0.00000000000E+00 -0.00000000000E+00 -0.45593999997E+02  0.45594000000E+02  0.51100000000E-03 0. -1.
    9900012    2    1    2    0    0  0.65792414897E+01  0.20349968018E+02 -0.23649715594E+02  0.59302005197E+02  0.50000111557E+02 0.  0.
        -12    1    1    2    0    0 -0.65792414897E+01 -0.20349968018E+02  0.23649715594E+02  0.31885994803E+02  0.00000000000E+00 0.  1.
         11    1    3    3    0    0 -0.92667798887E+00 -0.11369183323E+01 -0.36902535218E+01  0.39710561197E+01  0.51100000000E-03 0. -1.
        -11    1    3    3    0    0  0.26542289673E+02  0.18253089597E+02 -0.13995286260E+02  0.35121737694E+02  0.51100000000E-03 0.  1.
        -12    1    3    3    0    0 -0.19036370194E+02  0.32337967541E+01 -0.59641758117E+01  0.20209211383E+02  0.00000000000E+00 0.  1.
</event>
<event>
 7    1  0.7631372E-013  0.5930193E+02  0.7816164E-02  0.1266605E+00
        -11   -1    0    0    0    0  0.00000000000E+00  0.00000000000E+00  0.45593999997E+02  0.45594000000E+02  0.51100000000E-03 0.  1.
         11   -1    0    0    0    0 -0.00000000000E+00 -0.00000000000E+00 -0.45593999997E+02  0.45594000000E+02  0.51100000000E-03 0. -1.
    9900012    2    1    2    0    0  0.16265780083E+02 -0.10634533618E+02 -0.25279490619E+02  0.59301928543E+02  0.49999971759E+02 0.  0.
        -12    1    1    2    0    0 -0.16265780083E+02  0.10634533618E+02  0.25279490619E+02  0.31886071457E+02  0.00000000000E+00 0.  1.
         11    1    3    3    0    0  0.25610763194E+02 -0.89904919695E+01 -0.20381067608E+02  0.33943011863E+02  0.51100000000E-03 0. -1.
        -11    1    3    3    0    0 -0.46384564236E+01 -0.22516454756E+01  0.91653177895E+01  0.10516094132E+02  0.51100000000E-03 0.  1.
         12    1    3    3    0    0 -0.47065266872E+01  0.60760382747E+00 -0.14063740801E+02  0.14842822548E+02  0.00000000000E+00 0. -1.
</event>
<event>
 7    1  0.5987893E-013  0.5930196E+02  0.7816164E-02  0.1266605E+00
        -11   -1    0    0    0    0  0.00000000000E+00  0.00000000000E+00  0.45593999997E+02  0.45594000000E+02  0.51100000000E-03 0.  1.
         11   -1    0    0    0    0 -0.00000000000E+00 -0.00000000000E+00 -0.45593999997E+02  0.45594000000E+02  0.51100000000E-03 0. -1.
    9900012    2    1    2    0    0  0.44278164272E+01  0.22324007743E+02 -0.22332764449E+02  0.59301964687E+02  0.50000037677E+02 0.  0.
        -12    1    1    2    0    0 -0.44278164272E+01 -0.22324007743E+02  0.22332764449E+02  0.31886035313E+02  0.00000000000E+00 0.  1.
         11    1    3    3    0    0 -0.88773286486E+01  0.20967104682E+02  0.47255929861E+00  0.22773883183E+02  0.51100000000E-03 0. -1.
        -11    1    3    3    0    0  0.20410975281E+02  0.41432257566E+01 -0.15490811587E+02  0.25956491972E+02  0.51100000000E-03 0.  1.
        -12    1    3    3    0    0 -0.71058302056E+01 -0.27863226954E+01 -0.73145121609E+01  0.10571589532E+02  0.00000000000E+00 0.  1.
</event>
<event>
 7    1  0.5987893E-013  0.5930195E+02  0.7816164E-02  0.1266605E+00
        -11   -1    0    0    0    0  0.00000000000E+00  0.00000000000E+00  0.45593999997E+02  0.45594000000E+02  0.51100000000E-03 0.  1.
         11   -1    0    0    0    0 -0.00000000000E+00 -0.00000000000E+00 -0.45593999997E+02  0.45594000000E+02  0.51100000000E-03 0. -1.
    9900012    2    1    2    0    0 -0.17590630863E+02  0.25521945216E+02 -0.74780001545E+01  0.59301945555E+02  0.50000002785E+02 0.  0.
        -12    1    1    2    0    0  0.17590630863E+02 -0.25521945216E+02  0.74780001545E+01  0.31886054445E+02  0.00000000000E+00 0.  1.
         11    1    3    3    0    0 -0.21843355871E+02 -0.19674501987E+01 -0.61556867912E+01  0.22779278657E+02  0.51100000000E-03 0. -1.
        -11    1    3    3    0    0  0.16173411769E+01  0.26929429590E+02  0.69198850768E+01  0.27851297641E+02  0.51100000000E-03 0.  1.
         12    1    3    3    0    0  0.26353838309E+01  0.55996582455E+00 -0.82421984401E+01  0.86713692568E+01  0.00000000000E+00 0. -1.
</event>
<event>
 7    1  0.5987893E-013  0.5930198E+02  0.7816164E-02  0.1266605E+00
        -11   -1    0    0    0    0  0.00000000000E+00  0.00000000000E+00  0.45593999997E+02  0.45594000000E+02  0.51100000000E-03 0.  1.
         11   -1    0    0    0    0 -0.00000000000E+00 -0.00000000000E+00 -0.45593999997E+02  0.45594000000E+02  0.51100000000E-03 0. -1.
    9900012    2    1    2    0    0 -0.19442689572E+02 -0.25269366961E+02 -0.39894019887E+00  0.59301980529E+02  0.50000066570E+02 0.  0.
        -12    1    1    2    0    0  0.19442689572E+02  0.25269366961E+02  0.39894019887E+00  0.31886019471E+02  0.00000000000E+00 0.  1.
         11    1    3    3    0    0 -0.28772839906E+02 -0.18036154120E+02 -0.68453286404E+01  0.34641560244E+02  0.51100000000E-03 0. -1.
        -11    1    3    3    0    0  0.15765467933E+02 -0.49080079668E+01  0.66851450804E+01  0.17813749924E+02  0.51100000000E-03 0.  1.
        -12    1    3    3    0    0 -0.64353175987E+01 -0.23252048746E+01 -0.23875663895E+00  0.68466703614E+01  0.00000000000E+00 0.  1.
</event>
<event>
 7    1  0.5987893E-013  0.5930195E+02  0.7816164E-02  0.1266605E+00
        -11   -1    0    0    0    0  0.00000000000E+00  0.00000000000E+00  0.45593999997E+02  0.45594000000E+02  0.51100000000E-03 0. -1.
         11   -1    0    0    0    0 -0.00000000000E+00 -0.00000000000E+00 -0.45593999997E+02  0.45594000000E+02  0.51100000000E-03 0.  1.
    9900012    2    1    2    0    0 -0.18162043266E+02 -0.20199875907E+02  0.16698065424E+02  0.59301949897E+02  0.50000010704E+02 0.  0.
        -12    1    1    2    0    0  0.18162043266E+02  0.20199875907E+02 -0.16698065424E+02  0.31886050103E+02  0.00000000000E+00 0.  1.
         11    1    3    3    0    0 -0.13247655634E+02 -0.26833789326E+02 -0.78051809015E+00  0.29935962289E+02  0.51100000000E-03 0. -1.
        -11    1    3    3    0    0  0.61636229239E+01  0.47158384775E+01 -0.90880155637E+00  0.78137891336E+01  0.51100000000E-03 0.  1.
         12    1    3    3    0    0 -0.11078010556E+02  0.19180749416E+01  0.18387385070E+02  0.21552198475E+02  0.00000000000E+00 0. -1.
</event>
<event>
 7    1  0.5987893E-013  0.5930196E+02  0.7816164E-02  0.1266605E+00
        -11   -1    0    0    0    0  0.00000000000E+00  0.00000000000E+00  0.45593999997E+02  0.45594000000E+02  0.51100000000E-03 0. -1.
         11   -1    0    0    0    0 -0.00000000000E+00 -0.00000000000E+00 -0.45593999997E+02  0.45594000000E+02  0.51100000000E-03 0.  1.
    9900012    2    1    2    0    0 -0.75120719485E+01  0.16925748567E+02  0.25957805249E+02  0.59301955359E+02  0.50000020666E+02 0.  0.
        -12    1    1    2    0    0  0.75120719485E+01 -0.16925748567E+02 -0.25957805249E+02  0.31886044641E+02  0.00000000000E+00 0.  1.
         11    1    3    3    0    0  0.12631272235E+00 -0.16600885637E+00  0.94226116295E+01  0.94249203724E+01  0.51100000000E-03 0. -1.
        -11    1    3    3    0    0 -0.13832893275E+02  0.14326651535E+02 -0.10143553580E+02  0.22349352564E+02  0.51100000000E-03 0.  1.
        -12    1    3    3    0    0  0.61945086038E+01  0.27651058884E+01  0.26678747200E+02  0.27527682423E+02  0.00000000000E+00 0.  1.
</event>
<event>
 7    1  0.5987893E-013  0.5930192E+02  0.7816164E-02  0.1266605E+00
        -11   -1    0    0    0    0  0.00000000000E+00  0.00000000000E+00  0.45593999997E+02  0.45594000000E+02  0.51100000000E-03 0. -1.
         11   -1    0    0    0    0 -0.00000000000E+00 -0.00000000000E+00 -0.45593999997E+02  0.45594000000E+02  0.51100000000E-03 0.  1.
    9900012    2    1    2    0    0 -0.21301037421E+02 -0.10045102676E+02  0.21496129290E+02  0.59301923769E+02  0.49999963052E+02 0.  0.
        -12    1    1    2    0    0  0.21301037421E+02  0.10045102676E+02 -0.21496129290E+02  0.31886076231E+02  0.00000000000E+00 0.  1.
         11    1    3    3    0    0 -0.20219102346E+01 -0.54176836824E+01  0.26850853900E+02  0.27466484538E+02  0.51100000000E-03 0. -1.
        -11    1    3    3    0    0 -0.75104018665E+01 -0.43336930569E+01 -0.14522641335E+02  0.16914317702E+02  0.51100000000E-03 0.  1.
        -12    1    3    3    0    0 -0.11768725320E+02 -0.29372593632E+00  0.91679167249E+01  0.14921121528E+02  0.00000000000E+00 0.  1.
</event>
<event>
 7    1  0.5987893E-013  0.5930195E+02  0.7816164E-02  0.1266605E+00
        -11   -1    0    0    0    0  0.00000000000E+00  0.00000000000E+00  0.45593999997E+02  0.45594000000E+02  0.51100000000E-03 0. -1.
         11   -1    0    0    0    0 -0.00000000000E+00 -0.00000000000E+00 -0.45593999997E+02  0.45594000000E+02  0.51100000000E-03 0.  1.
    9900012    2    1    2    0    0 -0.26129016350E+02  0.12177360612E+02  0.13627419168E+02  0.59301950384E+02  0.50000011593E+02 0.  0.
        -12    1    1    2    0    0  0.26129016350E+02 -0.12177360612E+02 -0.13627419168E+02  0.31886049616E+02  0.00000000000E+00 0.  1.
         11    1    3    3    0    0 -0.22994487752E+00  0.23811962280E+02  0.18123823341E+02  0.29925497406E+02  0.51100000000E-03 0. -1.
        -11    1    3    3    0    0 -0.19593047526E+02 -0.58091874260E+01 -0.35041499980E+01  0.20734349215E+02  0.51100000000E-03 0.  1.
         12    1    3    3    0    0 -0.63060239465E+01 -0.58254142417E+01 -0.99225417458E+00  0.86421037629E+01  0.00000000000E+00 0. -1.
</event>
<event>
 7    1  0.5987893E-013  0.5930195E+02  0.7816164E-02  0.1266605E+00
        -11   -1    0    0    0    0  0.00000000000E+00  0.00000000000E+00  0.45593999997E+02  0.45594000000E+02  0.51100000000E-03 0. -1.
         11   -1    0    0    0    0 -0.00000000000E+00 -0.00000000000E+00 -0.45593999997E+02  0.45594000000E+02  0.51100000000E-03 0.  1.
    9900012    2    1    2    0    0  0.75184860164E+00 -0.30143865357E+02 -0.10368330501E+02  0.59301950192E+02  0.50000011242E+02 0.  0.
        -12    1    1    2    0    0 -0.75184860164E+00  0.30143865357E+02  0.10368330501E+02  0.31886049808E+02  0.00000000000E+00 0.  1.
         11    1    3    3    0    0 -0.79781362852E+01 -0.58600549522E+01  0.15709368732E+02  0.18568122383E+02  0.51100000000E-03 0. -1.
        -11    1    3    3    0    0 -0.52961797301E+00 -0.42950549025E+01 -0.15879173042E+02  0.16458314877E+02  0.51100000000E-03 0.  1.
         12    1    3    3    0    0  0.92596028599E+01 -0.19988755503E+02 -0.10198526190E+02  0.24275512932E+02  0.00000000000E+00 0. -1.
</event>
<event>
 7    1  0.5987893E-013  0.5930193E+02  0.7816164E-02  0.1266605E+00
        -11   -1    0    0    0    0  0.00000000000E+00  0.00000000000E+00  0.45593999997E+02  0.45594000000E+02  0.51100000000E-03 0. -1.
         11   -1    0    0    0    0 -0.00000000000E+00 -0.00000000000E+00 -0.45593999997E+02  0.45594000000E+02  0.51100000000E-03 0.  1.
    9900012    2    1    2    0    0  0.64364360724E+01  0.19781264609E+02  0.24165991625E+02  0.59301932665E+02  0.49999979278E+02 0.  0.
        -12    1    1    2    0    0 -0.64364360724E+01 -0.19781264609E+02 -0.24165991625E+02  0.31886067335E+02  0.00000000000E+00 0.  1.
         11    1    3    3    0    0 -0.87293188720E+01  0.15883963466E+02  0.25367568645E+01  0.18301268781E+02  0.51100000000E-03 0. -1.
        -11    1    3    3    0    0  0.20281211418E+02  0.13037954259E+02  0.12779152419E+02  0.27287772439E+02  0.51100000000E-03 0.  1.
        -12    1    3    3    0    0 -0.51154564738E+01 -0.91406531166E+01  0.88500823419E+01  0.13712891445E+02  0.00000000000E+00 0.  1.
</event>
<event>
 7    1  0.5987893E-013  0.5930194E+02  0.7816164E-02  0.1266605E+00
        -11   -1    0    0    0    0  0.00000000000E+00  0.00000000000E+00  0.45593999997E+02  0.45594000000E+02  0.51100000000E-03 0. -1.
         11   -1    0    0    0    0 -0.00000000000E+00 -0.00000000000E+00 -0.45593999997E+02  0.45594000000E+02  0.51100000000E-03 0.  1.
    9900012    2    1    2    0    0 -0.89445071144E+01  0.11815519979E+02  0.28233140422E+02  0.59301938186E+02  0.49999989347E+02 0.  0.
        -12    1    1    2    0    0  0.89445071144E+01 -0.11815519979E+02 -0.28233140422E+02  0.31886061814E+02  0.00000000000E+00 0.  1.
         11    1    3    3    0    0 -0.16206341145E+02  0.16009537222E+02  0.22131252598E+02  0.31760716572E+02  0.51100000000E-03 0. -1.
        -11    1    3    3    0    0  0.96739547724E+01 -0.12704175922E+02  0.88782632087E+01  0.18270332363E+02  0.51100000000E-03 0.  1.
        -12    1    3    3    0    0 -0.24121207415E+01  0.85101586795E+01 -0.27763753849E+01  0.92708892507E+01  0.00000000000E+00 0.  1.
</event>
<event>
 7    1  0.5987893E-013  0.5930203E+02  0.7816164E-02  0.1266604E+00
        -11   -1    0    0    0    0  0.00000000000E+00  0.00000000000E+00  0.45593999997E+02  0.45594000000E+02  0.51100000000E-03 0. -1.
         11   -1    0    0    0    0 -0.00000000000E+00 -0.00000000000E+00 -0.45593999997E+02  0.45594000000E+02  0.51100000000E-03 0.  1.
    9900012    2    1    2    0    0 -0.41842872238E+01  0.29723798356E+02  0.10756519152E+02  0.59302028907E+02  0.50000154799E+02 0.  0.
        -12    1    1    2    0    0  0.41842872238E+01 -0.29723798356E+02 -0.10756519152E+02  0.31885971093E+02  0.00000000000E+00 0.  1.
         11    1    3    3    0    0 -0.20184177579E+02  0.24879726492E+02  0.14924701192E+02  0.35343295274E+02  0.51100000000E-03 0. -1.
        -11    1    3    3    0    0  0.12436987490E+01  0.75824529049E+01 -0.45795296293E+01  0.89449690061E+01  0.51100000000E-03 0.  1.
         12    1    3    3    0    0  0.14756191606E+02 -0.27383810409E+01  0.41134758958E+00  0.15013764627E+02  0.00000000000E+00 0. -1.
</event>
<event>
 7    1  0.5987893E-013  0.5930193E+02  0.7816164E-02  0.1266605E+00
        -11   -1    0    0    0    0  0.00000000000E+00  0.00000000000E+00  0.45593999997E+02  0.45594000000E+02  0.51100000000E-03 0.  1.
         11   -1    0    0    0    0 -0.00000000000E+00 -0.00000000000E+00 -0.45593999997E+02  0.45594000000E+02  0.51100000000E-03 0. -1.
    9900012    2    1    2    0    0 -0.18646736123E+02 -0.74555841940E+01 -0.24767614167E+02  0.59301933839E+02  0.49999981419E+02 0.  0.
        -12    1    1    2    0    0  0.18646736123E+02  0.74555841940E+01  0.24767614167E+02  0.31886066161E+02  0.00000000000E+00 0.  1.
         11    1    3    3    0    0 -0.21248328338E+02 -0.13021036293E+02 -0.18987496752E+02  0.31329919828E+02  0.51100000000E-03 0. -1.
        -11    1    3    3    0    0 -0.61810798851E+01  0.10058413449E+02  0.54680250963E+01  0.13010639045E+02  0.51100000000E-03 0.  1.
        -12    1    3    3    0    0  0.87826721001E+01 -0.44929613492E+01 -0.11248142511E+02  0.14961374966E+02  0.00000000000E+00 0.  1.
</event>
<event>
 7    1  0.5987893E-013  0.5930193E+02  0.7816164E-02  0.1266605E+00
        -11   -1    0    0    0    0  0.00000000000E+00  0.00000000000E+00  0.45593999997E+02  0.45594000000E+02  0.51100000000E-03 0.  1.
         11   -1    0    0    0    0 -0.00000000000E+00 -0.00000000000E+00 -0.45593999997E+02  0.45594000000E+02  0.51100000000E-03 0. -1.
    9900012    2    1    2    0    0  0.20446369518E+02 -0.14827943959E+02 -0.19462778716E+02  0.59301926176E+02  0.49999967443E+02 0.  0.
        -12    1    1    2    0    0 -0.20446369518E+02  0.14827943959E+02  0.19462778716E+02  0.31886073824E+02  0.00000000000E+00 0.  1.
         11    1    3    3    0    0 -0.46596164456E+01 -0.17471033504E+02  0.36514434451E+01  0.18446736205E+02  0.51100000000E-03 0. -1.
        -11    1    3    3    0    0  0.25682856663E+02 -0.13344272825E+01 -0.10784937307E+02  0.27887357270E+02  0.51100000000E-03 0.  1.
         12    1    3    3    0    0 -0.57687069896E+00  0.39775168275E+01 -0.12329284855E+02  0.12967832701E+02  0.00000000000E+00 0. -1.
</event>
<event>
 7    1  0.5987893E-013  0.5930194E+02  0.7816164E-02  0.1266605E+00
        -11   -1    0    0    0    0  0.00000000000E+00  0.00000000000E+00  0.45593999997E+02  0.45594000000E+02  0.51100000000E-03 0.  1.
         11   -1    0    0    0    0 -0.00000000000E+00 -0.00000000000E+00 -0.45593999997E+02  0.45594000000E+02  0.51100000000E-03 0. -1.
    9900012    2    1    2    0    0 -0.28008888088E+02 -0.13025888809E+02 -0.79087893661E+01  0.59301944420E+02  0.50000000716E+02 0.  0.
        -12    1    1    2    0    0  0.28008888088E+02  0.13025888809E+02  0.79087893661E+01  0.31886055580E+02  0.00000000000E+00 0.  1.
         11    1    3    3    0    0  0.27402587661E+01 -0.22873307944E+02 -0.25417719327E+01  0.23176665835E+02  0.51100000000E-03 0.  1.
        -11    1    3    3    0    0 -0.22782219093E+02  0.15288052233E+01  0.12026736785E+01  0.22865108275E+02  0.51100000000E-03 0. -1.
         12    1    3    3    0    0 -0.79669277614E+01  0.83186139109E+01 -0.65696911118E+01  0.13260170310E+02  0.00000000000E+00 0. -1.
</event>
<event>
 7    1  0.5987893E-013  0.5930200E+02  0.7816164E-02  0.1266605E+00
        -11   -1    0    0    0    0  0.00000000000E+00  0.00000000000E+00  0.45593999997E+02  0.45594000000E+02  0.51100000000E-03 0. -1.
         11   -1    0    0    0    0 -0.00000000000E+00 -0.00000000000E+00 -0.45593999997E+02  0.45594000000E+02  0.51100000000E-03 0.  1.
    9900012    2    1    2    0    0 -0.26072368878E+02 -0.11003086054E+02  0.14692883423E+02  0.59301997665E+02  0.50000097821E+02 0.  0.
        -12    1    1    2    0    0  0.26072368878E+02  0.11003086054E+02 -0.14692883423E+02  0.31886002335E+02  0.00000000000E+00 0.  1.
         11    1    3    3    0    0  0.11050016704E+02 -0.15757692748E+02  0.10434414705E+01  0.19274244998E+02  0.51100000000E-03 0. -1.
        -11    1    3    3    0    0 -0.10867285000E+02  0.12935853557E+01  0.59096733030E+01  0.12437663975E+02  0.51100000000E-03 0.  1.
         12    1    3    3    0    0 -0.26255100582E+02  0.34610213381E+01  0.77397686494E+01  0.27590088692E+02  0.00000000000E+00 0. -1.
</event>
<event>
 7    1  0.5987893E-013  0.5930199E+02  0.7816164E-02  0.1266605E+00
        -11   -1    0    0    0    0  0.00000000000E+00  0.00000000000E+00  0.45593999997E+02  0.45594000000E+02  0.51100000000E-03 0. -1.
         11   -1    0    0    0    0 -0.00000000000E+00 -0.00000000000E+00 -0.45593999997E+02  0.45594000000E+02  0.51100000000E-03 0.  1.
    9900012    2    1    2    0    0  0.35576825493E+01 -0.49022466849E+01  0.31305407758E+02  0.59301989234E+02  0.50000082446E+02 0.  0.
        -12    1    1    2    0    0 -0.35576825493E+01  0.49022466849E+01 -0.31305407758E+02  0.31886010766E+02  0.00000000000E+00 0.  1.
         11    1    3    3    0    0  0.20635210696E+02 -0.11479033397E+02  0.27079738666E+02  0.35928990727E+02  0.51100000000E-03 0. -1.
        -11    1    3    3    0    0 -0.54146194305E+01 -0.87253089134E+00 -0.44299920798E+01  0.70501236742E+01  0.51100000000E-03 0.  1.
         12    1    3    3    0    0 -0.11662908716E+02  0.74493176033E+01  0.86556611718E+01  0.16322874833E+02  0.00000000000E+00 0. -1.
</event>
<event>
 7    1  0.5987893E-013  0.5930191E+02  0.7816164E-02  0.1266605E+00
        -11   -1    0    0    0    0  0.00000000000E+00  0.00000000000E+00  0.45593999997E+02  0.45594000000E+02  0.51100000000E-03 0. -1.
         11   -1    0    0    0    0 -0.00000000000E+00 -0.00000000000E+00 -0.45593999997E+02  0.45594000000E+02  0.51100000000E-03 0.  1.
    9900012    2    1    2    0    0 -0.18768515585E+02 -0.83240344752E+00  0.25763780894E+02  0.59301914027E+02  0.49999945285E+02 0.  0.
        -12    1    1    2    0    0  0.18768515585E+02  0.83240344752E+00 -0.25763780894E+02  0.31886085973E+02  0.00000000000E+00 0.  1.
         11    1    3    3    0    0  0.10862460435E+02  0.85808977362E+01  0.22200503818E+02  0.26162706716E+02  0.51100000000E-03 0. -1.
        -11    1    3    3    0    0 -0.18340924795E+02 -0.11208514247E+02  0.28824310953E+01  0.21687063500E+02  0.51100000000E-03 0.  1.
         12    1    3    3    0    0 -0.11290051226E+02  0.17952130637E+01  0.68084598068E+00  0.11452143811E+02  0.00000000000E+00 0. -1.
</event>
<event>
 7    1  0.5987893E-013  0.5930201E+02  0.7816164E-02  0.1266605E+00
        -11   -1    0    0    0    0  0.00000000000E+00  0.00000000000E+00  0.45593999997E+02  0.45594000000E+02  0.51100000000E-03 0.  1.
         11   -1    0    0    0    0 -0.00000000000E+00 -0.00000000000E+00 -0.45593999997E+02  0.45594000000E+02  0.51100000000E-03 0. -1.
    9900012    2    1    2    0    0 -0.15001015909E+02  0.11307047891E+02 -0.25765026827E+02  0.59302009068E+02  0.50000118617E+02 0.  0.
        -12    1    1    2    0    0  0.15001015909E+02 -0.11307047891E+02  0.25765026827E+02  0.31885990932E+02  0.00000000000E+00 0.  1.
         11    1    3    3    0    0  0.75571601739E+01 -0.11892367599E+01 -0.28755688970E+02  0.29755917098E+02  0.51100000000E-03 0. -1.
        -11    1    3    3    0    0 -0.65434057099E+01 -0.10580896279E+01  0.52339509152E+01  0.84457062694E+01  0.51100000000E-03 0.  1.
         12    1    3    3    0    0 -0.16014770373E+02  0.13554374279E+02 -0.22432887728E+01  0.21100385700E+02  0.00000000000E+00 0. -1.
</event>
<event>
 7    1  0.5987893E-013  0.5930192E+02  0.7816164E-02  0.1266605E+00
        -11   -1    0    0    0    0  0.00000000000E+00  0.00000000000E+00  0.45593999997E+02  0.45594000000E+02  0.51100000000E-03 0.  1.
         11   -1    0    0    0    0 -0.00000000000E+00 -0.00000000000E+00 -0.45593999997E+02  0.45594000000E+02  0.51100000000E-03 0. -1.
    9900012    2    1    2    0    0  0.13277898610E+02 -0.27048654744E+02 -0.10430225165E+02  0.59301922914E+02  0.49999961493E+02 0.  0.
        -12    1    1    2    0    0 -0.13277898610E+02  0.27048654744E+02  0.10430225165E+02  0.31886077086E+02  0.00000000000E+00 0.  1.
         11    1    3    3    0    0  0.12133927942E+02 -0.40560469566E+01 -0.10064739208E+02  0.16278289216E+02  0.51100000000E-03 0. -1.
        -11    1    3    3    0    0 -0.16536996290E+02 -0.17953178008E+02 -0.23990283258E+01  0.24526397698E+02  0.51100000000E-03 0.  1.
         12    1    3    3    0    0  0.17680966958E+02 -0.50394297797E+01  0.20335423683E+01  0.18497236000E+02  0.00000000000E+00 0. -1.
</event>
<event>
 7    1  0.5987893E-013  0.5930198E+02  0.7816164E-02  0.1266605E+00
        -11   -1    0    0    0    0  0.00000000000E+00  0.00000000000E+00  0.45593999997E+02  0.45594000000E+02  0.51100000000E-03 0. -1.
         11   -1    0    0    0    0 -0.00000000000E+00 -0.00000000000E+00 -0.45593999997E+02  0.45594000000E+02  0.51100000000E-03 0.  1.
    9900012    2    1    2    0    0 -0.71416570304E+01 -0.22882541934E+02  0.21026275622E+02  0.59301980226E+02  0.50000066018E+02 0.  0.
        -12    1    1    2    0    0  0.71416570304E+01  0.22882541934E+02 -0.21026275622E+02  0.31886019774E+02  0.00000000000E+00 0.  1.
         11    1    3    3    0    0  0.60853816262E+01 -0.18794516826E+02 -0.22294573934E+01  0.19880548603E+02  0.51100000000E-03 0. -1.
        -11    1    3    3    0    0  0.65608276894E+01 -0.56137936860E+01  0.16200723707E+02  0.18358174975E+02  0.51100000000E-03 0.  1.
        -12    1    3    3    0    0 -0.19787866346E+02  0.15257685781E+01  0.70550093080E+01  0.21063256648E+02  0.00000000000E+00 0.  1.
</event>
<event>
 7    1  0.5987893E-013  0.5930195E+02  0.7816164E-02  0.1266605E+00
        -11   -1    0    0    0    0  0.00000000000E+00  0.00000000000E+00  0.45593999997E+02  0.45594000000E+02  0.51100000000E-03 0. -1.
         11   -1    0    0    0    0 -0.00000000000E+00 -0.00000000000E+00 -0.45593999997E+02  0.45594000000E+02  0.51100000000E-03 0.  1.
    9900012    2    1    2    0    0 -0.85638012158E+01  0.21377905800E+02  0.22053715783E+02  0.59301954032E+02  0.50000018245E+02 0.  0.
        -12    1    1    2    0    0  0.85638012158E+01 -0.21377905800E+02 -0.22053715783E+02  0.31886045968E+02  0.00000000000E+00 0.  1.
         11    1    3    3    0    0  0.47097701499E+01  0.25394364905E+02  0.25194770345E+02  0.36080911252E+02  0.51100000000E-03 0. -1.
        -11    1    3    3    0    0  0.35644680745E+01 -0.50002655930E+01 -0.87826491141E+00  0.62031796822E+01  0.51100000000E-03 0.  1.
         12    1    3    3    0    0 -0.16838039440E+02  0.98380648833E+00 -0.22627896511E+01  0.17017863097E+02  0.00000000000E+00 0. -1.
</event>
<event>
 7    1  0.5987893E-013  0.5930193E+02  0.7816164E-02  0.1266605E+00
        -11   -1    0    0    0    0  0.00000000000E+00  0.00000000000E+00  0.45593999997E+02  0.45594000000E+02  0.51100000000E-03 0. -1.
         11   -1    0    0    0    0 -0.00000000000E+00 -0.00000000000E+00 -0.45593999997E+02  0.45594000000E+02  0.51100000000E-03 0.  1.
    9900012    2    1    2    0    0  0.28279139225E+02 -0.97367612474E+01  0.11054732296E+02  0.59301931866E+02  0.49999977820E+02 0.  0.
        -12    1    1    2    0    0 -0.28279139225E+02  0.97367612474E+01 -0.11054732296E+02  0.31886068134E+02  0.00000000000E+00 0.  1.
         11    1    3    3    0    0 -0.85127539620E+01 -0.97569277248E+01  0.16181245230E+02  0.20724317023E+02  0.51100000000E-03 0. -1.
        -11    1    3    3    0    0  0.16243732615E+02  0.10788930735E+01 -0.73894867663E+01  0.17878125586E+02  0.51100000000E-03 0.  1.
         12    1    3    3    0    0  0.20548160573E+02 -0.10587265961E+01  0.22629738329E+01  0.20699489257E+02  0.00000000000E+00 0. -1.
</event>
<event>
 7    1  0.5987893E-013  0.5930192E+02  0.7816164E-02  0.1266605E+00
        -11   -1    0    0    0    0  0.00000000000E+00  0.00000000000E+00  0.45593999997E+02  0.45594000000E+02  0.51100000000E-03 0. -1.
         11   -1    0    0    0    0 -0.00000000000E+00 -0.00000000000E+00 -0.45593999997E+02  0.45594000000E+02  0.51100000000E-03 0.  1.
    9900012    2    1    2    0    0  0.65455450308E+01 -0.21157526387E+02  0.22939857270E+02  0.59301919430E+02  0.49999955139E+02 0.  0.
        -12    1    1    2    0    0 -0.65455450308E+01  0.21157526387E+02 -0.22939857270E+02  0.31886080570E+02  0.00000000000E+00 0.  1.
         11    1    3    3    0    0  0.21364105645E-01 -0.20505050519E+02  0.18080278837E+00  0.20505858752E+02  0.51100000000E-03 0.  1.
        -11    1    3    3    0    0  0.62726504299E+01  0.75605264970E+01  0.27574465055E+02  0.29272151059E+02  0.51100000000E-03 0. -1.
         12    1    3    3    0    0  0.25153049527E+00 -0.82130023649E+01 -0.48154105733E+01  0.95239096188E+01  0.00000000000E+00 0. -1.
</event>
<event>
 7    1  0.5987893E-013  0.5930191E+02  0.7816164E-02  0.1266605E+00
        -11   -1    0    0    0    0  0.00000000000E+00  0.00000000000E+00  0.45593999997E+02  0.45594000000E+02  0.51100000000E-03 0.  1.
         11   -1    0    0    0    0 -0.00000000000E+00 -0.00000000000E+00 -0.45593999997E+02  0.45594000000E+02  0.51100000000E-03 0. -1.
    9900012    2    1    2    0    0 -0.22375714807E+01 -0.13267487330E+02 -0.28908297798E+02  0.59301911689E+02  0.49999941022E+02 0.  0.
        -12    1    1    2    0    0  0.22375714807E+01  0.13267487330E+02  0.28908297798E+02  0.31886088311E+02  0.00000000000E+00 0.  1.
         11    1    3    3    0    0 -0.92927749954E+01  0.14086244772E+02 -0.77314513440E+01  0.18562146940E+02  0.51100000000E-03 0. -1.
        -11    1    3    3    0    0  0.73770190147E+00 -0.15677008980E+01  0.38704097773E+01  0.42405143917E+01  0.51100000000E-03 0.  1.
         12    1    3    3    0    0  0.63175016133E+01 -0.25786031204E+02 -0.25047256231E+02  0.36499250357E+02  0.00000000000E+00 0. -1.
</event>
<event>
 7    1  0.5987893E-013  0.5930192E+02  0.7816164E-02  0.1266605E+00
        -11   -1    0    0    0    0  0.00000000000E+00  0.00000000000E+00  0.45593999997E+02  0.45594000000E+02  0.51100000000E-03 0. -1.
         11   -1    0    0    0    0 -0.00000000000E+00 -0.00000000000E+00 -0.45593999997E+02  0.45594000000E+02  0.51100000000E-03 0.  1.
    9900012    2    1    2    0    0  0.16679303765E+02 -0.74120737824E+01  0.26145440754E+02  0.59301920215E+02  0.49999956571E+02 0.  0.
        -12    1    1    2    0    0 -0.16679303765E+02  0.74120737824E+01 -0.26145440754E+02  0.31886079785E+02  0.00000000000E+00 0.  1.
         11    1    3    3    0    0 -0.57649171995E+01  0.80024562763E+01 -0.66786066423E+01  0.11911228472E+02  0.51100000000E-03 0. -1.
        -11    1    3    3    0    0 -0.18443945072E+01 -0.84276961156E+01  0.11138600010E+02  0.14088870194E+02  0.51100000000E-03 0.  1.
         12    1    3    3    0    0  0.24288615471E+02 -0.69868339430E+01  0.21685447387E+02  0.33301821548E+02  0.00000000000E+00 0. -1.
</event>
<event>
 7    1  0.5987893E-013  0.5930194E+02  0.7816164E-02  0.1266605E+00
        -11   -1    0    0    0    0  0.00000000000E+00  0.00000000000E+00  0.45593999997E+02  0.45594000000E+02  0.51100000000E-03 0. -1.
         11   -1    0    0    0    0 -0.00000000000E+00 -0.00000000000E+00 -0.45593999997E+02  0.45594000000E+02  0.51100000000E-03 0.  1.
    9900012    2    1    2    0    0  0.77622179722E+01 -0.28949878047E+02 -0.10879940851E+02  0.59301943804E+02  0.49999999592E+02 0.  0.
        -12    1    1    2    0    0 -0.77622179722E+01  0.28949878047E+02  0.10879940851E+02  0.31886056196E+02  0.00000000000E+00 0.  1.
         11    1    3    3    0    0  0.51579385477E+01 -0.27680165418E+02 -0.40620915407E+01  0.28448136593E+02  0.51100000000E-03 0. -1.
        -11    1    3    3    0    0 -0.24695216414E+01  0.66930529328E+01 -0.16102243537E+02  0.17611863668E+02  0.51100000000E-03 0.  1.
        -12    1    3    3    0    0  0.50738010659E+01 -0.79627655618E+01  0.92843942264E+01  0.13241943543E+02  0.00000000000E+00 0.  1.
</event>
<event>
 7    1  0.5987893E-013  0.5930189E+02  0.7816164E-02  0.1266605E+00
        -11   -1    0    0    0    0  0.00000000000E+00  0.00000000000E+00  0.45593999997E+02  0.45594000000E+02  0.51100000000E-03 0.  1.
         11   -1    0    0    0    0 -0.00000000000E+00 -0.00000000000E+00 -0.45593999997E+02  0.45594000000E+02  0.51100000000E-03 0. -1.
    9900012    2    1    2    0    0  0.84455012285E+01  0.23997023913E+02 -0.19223434421E+02  0.59301888938E+02  0.49999899530E+02 0.  0.
        -12    1    1    2    0    0 -0.84455012285E+01 -0.23997023913E+02  0.19223434421E+02  0.31886111062E+02  0.00000000000E+00 0.  1.
         11    1    3    3    0    0  0.15802229530E+02  0.20963723357E+02 -0.26358355562E+02  0.37201492756E+02  0.51100000000E-03 0. -1.
        -11    1    3    3    0    0 -0.78463896410E+01  0.24585356372E+01  0.13437026632E+02  0.15753219127E+02  0.51100000000E-03 0.  1.
        -12    1    3    3    0    0  0.48966133951E+00  0.57476491907E+00 -0.63021054919E+01  0.63471770553E+01  0.00000000000E+00 0.  1.
</event>
<event>
 7    1  0.5987893E-013  0.5930193E+02  0.7816164E-02  0.1266605E+00
        -11   -1    0    0    0    0  0.00000000000E+00  0.00000000000E+00  0.45593999997E+02  0.45594000000E+02  0.51100000000E-03 0. -1.
         11   -1    0    0    0    0 -0.00000000000E+00 -0.00000000000E+00 -0.45593999997E+02  0.45594000000E+02  0.51100000000E-03 0.  1.
    9900012    2    1    2    0    0 -0.16764208033E+02  0.65402139336E+01  0.26323153341E+02  0.59301929827E+02  0.49999974101E+02 0.  0.
        -12    1    1    2    0    0  0.16764208033E+02 -0.65402139336E+01 -0.26323153341E+02  0.31886070173E+02  0.00000000000E+00 0.  1.
         11    1    3    3    0    0  0.75092882999E+01 -0.12179488336E+02  0.11786696040E+02  0.18537948934E+02  0.51100000000E-03 0.  1.
        -11    1    3    3    0    0 -0.20659945466E+02  0.14423822562E+02  0.20566979631E+02  0.32525077331E+02  0.51100000000E-03 0. -1.
        -12    1    3    3    0    0 -0.36135508663E+01  0.42958797069E+01 -0.60305223297E+01  0.82389035611E+01  0.00000000000E+00 0.  1.
</event>
<event>
 7    1  0.5987893E-013  0.5930193E+02  0.7816164E-02  0.1266605E+00
        -11   -1    0    0    0    0  0.00000000000E+00  0.00000000000E+00  0.45593999997E+02  0.45594000000E+02  0.51100000000E-03 0. -1.
         11   -1    0    0    0    0 -0.00000000000E+00 -0.00000000000E+00 -0.45593999997E+02  0.45594000000E+02  0.51100000000E-03 0.  1.
    9900012    2    1    2    0    0 -0.94055916072E+01 -0.18982654595E+02  0.23830972010E+02  0.59301928497E+02  0.49999971675E+02 0.  0.
        -12    1    1    2    0    0  0.94055916072E+01  0.18982654595E+02 -0.23830972010E+02  0.31886071503E+02  0.00000000000E+00 0.  1.
         11    1    3    3    0    0 -0.18073869582E+02 -0.34709895296E+01  0.29403540667E+02  0.34688337147E+02  0.51100000000E-03 0. -1.
        -11    1    3    3    0    0 -0.23508041873E+01  0.14195214536E+01 -0.32876108281E+01  0.42836557638E+01  0.51100000000E-03 0.  1.
         12    1    3    3    0    0  0.11019082163E+02 -0.16931186519E+02 -0.22849578291E+01  0.20329935586E+02  0.00000000000E+00 0. -1.
</event>
<event>
 7    1  0.5987893E-013  0.5930195E+02  0.7816164E-02  0.1266605E+00
        -11   -1    0    0    0    0  0.00000000000E+00  0.00000000000E+00  0.45593999997E+02  0.45594000000E+02  0.51100000000E-03 0. -1.
         11   -1    0    0    0    0 -0.00000000000E+00 -0.00000000000E+00 -0.45593999997E+02  0.45594000000E+02  0.51100000000E-03 0.  1.
    9900012    2    1    2    0    0 -0.43650091949E+01  0.19087465590E+02  0.25166153364E+02  0.59301954101E+02  0.50000018372E+02 0.  0.
        -12    1    1    2    0    0  0.43650091949E+01 -0.19087465590E+02 -0.25166153364E+02  0.31886045899E+02  0.00000000000E+00 0.  1.
         11    1    3    3    0    0  0.11019173163E+02  0.14053323611E+02  0.17386876021E+02  0.24924316234E+02  0.51100000000E-03 0. -1.
        -11    1    3    3    0    0 -0.97280597495E+01 -0.20529431535E+01 -0.10198348943E+02  0.14242754070E+02  0.51100000000E-03 0.  1.
         12    1    3    3    0    0 -0.56561226085E+01  0.70870851330E+01  0.17977626286E+02  0.20134883797E+02  0.00000000000E+00 0. -1.
</event>
<event>
 7    1  0.5987893E-013  0.5930194E+02  0.7816164E-02  0.1266605E+00
        -11   -1    0    0    0    0  0.00000000000E+00  0.00000000000E+00  0.45593999997E+02  0.45594000000E+02  0.51100000000E-03 0. -1.
         11   -1    0    0    0    0 -0.00000000000E+00 -0.00000000000E+00 -0.45593999997E+02  0.45594000000E+02  0.51100000000E-03 0.  1.
    9900012    2    1    2    0    0  0.12598609029E+02  0.18255775822E+02 -0.22906822768E+02  0.59301939885E+02  0.49999992445E+02 0.  0.
        -12    1    1    2    0    0 -0.12598609029E+02 -0.18255775822E+02  0.22906822768E+02  0.31886060115E+02  0.00000000000E+00 0.  1.
         11    1    3    3    0    0 -0.95438155171E+01 -0.30781842347E+01 -0.10998830662E+02  0.14884015217E+02  0.51100000000E-03 0. -1.
        -11    1    3    3    0    0  0.22577990339E+02  0.14482333382E+02 -0.20253663480E+02  0.33611225989E+02  0.51100000000E-03 0.  1.
         12    1    3    3    0    0 -0.43556579217E+00  0.68516266747E+01  0.83456713731E+01  0.10806698678E+02  0.00000000000E+00 0. -1.
</event>
<event>
 7    1  0.5987893E-013  0.5930198E+02  0.7816164E-02  0.1266605E+00
        -11   -1    0    0    0    0  0.00000000000E+00  0.00000000000E+00  0.45593999997E+02  0.45594000000E+02  0.51100000000E-03 0.  1.
         11   -1    0    0    0    0 -0.00000000000E+00 -0.00000000000E+00 -0.45593999997E+02  0.45594000000E+02  0.51100000000E-03 0. -1.
    9900012    2    1    2    0    0 -0.16444216254E+02  0.14999756525E+02 -0.22832289110E+02  0.59301978454E+02  0.50000062786E+02 0.  0.
        -12    1    1    2    0    0  0.16444216254E+02 -0.14999756525E+02  0.22832289110E+02  0.31886021546E+02  0.00000000000E+00 0.  1.
         11    1    3    3    0    0 -0.16825390713E+02  0.21947107292E+01 -0.36320748251E+02  0.40088742579E+02  0.51100000000E-03 0. -1.
        -11    1    3    3    0    0  0.68346505776E+00  0.40105995559E+01  0.14875169046E+01  0.43318287230E+01  0.51100000000E-03 0.  1.
         12    1    3    3    0    0 -0.30229059843E+00  0.87944462400E+01  0.12000942236E+02  0.14881407152E+02  0.00000000000E+00 0. -1.
</event>
<event>
 7    1  0.5987893E-013  0.5930191E+02  0.7816164E-02  0.1266605E+00
        -11   -1    0    0    0    0  0.00000000000E+00  0.00000000000E+00  0.45593999997E+02  0.45594000000E+02  0.51100000000E-03 0.  1.
         11   -1    0    0    0    0 -0.00000000000E+00 -0.00000000000E+00 -0.45593999997E+02  0.45594000000E+02  0.51100000000E-03 0. -1.
    9900012    2    1    2    0    0 -0.33378479364E+01  0.26514295389E+02 -0.17394640121E+02  0.59301912222E+02  0.49999941995E+02 0.  0.
        -12    1    1    2    0    0  0.33378479364E+01 -0.26514295389E+02  0.17394640121E+02  0.31886087778E+02  0.00000000000E+00 0.  1.
         11    1    3    3    0    0 -0.29759878273E+01  0.11755190048E+02 -0.13846914455E+02  0.18405923960E+02  0.51100000000E-03 0. -1.
        -11    1    3    3    0    0  0.23957893360E+01 -0.12511015075E+02  0.21019120762E+01  0.12910590203E+02  0.51100000000E-03 0.  1.
         12    1    3    3    0    0 -0.27576494451E+01  0.27270120416E+02 -0.56496377413E+01  0.27985398060E+02  0.00000000000E+00 0. -1.
</event>
<event>
 7    1  0.5987893E-013  0.5930195E+02  0.7816164E-02  0.1266605E+00
        -11   -1    0    0    0    0  0.00000000000E+00  0.00000000000E+00  0.45593999997E+02  0.45594000000E+02  0.51100000000E-03 0. -1.
         11   -1    0    0    0    0 -0.00000000000E+00 -0.00000000000E+00 -0.45593999997E+02  0.45594000000E+02  0.51100000000E-03 0.  1.
    9900012    2    1    2    0    0  0.35286779546E+01  0.31415775173E+02  0.41614493044E+01  0.59301950415E+02  0.50000011650E+02 0.  0.
        -12    1    1    2    0    0 -0.35286779546E+01 -0.31415775173E+02 -0.41614493044E+01  0.31886049585E+02  0.00000000000E+00 0.  1.
         11    1    3    3    0    0 -0.14289462911E+02 -0.48202193597E+01 -0.55783133557E+01  0.16079205364E+02  0.51100000000E-03 0. -1.
        -11    1    3    3    0    0  0.12817734577E+02  0.18889220597E+02  0.25334777311E+00  0.22828954418E+02  0.51100000000E-03 0.  1.
         12    1    3    3    0    0  0.50004062886E+01  0.17346773935E+02  0.94864148870E+01  0.20393790634E+02  0.00000000000E+00 0. -1.
</event>
<event>
 7    1  0.5987893E-013  0.5930194E+02  0.7816164E-02  0.1266605E+00
        -11   -1    0    0    0    0  0.00000000000E+00  0.00000000000E+00  0.45593999997E+02  0.45594000000E+02  0.51100000000E-03 0. -1.
         11   -1    0    0    0    0 -0.00000000000E+00 -0.00000000000E+00 -0.45593999997E+02  0.45594000000E+02  0.51100000000E-03 0.  1.
    9900012    2    1    2    0    0 -0.23066368865E+02  0.89413615220E+00  0.21996906808E+02  0.59301940959E+02  0.49999994403E+02 0.  0.
        -12    1    1    2    0    0  0.23066368865E+02 -0.89413615220E+00 -0.21996906808E+02  0.31886059041E+02  0.00000000000E+00 0.  1.
         11    1    3    3    0    0 -0.12752106520E+02  0.13389883356E+02  0.32949561397E+02  0.37783313692E+02  0.51100000000E-03 0. -1.
        -11    1    3    3    0    0  0.11385830613E+00 -0.30668301858E+01 -0.57692131912E+01  0.65346945001E+01  0.51100000000E-03 0.  1.
         12    1    3    3    0    0 -0.10428120651E+02 -0.94289170176E+01 -0.51834413983E+01  0.14983932767E+02  0.00000000000E+00 0. -1.
</event>
<event>
 7    1  0.5987893E-013  0.5930191E+02  0.7816164E-02  0.1266605E+00
        -11   -1    0    0    0    0  0.00000000000E+00  0.00000000000E+00  0.45593999997E+02  0.45594000000E+02  0.51100000000E-03 0.  1.
         11   -1    0    0    0    0 -0.00000000000E+00 -0.00000000000E+00 -0.45593999997E+02  0.45594000000E+02  0.51100000000E-03 0. -1.
    9900012    2    1    2    0    0 -0.27297867209E+02 -0.16939127973E+00 -0.16477872698E+02  0.59301913125E+02  0.49999943641E+02 0.  0.
        -12    1    1    2    0    0  0.27297867209E+02  0.16939127973E+00  0.16477872698E+02  0.31886086875E+02  0.00000000000E+00 0.  1.
         11    1    3    3    0    0 -0.92115491563E+00  0.71717806848E+01  0.30312885875E+01  0.78403874478E+01  0.51100000000E-03 0. -1.
        -11    1    3    3    0    0 -0.35842805236E+02 -0.10928024311E+02 -0.16044459986E+02  0.40762152777E+02  0.51100000000E-03 0.  1.
        -12    1    3    3    0    0  0.94660929429E+01  0.35868523460E+01 -0.34647012989E+01  0.10699372900E+02  0.00000000000E+00 0.  1.
</event>
<event>
 7    1  0.5987893E-013  0.5930186E+02  0.7816164E-02  0.1266605E+00
        -11   -1    0    0    0    0  0.00000000000E+00  0.00000000000E+00  0.45593999997E+02  0.45594000000E+02  0.51100000000E-03 0.  1.
         11   -1    0    0    0    0 -0.00000000000E+00 -0.00000000000E+00 -0.45593999997E+02  0.45594000000E+02  0.51100000000E-03 0. -1.
    9900012    2    1    2    0    0  0.13338428457E+02  0.19719242768E+02 -0.21212347697E+02  0.59301860317E+02  0.49999847331E+02 0.  0.
        -12    1    1    2    0    0 -0.13338428457E+02 -0.19719242768E+02  0.21212347697E+02  0.31886139683E+02  0.00000000000E+00 0.  1.
         11    1    3    3    0    0 -0.15781323840E+02  0.15969203761E+02 -0.13950729605E+02  0.26432716616E+02  0.51100000000E-03 0.  1.
        -11    1    3    3    0    0  0.21453587184E+02  0.47691084699E+01 -0.10654823117E+02  0.24423882873E+02  0.51100000000E-03 0. -1.
         12    1    3    3    0    0  0.76661651135E+01 -0.10190694620E+01  0.33932050253E+01  0.84452608283E+01  0.00000000000E+00 0. -1.
</event>
<event>
 7    1  0.5987893E-013  0.5930194E+02  0.7816164E-02  0.1266605E+00
        -11   -1    0    0    0    0  0.00000000000E+00  0.00000000000E+00  0.45593999997E+02  0.45594000000E+02  0.51100000000E-03 0.  1.
         11   -1    0    0    0    0 -0.00000000000E+00 -0.00000000000E+00 -0.45593999997E+02  0.45594000000E+02  0.51100000000E-03 0. -1.
    9900012    2    1    2    0    0 -0.23471456166E+02 -0.21548297151E+02 -0.12174585347E+01  0.59301943958E+02  0.49999999872E+02 0.  0.
        -12    1    1    2    0    0  0.23471456166E+02  0.21548297151E+02  0.12174585347E+01  0.31886056042E+02  0.00000000000E+00 0.  1.
         11    1    3    3    0    0 -0.28103982059E+02 -0.21934648325E+02 -0.50744611139E+01  0.36009898092E+02  0.51100000000E-03 0. -1.
        -11    1    3    3    0    0 -0.68406735429E+01 -0.42929277286E+01  0.67988139054E+01  0.10556889399E+02  0.51100000000E-03 0.  1.
         12    1    3    3    0    0  0.11473199436E+02  0.46792789021E+01 -0.29418113263E+01  0.12735156467E+02  0.00000000000E+00 0. -1.
</event>
<event>
 7    1  0.5987893E-013  0.5930193E+02  0.7816164E-02  0.1266605E+00
        -11   -1    0    0    0    0  0.00000000000E+00  0.00000000000E+00  0.45593999997E+02  0.45594000000E+02  0.51100000000E-03 0.  1.
         11   -1    0    0    0    0 -0.00000000000E+00 -0.00000000000E+00 -0.45593999997E+02  0.45594000000E+02  0.51100000000E-03 0. -1.
    9900012    2    1    2    0    0 -0.16293883414E+01 -0.61509036520E+01 -0.31244723573E+02  0.59301932929E+02  0.49999979759E+02 0.  0.
        -12    1    1    2    0    0  0.16293883414E+01  0.61509036520E+01  0.31244723573E+02  0.31886067071E+02  0.00000000000E+00 0.  1.
         11    1    3    3    0    0  0.52560497586E+01  0.10540847192E+02 -0.18444732068E+02  0.21884781468E+02  0.51100000000E-03 0. -1.
        -11    1    3    3    0    0  0.53697698555E+00 -0.24017309680E+02 -0.12269187713E+02  0.26975034309E+02  0.51100000000E-03 0.  1.
         12    1    3    3    0    0 -0.74224150855E+01  0.73255588363E+01 -0.53080379240E+00  0.10442117153E+02  0.00000000000E+00 0. -1.
</event>
<event>
 7    1  0.5987893E-013  0.5930196E+02  0.7816164E-02  0.1266605E+00
        -11   -1    0    0    0    0  0.00000000000E+00  0.00000000000E+00  0.45593999997E+02  0.45594000000E+02  0.51100000000E-03 0. -1.
         11   -1    0    0    0    0 -0.00000000000E+00 -0.00000000000E+00 -0.45593999997E+02  0.45594000000E+02  0.51100000000E-03 0.  1.
    9900012    2    1    2    0    0 -0.14245995783E+01 -0.27266211258E+02  0.16469483132E+02  0.59301958619E+02  0.50000026611E+02 0.  0.
        -12    1    1    2    0    0  0.14245995783E+01  0.27266211258E+02 -0.16469483132E+02  0.31886041381E+02  0.00000000000E+00 0.  1.
         11    1    3    3    0    0  0.52807080116E+01 -0.21333909425E+02  0.24406291331E+02  0.32843395458E+02  0.51100000000E-03 0. -1.
        -11    1    3    3    0    0  0.30281679534E+01 -0.61980622045E+01 -0.13560430936E+02  0.15214173118E+02  0.51100000000E-03 0.  1.
         12    1    3    3    0    0 -0.97334755434E+01  0.26576037212E+00  0.56236227376E+01  0.11244390042E+02  0.00000000000E+00 0. -1.
</event>
<event>
 7    1  0.5987893E-013  0.5930189E+02  0.7816164E-02  0.1266605E+00
        -11   -1    0    0    0    0  0.00000000000E+00  0.00000000000E+00  0.45593999997E+02  0.45594000000E+02  0.51100000000E-03 0. -1.
         11   -1    0    0    0    0 -0.00000000000E+00 -0.00000000000E+00 -0.45593999997E+02  0.45594000000E+02  0.51100000000E-03 0.  1.
    9900012    2    1    2    0    0 -0.69217169252E+01  0.67897406885E+01  0.30376192697E+02  0.59301892891E+02  0.49999906738E+02 0.  0.
        -12    1    1    2    0    0  0.69217169252E+01 -0.67897406885E+01 -0.30376192697E+02  0.31886107109E+02  0.00000000000E+00 0.  1.
         11    1    3    3    0    0  0.10397910480E+02 -0.63164936583E+01  0.13772837690E+02  0.18376770467E+02  0.51100000000E-03 0. -1.
        -11    1    3    3    0    0 -0.20735756741E+02  0.90559884536E+01 -0.89242238107E+00  0.22644623037E+02  0.51100000000E-03 0.  1.
        -12    1    3    3    0    0  0.34161293357E+01  0.40502458931E+01  0.17495777388E+02  0.18280499387E+02  0.00000000000E+00 0.  1.
</event>
<event>
 7    1  0.5987893E-013  0.5930195E+02  0.7816164E-02  0.1266605E+00
        -11   -1    0    0    0    0  0.00000000000E+00  0.00000000000E+00  0.45593999997E+02  0.45594000000E+02  0.51100000000E-03 0. -1.
         11   -1    0    0    0    0 -0.00000000000E+00 -0.00000000000E+00 -0.45593999997E+02  0.45594000000E+02  0.51100000000E-03 0.  1.
    9900012    2    1    2    0    0  0.13516091214E+02  0.28823896837E+02  0.17940231472E+01  0.59301948667E+02  0.50000008460E+02 0.  0.
        -12    1    1    2    0    0 -0.13516091214E+02 -0.28823896837E+02 -0.17940231472E+01  0.31886051333E+02  0.00000000000E+00 0.  1.
         11    1    3    3    0    0  0.13094732952E+02  0.14240133608E+02  0.10946397122E+02  0.22227843946E+02  0.51100000000E-03 0. -1.
        -11    1    3    3    0    0 -0.79442380936E+01 -0.32749605130E+01 -0.14308335614E+02  0.16690259242E+02  0.51100000000E-03 0.  1.
        -12    1    3    3    0    0  0.83655963553E+01  0.17858723742E+02  0.51559616396E+01  0.20383845479E+02  0.00000000000E+00 0.  1.
</event>
<event>
 7    1  0.5987893E-013  0.5930190E+02  0.7816164E-02  0.1266605E+00
        -11   -1    0    0    0    0  0.00000000000E+00  0.00000000000E+00  0.45593999997E+02  0.45594000000E+02  0.51100000000E-03 0. -1.
         11   -1    0    0    0    0 -0.00000000000E+00 -0.00000000000E+00 -0.45593999997E+02  0.45594000000E+02  0.51100000000E-03 0.  1.
    9900012    2    1    2    0    0  0.40238827719E+01  0.31544074981E+02  0.23458971623E+01  0.59301897503E+02  0.49999915149E+02 0.  0.
        -12    1    1    2    0    0 -0.40238827719E+01 -0.31544074981E+02 -0.23458971623E+01  0.31886102497E+02  0.00000000000E+00 0.  1.
         11    1    3    3    0    0 -0.98007640696E+00 -0.43377336486E+01  0.26374085971E+01  0.51703391899E+01  0.51100000000E-03 0. -1.
        -11    1    3    3    0    0  0.79408796876E+01  0.42724538702E+02 -0.71111726314E+01  0.44034220260E+02  0.51100000000E-03 0.  1.
        -12    1    3    3    0    0 -0.29369205087E+01 -0.68427300719E+01  0.68196611966E+01  0.10097338053E+02  0.00000000000E+00 0.  1.
</event>
<event>
 7    1  0.5987893E-013  0.5930195E+02  0.7816164E-02  0.1266605E+00
        -11   -1    0    0    0    0  0.00000000000E+00  0.00000000000E+00  0.45593999997E+02  0.45594000000E+02  0.51100000000E-03 0. -1.
         11   -1    0    0    0    0 -0.00000000000E+00 -0.00000000000E+00 -0.45593999997E+02  0.45594000000E+02  0.51100000000E-03 0.  1.
    9900012    2    1    2    0    0  0.52911108766E+01  0.20602401552E+02  0.23754276988E+02  0.59301945379E+02  0.50000002465E+02 0.  0.
        -12    1    1    2    0    0 -0.52911108766E+01 -0.20602401552E+02 -0.23754276988E+02  0.31886054621E+02  0.00000000000E+00 0.  1.
         11    1    3    3    0    0 -0.33848330043E+01 -0.51857642106E+01  0.82302703773E+01  0.10299834739E+02  0.51100000000E-03 0. -1.
        -11    1    3    3    0    0 -0.15587761132E+01  0.86381980339E+01 -0.12079070967E+02  0.14931584107E+02  0.51100000000E-03 0.  1.
        -12    1    3    3    0    0  0.10234719994E+02  0.17149967729E+02  0.27603077578E+02  0.34070526533E+02  0.00000000000E+00 0.  1.
</event>
<event>
 7    1  0.5987893E-013  0.5930200E+02  0.7816164E-02  0.1266605E+00
        -11   -1    0    0    0    0  0.00000000000E+00  0.00000000000E+00  0.45593999997E+02  0.45594000000E+02  0.51100000000E-03 0. -1.
         11   -1    0    0    0    0 -0.00000000000E+00 -0.00000000000E+00 -0.45593999997E+02  0.45594000000E+02  0.51100000000E-03 0.  1.
    9900012    2    1    2    0    0  0.22819703583E+01  0.19980853340E+02  0.24744190154E+02  0.59302002520E+02  0.50000106676E+02 0.  0.
        -12    1    1    2    0    0 -0.22819703583E+01 -0.19980853340E+02 -0.24744190154E+02  0.31885997480E+02  0.00000000000E+00 0.  1.
         11    1    3    3    0    0  0.11231477849E+02  0.14365386194E+02  0.13035270810E+02  0.22414921381E+02  0.51100000000E-03 0. -1.
        -11    1    3    3    0    0 -0.12922845430E+02  0.19177590129E-01 -0.85512586642E+01  0.15495945495E+02  0.51100000000E-03 0.  1.
        -12    1    3    3    0    0  0.39733379391E+01  0.55962895560E+01  0.20260178009E+02  0.21391135643E+02  0.00000000000E+00 0.  1.
</event>
<event>
 7    1  0.5987893E-013  0.5930196E+02  0.7816164E-02  0.1266605E+00
        -11   -1    0    0    0    0  0.00000000000E+00  0.00000000000E+00  0.45593999997E+02  0.45594000000E+02  0.51100000000E-03 0.  1.
         11   -1    0    0    0    0 -0.00000000000E+00 -0.00000000000E+00 -0.45593999997E+02  0.45594000000E+02  0.51100000000E-03 0. -1.
    9900012    2    1    2    0    0 -0.67405403173E+01  0.95599272944E+01 -0.29662983264E+02  0.59301958073E+02  0.50000025615E+02 0.  0.
        -12    1    1    2    0    0  0.67405403173E+01 -0.95599272944E+01  0.29662983264E+02  0.31886041927E+02  0.00000000000E+00 0.  1.
         11    1    3    3    0    0 -0.13152426679E+02  0.16958000594E+02 -0.31246120261E+02  0.37906201911E+02  0.51100000000E-03 0. -1.
        -11    1    3    3    0    0 -0.59003063712E+01 -0.56508264135E+01 -0.20828113839E+01  0.84311065674E+01  0.51100000000E-03 0.  1.
         12    1    3    3    0    0  0.12312192733E+02 -0.17472468860E+01  0.36659483811E+01  0.12964649594E+02  0.00000000000E+00 0. -1.
</event>
<event>
 7    1  0.5987893E-013  0.5930212E+02  0.7816164E-02  0.1266604E+00
        -11   -1    0    0    0    0  0.00000000000E+00  0.00000000000E+00  0.45593999997E+02  0.45594000000E+02  0.51100000000E-03 0.  1.
         11   -1    0    0    0    0 -0.00000000000E+00 -0.00000000000E+00 -0.45593999997E+02  0.45594000000E+02  0.51100000000E-03 0. -1.
    9900012    2    1    2    0    0 -0.12590914028E+02 -0.12334018042E+02 -0.26571602702E+02  0.59302122448E+02  0.50000325395E+02 0.  0.
        -12    1    1    2    0    0  0.12590914028E+02  0.12334018042E+02  0.26571602702E+02  0.31885877552E+02  0.00000000000E+00 0.  1.
         11    1    3    3    0    0 -0.80405508869E+01 -0.28302486349E+01  0.11084174695E+02  0.13982835722E+02  0.51100000000E-03 0. -1.
        -11    1    3    3    0    0  0.27796285487E+01  0.64299564043E+01 -0.15896451670E+02  0.17371466553E+02  0.51100000000E-03 0.  1.
         12    1    3    3    0    0 -0.73299916896E+01 -0.15933725811E+02 -0.21759325726E+02  0.27947820174E+02  0.00000000000E+00 0. -1.
</event>
<event>
 7    1  0.5987893E-013  0.5930196E+02  0.7816164E-02  0.1266605E+00
        -11   -1    0    0    0    0  0.00000000000E+00  0.00000000000E+00  0.45593999997E+02  0.45594000000E+02  0.51100000000E-03 0.  1.
         11   -1    0    0    0    0 -0.00000000000E+00 -0.00000000000E+00 -0.45593999997E+02  0.45594000000E+02  0.51100000000E-03 0. -1.
    9900012    2    1    2    0    0  0.23217413571E+02  0.17475108034E+01 -0.21785715494E+02  0.59301960947E+02  0.50000030856E+02 0.  0.
        -12    1    1    2    0    0 -0.23217413571E+02 -0.17475108034E+01  0.21785715494E+02  0.31886039053E+02  0.00000000000E+00 0.  1.
         11    1    3    3    0    0  0.33671281247E+01 -0.14809471524E+02 -0.21635093431E+02  0.26433601091E+02  0.51100000000E-03 0. -1.
        -11    1    3    3    0    0  0.12656275344E+02 -0.81166170571E+00  0.45779477984E+01  0.13483237987E+02  0.51100000000E-03 0.  1.
        -12    1    3    3    0    0  0.71940101026E+01  0.17368644034E+02 -0.47285698613E+01  0.19385121868E+02  0.00000000000E+00 0.  1.
</event>
<event>
 7    1  0.5987893E-013  0.5930194E+02  0.7816164E-02  0.1266605E+00
        -11   -1    0    0    0    0  0.00000000000E+00  0.00000000000E+00  0.45593999997E+02  0.45594000000E+02  0.51100000000E-03 0.  1.
         11   -1    0    0    0    0 -0.00000000000E+00 -0.00000000000E+00 -0.45593999997E+02  0.45594000000E+02  0.51100000000E-03 0. -1.
    9900012    2    1    2    0    0  0.10415474963E+02 -0.28646621895E+01 -0.30000541285E+02  0.59301939008E+02  0.49999990846E+02 0.  0.
        -12    1    1    2    0    0 -0.10415474963E+02  0.28646621895E+01  0.30000541285E+02  0.31886060992E+02  0.00000000000E+00 0.  1.
         11    1    3    3    0    0  0.21872587723E+01  0.15318693000E+02 -0.21308113898E+02  0.26334049713E+02  0.51100000000E-03 0. -1.
        -11    1    3    3    0    0 -0.53509433822E+00 -0.21850566198E+02 -0.85420796424E+01  0.23467012891E+02  0.51100000000E-03 0.  1.
         12    1    3    3    0    0  0.87633105285E+01  0.36672110088E+01 -0.15034774508E+00  0.95008764041E+01  0.00000000000E+00 0. -1.
</event>
<event>
 7    1  0.5987893E-013  0.5930194E+02  0.7816164E-02  0.1266605E+00
        -11   -1    0    0    0    0  0.00000000000E+00  0.00000000000E+00  0.45593999997E+02  0.45594000000E+02  0.51100000000E-03 0.  1.
         11   -1    0    0    0    0 -0.00000000000E+00 -0.00000000000E+00 -0.45593999997E+02  0.45594000000E+02  0.51100000000E-03 0. -1.
    9900012    2    1    2    0    0  0.19358007907E+02 -0.52852578137E+01 -0.24780120509E+02  0.59301940464E+02  0.49999993501E+02 0.  0.
        -12    1    1    2    0    0 -0.19358007907E+02  0.52852578137E+01  0.24780120509E+02  0.31886059536E+02  0.00000000000E+00 0.  1.
         11    1    3    3    0    0  0.23539562947E+02 -0.97665365677E+01 -0.25851622611E+02  0.36301551649E+02  0.51100000000E-03 0. -1.
        -11    1    3    3    0    0 -0.10033978293E+02 -0.45033117352E+01  0.42898632564E+01  0.11805230365E+02  0.51100000000E-03 0.  1.
        -12    1    3    3    0    0  0.58524232533E+01  0.89845904891E+01 -0.32183611546E+01  0.11195158450E+02  0.00000000000E+00 0.  1.
</event>
<event>
 7    1  0.5987893E-013  0.5930195E+02  0.7816164E-02  0.1266605E+00
        -11   -1    0    0    0    0  0.00000000000E+00  0.00000000000E+00  0.45593999997E+02  0.45594000000E+02  0.51100000000E-03 0. -1.
         11   -1    0    0    0    0 -0.00000000000E+00 -0.00000000000E+00 -0.45593999997E+02  0.45594000000E+02  0.51100000000E-03 0.  1.
    9900012    2    1    2    0    0 -0.91025031115E+01 -0.24292889668E+02  0.18539689935E+02  0.59301950477E+02  0.50000011762E+02 0.  0.
        -12    1    1    2    0    0  0.91025031115E+01  0.24292889668E+02 -0.18539689935E+02  0.31886049523E+02  0.00000000000E+00 0.  1.
         11    1    3    3    0    0  0.11764344474E+02 -0.23458485595E+01 -0.26582458049E+00  0.11998894505E+02  0.51100000000E-03 0. -1.
        -11    1    3    3    0    0 -0.22212911728E+02 -0.10030019635E+02 -0.72627595043E+00  0.24383236420E+02  0.51100000000E-03 0.  1.
         12    1    3    3    0    0  0.13460641420E+01 -0.11917021473E+02  0.19531790466E+02  0.22919819551E+02  0.00000000000E+00 0. -1.
</event>
<event>
 7    1  0.5987893E-013  0.5930193E+02  0.7816164E-02  0.1266605E+00
        -11   -1    0    0    0    0  0.00000000000E+00  0.00000000000E+00  0.45593999997E+02  0.45594000000E+02  0.51100000000E-03 0.  1.
         11   -1    0    0    0    0 -0.00000000000E+00 -0.00000000000E+00 -0.45593999997E+02  0.45594000000E+02  0.51100000000E-03 0. -1.
    9900012    2    1    2    0    0 -0.17680451543E+02 -0.16869591073E+02 -0.20482681063E+02  0.59301926343E+02  0.49999967747E+02 0.  0.
        -12    1    1    2    0    0  0.17680451543E+02  0.16869591073E+02  0.20482681063E+02  0.31886073657E+02  0.00000000000E+00 0.  1.
         11    1    3    3    0    0 -0.15409275135E+02 -0.14712645144E+02 -0.15840367003E+02  0.26548538837E+02  0.51100000000E-03 0. -1.
        -11    1    3    3    0    0 -0.10122520839E+02  0.11193477944E+02 -0.77368149260E+01  0.16959294858E+02  0.51100000000E-03 0.  1.
         12    1    3    3    0    0  0.78513444307E+01 -0.13350423874E+02  0.30945008656E+01  0.15794092648E+02  0.00000000000E+00 0. -1.
</event>
<event>
 7    1  0.5987893E-013  0.5930194E+02  0.7816164E-02  0.1266605E+00
        -11   -1    0    0    0    0  0.00000000000E+00  0.00000000000E+00  0.45593999997E+02  0.45594000000E+02  0.51100000000E-03 0. -1.
         11   -1    0    0    0    0 -0.00000000000E+00 -0.00000000000E+00 -0.45593999997E+02  0.45594000000E+02  0.51100000000E-03 0.  1.
    9900012    2    1    2    0    0 -0.43704534455E+01 -0.29610316856E+02  0.10993127067E+02  0.59301943951E+02  0.49999999861E+02 0.  0.
        -12    1    1    2    0    0  0.43704534455E+01  0.29610316856E+02 -0.10993127067E+02  0.31886056049E+02  0.00000000000E+00 0.  1.
         11    1    3    3    0    0 -0.42310073749E+01 -0.40054426708E+02  0.27787104012E+01  0.40373007741E+02  0.51100000000E-03 0. -1.
        -11    1    3    3    0    0 -0.53262496202E+00 -0.15865038403E+01  0.65703621049E+01  0.67801432313E+01  0.51100000000E-03 0.  1.
         12    1    3    3    0    0  0.39317889142E+00  0.12030613692E+02  0.16440545609E+01  0.12148792979E+02  0.00000000000E+00 0. -1.
</event>
<event>
 7    1  0.5987893E-013  0.5930195E+02  0.7816164E-02  0.1266605E+00
        -11   -1    0    0    0    0  0.00000000000E+00  0.00000000000E+00  0.45593999997E+02  0.45594000000E+02  0.51100000000E-03 0. -1.
         11   -1    0    0    0    0 -0.00000000000E+00 -0.00000000000E+00 -0.45593999997E+02  0.45594000000E+02  0.51100000000E-03 0.  1.
    9900012    2    1    2    0    0  0.14220752878E+02 -0.51725846449E+01  0.28066612999E+02  0.59301949608E+02  0.50000010178E+02 0.  0.
        -12    1    1    2    0    0 -0.14220752878E+02  0.51725846449E+01 -0.28066612999E+02  0.31886050392E+02  0.00000000000E+00 0.  1.
         11    1    3    3    0    0  0.30087018394E+00 -0.98729744461E+01 -0.85123703945E+01  0.13039424729E+02  0.51100000000E-03 0. -1.
        -11    1    3    3    0    0  0.16358387887E+02 -0.52895718920E+01  0.28064038051E+02  0.32911497339E+02  0.51100000000E-03 0.  1.
        -12    1    3    3    0    0 -0.24385051926E+01  0.99899616932E+01  0.85149453421E+01  0.13351027540E+02  0.00000000000E+00 0.  1.
</event>
<event>
 7    1  0.5987893E-013  0.5930196E+02  0.7816164E-02  0.1266605E+00
        -11   -1    0    0    0    0  0.00000000000E+00  0.00000000000E+00  0.45593999997E+02  0.45594000000E+02  0.51100000000E-03 0.  1.
         11   -1    0    0    0    0 -0.00000000000E+00 -0.00000000000E+00 -0.45593999997E+02  0.45594000000E+02  0.51100000000E-03 0. -1.
    9900012    2    1    2    0    0 -0.27064240460E+02  0.82676608810E+01 -0.14693270984E+02  0.59301960103E+02  0.50000029318E+02 0.  0.
        -12    1    1    2    0    0  0.27064240460E+02 -0.82676608810E+01  0.14693270984E+02  0.31886039897E+02  0.00000000000E+00 0.  1.
         11    1    3    3    0    0 -0.15478991613E+02 -0.90872743463E+01  0.94885486335E+01  0.20302962637E+02  0.51100000000E-03 0. -1.
        -11    1    3    3    0    0  0.18021252676E+01  0.16927684321E+02 -0.11424048890E+02  0.20501293746E+02  0.51100000000E-03 0.  1.
         12    1    3    3    0    0 -0.13387374114E+02  0.42725090627E+00 -0.12757770727E+02  0.18497703720E+02  0.00000000000E+00 0. -1.
</event>
<event>
 7    1  0.5987893E-013  0.5930196E+02  0.7816164E-02  0.1266605E+00
        -11   -1    0    0    0    0  0.00000000000E+00  0.00000000000E+00  0.45593999997E+02  0.45594000000E+02  0.51100000000E-03 0.  1.
         11   -1    0    0    0    0 -0.00000000000E+00 -0.00000000000E+00 -0.45593999997E+02  0.45594000000E+02  0.51100000000E-03 0. -1.
    9900012    2    1    2    0    0  0.31329478974E+02  0.54628595892E+01 -0.23109456311E+01  0.59301959835E+02  0.50000028829E+02 0.  0.
        -12    1    1    2    0    0 -0.31329478974E+02 -0.54628595892E+01  0.23109456311E+01  0.31886040165E+02  0.00000000000E+00 0.  1.
         11    1    3    3    0    0  0.32099365728E+02 -0.38000670888E+01 -0.29892103646E+01  0.32461441263E+02  0.51100000000E-03 0. -1.
        -11    1    3    3    0    0 -0.48647924076E+01 -0.65567361468E+01  0.54508792019E+01  0.98167753567E+01  0.51100000000E-03 0.  1.
        -12    1    3    3    0    0  0.40949056535E+01  0.15819662825E+02 -0.47726144685E+01  0.17023743215E+02  0.00000000000E+00 0.  1.
</event>
<event>
 7    1  0.5987893E-013  0.5930192E+02  0.7816164E-02  0.1266605E+00
        -11   -1    0    0    0    0  0.00000000000E+00  0.00000000000E+00  0.45593999997E+02  0.45594000000E+02  0.51100000000E-03 0.  1.
         11   -1    0    0    0    0 -0.00000000000E+00 -0.00000000000E+00 -0.45593999997E+02  0.45594000000E+02  0.51100000000E-03 0. -1.
    9900012    2    1    2    0    0 -0.25589178393E-01  0.10599028165E+01 -0.31868450408E+02  0.59301918707E+02  0.49999953821E+02 0.  0.
        -12    1    1    2    0    0  0.25589178393E-01 -0.10599028165E+01  0.31868450408E+02  0.31886081293E+02  0.00000000000E+00 0.  1.
         11    1    3    3    0    0  0.14409091746E+02 -0.71406453744E+01  0.52245408729E+01  0.16908771951E+02  0.51100000000E-03 0. -1.
        -11    1    3    3    0    0 -0.46434466145E+01  0.34120024747E+01 -0.27938000932E+01  0.64038017280E+01  0.51100000000E-03 0.  1.
         12    1    3    3    0    0 -0.97912343099E+01  0.47885457162E+01 -0.34299191188E+02  0.35989345028E+02  0.00000000000E+00 0. -1.
</event>
<event>
 7    1  0.5987893E-013  0.5930197E+02  0.7816164E-02  0.1266605E+00
        -11   -1    0    0    0    0  0.00000000000E+00  0.00000000000E+00  0.45593999997E+02  0.45594000000E+02  0.51100000000E-03 0. -1.
         11   -1    0    0    0    0 -0.00000000000E+00 -0.00000000000E+00 -0.45593999997E+02  0.45594000000E+02  0.51100000000E-03 0.  1.
    9900012    2    1    2    0    0 -0.14438746464E+02  0.12553223336E+02  0.25507998050E+02  0.59301972023E+02  0.50000051057E+02 0.  0.
        -12    1    1    2    0    0  0.14438746464E+02 -0.12553223336E+02 -0.25507998050E+02  0.31886027977E+02  0.00000000000E+00 0.  1.
         11    1    3    3    0    0  0.34720049447E+01 -0.53724531295E+01  0.10562661645E+02  0.12348598797E+02  0.51100000000E-03 0. -1.
        -11    1    3    3    0    0 -0.29125926041E+02  0.15128478230E+02  0.12618722376E+02  0.35162801025E+02  0.51100000000E-03 0.  1.
        -12    1    3    3    0    0  0.11215174631E+02  0.27971982364E+01  0.23266140292E+01  0.11790572201E+02  0.00000000000E+00 0.  1.
</event>
<event>
 7    1  0.5987893E-013  0.5930194E+02  0.7816164E-02  0.1266605E+00
        -11   -1    0    0    0    0  0.00000000000E+00  0.00000000000E+00  0.45593999997E+02  0.45594000000E+02  0.51100000000E-03 0.  1.
         11   -1    0    0    0    0 -0.00000000000E+00 -0.00000000000E+00 -0.45593999997E+02  0.45594000000E+02  0.51100000000E-03 0. -1.
    9900012    2    1    2    0    0 -0.10646698386E+02 -0.27209459662E+02 -0.12767686599E+02  0.59301941875E+02  0.49999996074E+02 0.  0.
        -12    1    1    2    0    0  0.10646698386E+02  0.27209459662E+02  0.12767686599E+02  0.31886058125E+02  0.00000000000E+00 0.  1.
         11    1    3    3    0    0 -0.20341836947E+02 -0.19716681523E+02 -0.19642836327E+02  0.34472871651E+02  0.51100000000E-03 0. -1.
        -11    1    3    3    0    0  0.93925531881E+01 -0.13905259312E+02  0.74981464713E+01  0.18379295217E+02  0.51100000000E-03 0.  1.
         12    1    3    3    0    0  0.30258537296E+00  0.64124811724E+01 -0.62299674364E+00  0.64497750067E+01  0.00000000000E+00 0. -1.
</event>
<event>
 7    1  0.5987893E-013  0.5930195E+02  0.7816164E-02  0.1266605E+00
        -11   -1    0    0    0    0  0.00000000000E+00  0.00000000000E+00  0.45593999997E+02  0.45594000000E+02  0.51100000000E-03 0.  1.
         11   -1    0    0    0    0 -0.00000000000E+00 -0.00000000000E+00 -0.45593999997E+02  0.45594000000E+02  0.51100000000E-03 0. -1.
    9900012    2    1    2    0    0 -0.25751456973E+02 -0.92243210209E+01  0.16385807606E+02  0.59301947791E+02  0.50000006864E+02 0.  0.
        -12    1    1    2    0    0  0.25751456973E+02  0.92243210209E+01 -0.16385807606E+02  0.31886052209E+02  0.00000000000E+00 0.  1.
         11    1    3    3    0    0 -0.25728329017E+02  0.58995464505E+01 -0.10076731949E+01  0.26415279061E+02  0.51100000000E-03 0.  1.
        -11    1    3    3    0    0  0.90663765433E+01 -0.71314522703E+01 -0.19416076560E+00  0.11536658692E+02  0.51100000000E-03 0. -1.
        -12    1    3    3    0    0 -0.90895044998E+01 -0.79924152010E+01  0.17587641566E+02  0.21350010039E+02  0.00000000000E+00 0.  1.
</event>
<event>
 7    1  0.5987893E-013  0.5930194E+02  0.7816164E-02  0.1266605E+00
        -11   -1    0    0    0    0  0.00000000000E+00  0.00000000000E+00  0.45593999997E+02  0.45594000000E+02  0.51100000000E-03 0.  1.
         11   -1    0    0    0    0 -0.00000000000E+00 -0.00000000000E+00 -0.45593999997E+02  0.45594000000E+02  0.51100000000E-03 0. -1.
    9900012    2    1    2    0    0 -0.14972814779E+02 -0.27699527101E+02 -0.50271021762E+01  0.59301941286E+02  0.49999994999E+02 0.  0.
        -12    1    1    2    0    0  0.14972814779E+02  0.27699527101E+02  0.50271021762E+01  0.31886058714E+02  0.00000000000E+00 0.  1.
         11    1    3    3    0    0 -0.25560071187E+01  0.68633518510E+01  0.67845679430E+00  0.73552073325E+01  0.51100000000E-03 0. -1.
        -11    1    3    3    0    0 -0.23523934337E+02 -0.22089584753E+02 -0.11516292745E+02  0.34262957259E+02  0.51100000000E-03 0.  1.
        -12    1    3    3    0    0  0.11107126677E+02 -0.12473294199E+02  0.58107337745E+01  0.17683776694E+02  0.00000000000E+00 0.  1.
</event>
<event>
 7    1  0.5987893E-013  0.5930196E+02  0.7816164E-02  0.1266605E+00
        -11   -1    0    0    0    0  0.00000000000E+00  0.00000000000E+00  0.45593999997E+02  0.45594000000E+02  0.51100000000E-03 0.  1.
         11   -1    0    0    0    0 -0.00000000000E+00 -0.00000000000E+00 -0.45593999997E+02  0.45594000000E+02  0.51100000000E-03 0. -1.
    9900012    2    1    2    0    0  0.28952162150E+02  0.57671859010E+01 -0.12051187860E+02  0.59301964574E+02  0.50000037471E+02 0.  0.
        -12    1    1    2    0    0 -0.28952162150E+02 -0.57671859010E+01  0.12051187860E+02  0.31886035426E+02  0.00000000000E+00 0.  1.
         11    1    3    3    0    0  0.29940250462E+02  0.92729016510E+01 -0.11970971488E+02  0.33551594022E+02  0.51100000000E-03 0. -1.
        -11    1    3    3    0    0 -0.65010723516E+01  0.47460222780E+01 -0.92337898073E+01  0.12249552794E+02  0.51100000000E-03 0.  1.
         12    1    3    3    0    0  0.55129840396E+01 -0.82517380280E+01  0.91535734351E+01  0.13500817758E+02  0.00000000000E+00 0. -1.
</event>
<event>
 7    1  0.5987893E-013  0.5930200E+02  0.7816164E-02  0.1266605E+00
        -11   -1    0    0    0    0  0.00000000000E+00  0.00000000000E+00  0.45593999997E+02  0.45594000000E+02  0.51100000000E-03 0.  1.
         11   -1    0    0    0    0 -0.00000000000E+00 -0.00000000000E+00 -0.45593999997E+02  0.45594000000E+02  0.51100000000E-03 0. -1.
    9900012    2    1    2    0    0 -0.15015870686E+02 -0.24361134143E+02  0.14063273561E+02  0.59302001624E+02  0.50000105042E+02 0.  0.
        -12    1    1    2    0    0  0.15015870686E+02  0.24361134143E+02 -0.14063273561E+02  0.31885998376E+02  0.00000000000E+00 0.  1.
         11    1    3    3    0    0 -0.45475604511E+01 -0.35806418702E+02  0.96604189363E+01  0.37364470029E+02  0.51100000000E-03 0. -1.
        -11    1    3    3    0    0 -0.82747314051E+01  0.13960398134E+02  0.70344448663E+01  0.17687490233E+02  0.51100000000E-03 0.  1.
        -12    1    3    3    0    0 -0.21935788295E+01 -0.25151135756E+01 -0.26315902415E+01  0.42500413620E+01  0.00000000000E+00 0.  1.
</event>
<event>
 7    1  0.5987893E-013  0.5930194E+02  0.7816164E-02  0.1266605E+00
        -11   -1    0    0    0    0  0.00000000000E+00  0.00000000000E+00  0.45593999997E+02  0.45594000000E+02  0.51100000000E-03 0. -1.
         11   -1    0    0    0    0 -0.00000000000E+00 -0.00000000000E+00 -0.45593999997E+02  0.45594000000E+02  0.51100000000E-03 0.  1.
    9900012    2    1    2    0    0  0.10231032015E+02  0.49457224804E+01  0.29792389538E+02  0.59301942524E+02  0.49999997258E+02 0.  0.
        -12    1    1    2    0    0 -0.10231032015E+02 -0.49457224804E+01 -0.29792389538E+02  0.31886057476E+02  0.00000000000E+00 0.  1.
         11    1    3    3    0    0 -0.13502232877E+02 -0.73274926496E+01  0.90426128016E+01  0.17826140573E+02  0.51100000000E-03 0. -1.
        -11    1    3    3    0    0  0.19904497255E+02  0.18900316737E+02  0.19619359650E+02  0.33739150213E+02  0.51100000000E-03 0.  1.
        -12    1    3    3    0    0  0.38287676366E+01 -0.66271016073E+01  0.11304170870E+01  0.77366517383E+01  0.00000000000E+00 0.  1.
</event>
<event>
 7    1  0.5987893E-013  0.5930194E+02  0.7816164E-02  0.1266605E+00
        -11   -1    0    0    0    0  0.00000000000E+00  0.00000000000E+00  0.45593999997E+02  0.45594000000E+02  0.51100000000E-03 0.  1.
         11   -1    0    0    0    0 -0.00000000000E+00 -0.00000000000E+00 -0.45593999997E+02  0.45594000000E+02  0.51100000000E-03 0. -1.
    9900012    2    1    2    0    0  0.79495486536E+01 -0.17774837582E+02 -0.25250363347E+02  0.59301936837E+02  0.49999986886E+02 0.  0.
        -12    1    1    2    0    0 -0.79495486536E+01  0.17774837582E+02  0.25250363347E+02  0.31886063163E+02  0.00000000000E+00 0.  1.
         11    1    3    3    0    0  0.39547847576E+01  0.83582523104E+01  0.58240561889E+01  0.10927961151E+02  0.51100000000E-03 0. -1.
        -11    1    3    3    0    0 -0.52834571201E+01 -0.26412502596E+02 -0.18223552471E+02  0.32521271154E+02  0.51100000000E-03 0.  1.
         12    1    3    3    0    0  0.92782210161E+01  0.27941270310E+00 -0.12850867064E+02  0.15852704532E+02  0.00000000000E+00 0. -1.
</event>
<event>
 7    1  0.5987893E-013  0.5930195E+02  0.7816164E-02  0.1266605E+00
        -11   -1    0    0    0    0  0.00000000000E+00  0.00000000000E+00  0.45593999997E+02  0.45594000000E+02  0.51100000000E-03 0. -1.
         11   -1    0    0    0    0 -0.00000000000E+00 -0.00000000000E+00 -0.45593999997E+02  0.45594000000E+02  0.51100000000E-03 0.  1.
    9900012    2    1    2    0    0  0.23484531323E+02  0.19835784397E+02 -0.84698723653E+01  0.59301948316E+02  0.50000007821E+02 0.  0.
        -12    1    1    2    0    0 -0.23484531323E+02 -0.19835784397E+02  0.84698723653E+01  0.31886051684E+02  0.00000000000E+00 0.  1.
         11    1    3    3    0    0  0.34129955681E+01  0.27628054445E+02  0.34978232070E+01  0.28056954550E+02  0.51100000000E-03 0. -1.
        -11    1    3    3    0    0 -0.36791892989E+01 -0.17732676848E+01 -0.26689286903E+00  0.40929383386E+01  0.51100000000E-03 0.  1.
         12    1    3    3    0    0  0.23750725054E+02 -0.60190023633E+01 -0.11700802703E+02  0.27152055427E+02  0.00000000000E+00 0. -1.
</event>
<event>
 7    1  0.5987893E-013  0.5930193E+02  0.7816164E-02  0.1266605E+00
        -11   -1    0    0    0    0  0.00000000000E+00  0.00000000000E+00  0.45593999997E+02  0.45594000000E+02  0.51100000000E-03 0.  1.
         11   -1    0    0    0    0 -0.00000000000E+00 -0.00000000000E+00 -0.45593999997E+02  0.45594000000E+02  0.51100000000E-03 0. -1.
    9900012    2    1    2    0    0  0.25452088714E+02  0.87475369659E+01 -0.17099506837E+02  0.59301931617E+02  0.49999977365E+02 0.  0.
        -12    1    1    2    0    0 -0.25452088714E+02 -0.87475369659E+01  0.17099506837E+02  0.31886068383E+02  0.00000000000E+00 0.  1.
         11    1    3    3    0    0  0.82464742716E+01  0.64282571101E+01 -0.30304993502E+02  0.32058063866E+02  0.51100000000E-03 0. -1.
        -11    1    3    3    0    0  0.94236367782E+01  0.81549899834E+01  0.12241981909E+02  0.17469256226E+02  0.51100000000E-03 0.  1.
        -12    1    3    3    0    0  0.77819776643E+01 -0.58357101276E+01  0.96350475665E+00  0.97746115256E+01  0.00000000000E+00 0.  1.
</event>
<event>
 7    1  0.5987893E-013  0.5930192E+02  0.7816164E-02  0.1266605E+00
        -11   -1    0    0    0    0  0.00000000000E+00  0.00000000000E+00  0.45593999997E+02  0.45594000000E+02  0.51100000000E-03 0.  1.
         11   -1    0    0    0    0 -0.00000000000E+00 -0.00000000000E+00 -0.45593999997E+02  0.45594000000E+02  0.51100000000E-03 0. -1.
    9900012    2    1    2    0    0  0.84707296749E+01  0.24096126744E+01 -0.30645756508E+02  0.59301923314E+02  0.49999962223E+02 0.  0.
        -12    1    1    2    0    0 -0.84707296749E+01 -0.24096126744E+01  0.30645756508E+02  0.31886076686E+02  0.00000000000E+00 0.  1.
         11    1    3    3    0    0  0.16725612509E+02  0.51840194963E+01 -0.33827472404E+02  0.38090918359E+02  0.51100000000E-03 0. -1.
        -11    1    3    3    0    0 -0.10758365939E+02 -0.65264631754E+01  0.77603473711E+01  0.14783779992E+02  0.51100000000E-03 0.  1.
        -12    1    3    3    0    0  0.25034831053E+01  0.37520563534E+01 -0.45786314757E+01  0.64272249632E+01  0.00000000000E+00 0.  1.
</event>
<event>
 7    1  0.5987893E-013  0.5930185E+02  0.7816164E-02  0.1266605E+00
        -11   -1    0    0    0    0  0.00000000000E+00  0.00000000000E+00  0.45593999997E+02  0.45594000000E+02  0.51100000000E-03 0. -1.
         11   -1    0    0    0    0 -0.00000000000E+00 -0.00000000000E+00 -0.45593999997E+02  0.45594000000E+02  0.51100000000E-03 0.  1.
    9900012    2    1    2    0    0 -0.18353436962E+02 -0.15717594245E+02  0.20804695409E+02  0.59301846763E+02  0.49999822613E+02 0.  0.
        -12    1    1    2    0    0  0.18353436962E+02  0.15717594245E+02 -0.20804695409E+02  0.31886153237E+02  0.00000000000E+00 0.  1.
         11    1    3    3    0    0  0.12543551208E+01 -0.18755613106E+01  0.52111837985E+01  0.56786947304E+01  0.51100000000E-03 0. -1.
        -11    1    3    3    0    0 -0.33254983618E+02 -0.67441982433E+01  0.36095714660E+01  0.34123410612E+02  0.51100000000E-03 0.  1.
        -12    1    3    3    0    0  0.13647191535E+02 -0.70978346907E+01  0.11983940145E+02  0.19499741421E+02  0.00000000000E+00 0.  1.
</event>
<event>
 7    1  0.5987893E-013  0.5930197E+02  0.7816164E-02  0.1266605E+00
        -11   -1    0    0    0    0  0.00000000000E+00  0.00000000000E+00  0.45593999997E+02  0.45594000000E+02  0.51100000000E-03 0.  1.
         11   -1    0    0    0    0 -0.00000000000E+00 -0.00000000000E+00 -0.45593999997E+02  0.45594000000E+02  0.51100000000E-03 0. -1.
    9900012    2    1    2    0    0  0.23458381661E+02 -0.35360881504E+01 -0.21305389513E+02  0.59301965253E+02  0.50000038710E+02 0.  0.
        -12    1    1    2    0    0 -0.23458381661E+02  0.35360881504E+01  0.21305389513E+02  0.31886034747E+02  0.00000000000E+00 0.  1.
         11    1    3    3    0    0 -0.94178537487E+01 -0.41041176133E+01  0.47978879996E-01  0.10273366189E+02  0.51100000000E-03 0. -1.
        -11    1    3    3    0    0  0.20525984015E+02 -0.13871923645E+02 -0.15156822460E+02  0.29042650581E+02  0.51100000000E-03 0.  1.
        -12    1    3    3    0    0  0.12350251395E+02  0.14439953108E+02 -0.61965459332E+01  0.19985948483E+02  0.00000000000E+00 0.  1.
</event>
<event>
 7    1  0.5987893E-013  0.5930172E+02  0.7816164E-02  0.1266606E+00
        -11   -1    0    0    0    0  0.00000000000E+00  0.00000000000E+00  0.45593999997E+02  0.45594000000E+02  0.51100000000E-03 0.  1.
         11   -1    0    0    0    0 -0.00000000000E+00 -0.00000000000E+00 -0.45593999997E+02  0.45594000000E+02  0.51100000000E-03 0. -1.
    9900012    2    1    2    0    0  0.21758493344E+02  0.12163631627E+02 -0.19883380499E+02  0.59301721023E+02  0.49999593291E+02 0.  0.
        -12    1    1    2    0    0 -0.21758493344E+02 -0.12163631627E+02  0.19883380499E+02  0.31886278977E+02  0.00000000000E+00 0.  1.
         11    1    3    3    0    0  0.25089580385E+02  0.83398264670E+01 -0.69232867588E+01  0.27330782082E+02  0.51100000000E-03 0. -1.
        -11    1    3    3    0    0 -0.42857546068E+01 -0.64262406057E+01 -0.18665917911E+02  0.20201008702E+02  0.51100000000E-03 0.  1.
        -12    1    3    3    0    0  0.95466756512E+00  0.10250045766E+02  0.57058241700E+01  0.11769930238E+02  0.00000000000E+00 0.  1.
</event>
<event>
 7    1  0.5987893E-013  0.5930196E+02  0.7816164E-02  0.1266605E+00
        -11   -1    0    0    0    0  0.00000000000E+00  0.00000000000E+00  0.45593999997E+02  0.45594000000E+02  0.51100000000E-03 0.  1.
         11   -1    0    0    0    0 -0.00000000000E+00 -0.00000000000E+00 -0.45593999997E+02  0.45594000000E+02  0.51100000000E-03 0. -1.
    9900012    2    1    2    0    0  0.17234764495E+02 -0.16207702416E+01 -0.26777895410E+02  0.59301957819E+02  0.50000025152E+02 0.  0.
        -12    1    1    2    0    0 -0.17234764495E+02  0.16207702416E+01  0.26777895410E+02  0.31886042181E+02  0.00000000000E+00 0.  1.
         11    1    3    3    0    0 -0.54897854228E+01  0.30321112825E+01 -0.16395197611E+02  0.17553744552E+02  0.51100000000E-03 0. -1.
        -11    1    3    3    0    0  0.31012812853E+02 -0.34484071626E+01 -0.11588926284E+02  0.33286473014E+02  0.51100000000E-03 0.  1.
        -12    1    3    3    0    0 -0.82882629350E+01 -0.12044743614E+01  0.12062284851E+01  0.84617402540E+01  0.00000000000E+00 0.  1.
</event>
<event>
 7    1  0.5987893E-013  0.5930194E+02  0.7816164E-02  0.1266605E+00
        -11   -1    0    0    0    0  0.00000000000E+00  0.00000000000E+00  0.45593999997E+02  0.45594000000E+02  0.51100000000E-03 0.  1.
         11   -1    0    0    0    0 -0.00000000000E+00 -0.00000000000E+00 -0.45593999997E+02  0.45594000000E+02  0.51100000000E-03 0. -1.
    9900012    2    1    2    0    0 -0.12624783859E+02 -0.24618865680E+02 -0.15850772712E+02  0.59301941754E+02  0.49999995854E+02 0.  0.
        -12    1    1    2    0    0  0.12624783859E+02  0.24618865680E+02  0.15850772712E+02  0.31886058246E+02  0.00000000000E+00 0.  1.
         11    1    3    3    0    0 -0.27374659358E+02 -0.48147170086E+01 -0.18285315614E+02  0.33270200513E+02  0.51100000000E-03 0. -1.
        -11    1    3    3    0    0  0.10242106442E+02 -0.89139038054E+01  0.39687054145E+01  0.14145990540E+02  0.51100000000E-03 0.  1.
         12    1    3    3    0    0  0.45077690574E+01 -0.10890244866E+02 -0.15341625132E+01  0.11885750702E+02  0.00000000000E+00 0. -1.
</event>
<event>
 7    1  0.5987893E-013  0.5930193E+02  0.7816164E-02  0.1266605E+00
        -11   -1    0    0    0    0  0.00000000000E+00  0.00000000000E+00  0.45593999997E+02  0.45594000000E+02  0.51100000000E-03 0.  1.
         11   -1    0    0    0    0 -0.00000000000E+00 -0.00000000000E+00 -0.45593999997E+02  0.45594000000E+02  0.51100000000E-03 0. -1.
    9900012    2    1    2    0    0  0.54909286970E+01 -0.31223603152E+02  0.34143371397E+01  0.59301931101E+02  0.49999976425E+02 0.  0.
        -12    1    1    2    0    0 -0.54909286970E+01  0.31223603152E+02 -0.34143371397E+01  0.31886068899E+02  0.00000000000E+00 0.  1.
         11    1    3    3    0    0  0.21451499995E+02 -0.31852840951E+02 -0.22433814861E+01  0.38468208815E+02  0.51100000000E-03 0. -1.
        -11    1    3    3    0    0 -0.47202134535E+01  0.39497682206E+01  0.66623656069E+01  0.90701819047E+01  0.51100000000E-03 0.  1.
         12    1    3    3    0    0 -0.11240357844E+02 -0.33205304212E+01 -0.10046469811E+01  0.11763540381E+02  0.00000000000E+00 0. -1.
</event>
<event>
 7    1  0.5987893E-013  0.5930195E+02  0.7816164E-02  0.1266605E+00
        -11   -1    0    0    0    0  0.00000000000E+00  0.00000000000E+00  0.45593999997E+02  0.45594000000E+02  0.51100000000E-03 0.  1.
         11   -1    0    0    0    0 -0.00000000000E+00 -0.00000000000E+00 -0.45593999997E+02  0.45594000000E+02  0.51100000000E-03 0. -1.
    9900012    2    1    2    0    0 -0.98473989487E+01  0.11177112034E+02 -0.28192575372E+02  0.59301946535E+02  0.50000004573E+02 0.  0.
        -12    1    1    2    0    0  0.98473989487E+01 -0.11177112034E+02  0.28192575372E+02  0.31886053465E+02  0.00000000000E+00 0.  1.
         11    1    3    3    0    0 -0.56832251657E+00 -0.70671434104E+01 -0.34630980433E+01  0.78905357730E+01  0.51100000000E-03 0. -1.
        -11    1    3    3    0    0 -0.14164947619E+02  0.20701444383E+02  0.10033671453E+01  0.25103830116E+02  0.51100000000E-03 0.  1.
        -12    1    3    3    0    0  0.48858711872E+01 -0.24571889384E+01 -0.25732844474E+02  0.26307580646E+02  0.00000000000E+00 0.  1.
</event>
<event>
 7    1  0.6190577E-013  0.5930194E+02  0.7816164E-02  0.1266605E+00
        -11   -1    0    0    0    0  0.00000000000E+00  0.00000000000E+00  0.45593999997E+02  0.45594000000E+02  0.51100000000E-03 0.  1.
         11   -1    0    0    0    0 -0.00000000000E+00 -0.00000000000E+00 -0.45593999997E+02  0.45594000000E+02  0.51100000000E-03 0. -1.
    9900012    2    1    2    0    0  0.11730328146E+02  0.28149644658E+02 -0.93122327182E+01  0.59301940805E+02  0.49999994122E+02 0.  0.
        -12    1    1    2    0    0 -0.11730328146E+02 -0.28149644658E+02  0.93122327182E+01  0.31886059195E+02  0.00000000000E+00 0.  1.
         11    1    3    3    0    0  0.20750857015E+02  0.49176891806E+01 -0.11057810895E+02  0.24022008987E+02  0.51100000000E-03 0. -1.
        -11    1    3    3    0    0 -0.53157766611E+01  0.26525599789E+02 -0.43741849788E+01  0.27404350388E+02  0.51100000000E-03 0.  1.
        -12    1    3    3    0    0 -0.37047522075E+01 -0.32936443119E+01  0.61197631555E+01  0.78755814294E+01  0.00000000000E+00 0.  1.
</event>
<event>
 7    1  0.5987893E-013  0.5930199E+02  0.7816164E-02  0.1266605E+00
        -11   -1    0    0    0    0  0.00000000000E+00  0.00000000000E+00  0.45593999997E+02  0.45594000000E+02  0.51100000000E-03 0.  1.
         11   -1    0    0    0    0 -0.00000000000E+00 -0.00000000000E+00 -0.45593999997E+02  0.45594000000E+02  0.51100000000E-03 0. -1.
    9900012    2    1    2    0    0 -0.22645119608E+02 -0.21849961101E+02  0.51473806771E+01  0.59301987863E+02  0.50000079945E+02 0.  0.
        -12    1    1    2    0    0  0.22645119608E+02  0.21849961101E+02 -0.51473806771E+01  0.31886012137E+02  0.00000000000E+00 0.  1.
         11    1    3    3    0    0 -0.93637727912E+01 -0.75252476284E+01 -0.13526433444E+02  0.18090715705E+02  0.51100000000E-03 0. -1.
        -11    1    3    3    0    0  0.36479289425E+01  0.72232904149E+01  0.91156937723E+01  0.12189306100E+02  0.51100000000E-03 0.  1.
        -12    1    3    3    0    0 -0.16929275759E+02 -0.21548003887E+02  0.95581203491E+01  0.29021966058E+02  0.00000000000E+00 0.  1.
</event>
<event>
 7    1  0.5987893E-013  0.5930194E+02  0.7816164E-02  0.1266605E+00
        -11   -1    0    0    0    0  0.00000000000E+00  0.00000000000E+00  0.45593999997E+02  0.45594000000E+02  0.51100000000E-03 0.  1.
         11   -1    0    0    0    0 -0.00000000000E+00 -0.00000000000E+00 -0.45593999997E+02  0.45594000000E+02  0.51100000000E-03 0. -1.
    9900012    2    1    2    0    0 -0.31179059037E+02 -0.30018076686E+01 -0.59645839947E+01  0.59301939817E+02  0.49999992321E+02 0.  0.
        -12    1    1    2    0    0  0.31179059037E+02  0.30018076686E+01  0.59645839947E+01  0.31886060183E+02  0.00000000000E+00 0.  1.
         11    1    3    3    0    0 -0.27861695144E+02  0.14169360887E+02  0.11177757267E+02  0.33196191077E+02  0.51100000000E-03 0. -1.
        -11    1    3    3    0    0  0.28092778464E+01 -0.25873731692E+01 -0.26155016465E+01  0.46289730026E+01  0.51100000000E-03 0.  1.
         12    1    3    3    0    0 -0.61266417399E+01 -0.14583795386E+02 -0.14526839615E+02  0.21476775738E+02  0.00000000000E+00 0. -1.
</event>
<event>
 7    1  0.5987893E-013  0.5930182E+02  0.7816164E-02  0.1266605E+00
        -11   -1    0    0    0    0  0.00000000000E+00  0.00000000000E+00  0.45593999997E+02  0.45594000000E+02  0.51100000000E-03 0.  1.
         11   -1    0    0    0    0 -0.00000000000E+00 -0.00000000000E+00 -0.45593999997E+02  0.45594000000E+02  0.51100000000E-03 0. -1.
    9900012    2    1    2    0    0 -0.18346219240E+02 -0.17085157575E+02 -0.19703858756E+02  0.59301820868E+02  0.49999775385E+02 0.  0.
        -12    1    1    2    0    0  0.18346219240E+02  0.17085157575E+02  0.19703858756E+02  0.31886179132E+02  0.00000000000E+00 0.  1.
         11    1    3    3    0    0  0.26235656215E+00 -0.25839766362E+02 -0.12346600990E+02  0.28639150003E+02  0.51100000000E-03 0. -1.
        -11    1    3    3    0    0 -0.39528230150E+01  0.82321682966E+01  0.59176192704E+01  0.10881710469E+02  0.51100000000E-03 0.  1.
         12    1    3    3    0    0 -0.14655752787E+02  0.52244049006E+00 -0.13274877037E+02  0.19780960396E+02  0.00000000000E+00 0. -1.
</event>
<event>
 7    1  0.6021898E-013  0.5930194E+02  0.7816164E-02  0.1266605E+00
        -11   -1    0    0    0    0  0.00000000000E+00  0.00000000000E+00  0.45593999997E+02  0.45594000000E+02  0.51100000000E-03 0. -1.
         11   -1    0    0    0    0 -0.00000000000E+00 -0.00000000000E+00 -0.45593999997E+02  0.45594000000E+02  0.51100000000E-03 0.  1.
    9900012    2    1    2    0    0  0.72732123133E+01 -0.15329836840E+02  0.26996622117E+02  0.59301935323E+02  0.49999984124E+02 0.  0.
        -12    1    1    2    0    0 -0.72732123133E+01  0.15329836840E+02 -0.26996622117E+02  0.31886064677E+02  0.00000000000E+00 0.  1.
         11    1    3    3    0    0  0.16154491011E+02 -0.33737099686E+01  0.27961717040E+02  0.32468555848E+02  0.51100000000E-03 0. -1.
        -11    1    3    3    0    0 -0.14685322735E+02 -0.10670115677E+02  0.45611935082E+01  0.18716691986E+02  0.51100000000E-03 0.  1.
        -12    1    3    3    0    0  0.58040440373E+01 -0.12860111936E+01 -0.55262884309E+01  0.81166874893E+01  0.00000000000E+00 0.  1.
</event>
<event>
 7    1  0.5987893E-013  0.5930193E+02  0.7816164E-02  0.1266605E+00
        -11   -1    0    0    0    0  0.00000000000E+00  0.00000000000E+00  0.45593999997E+02  0.45594000000E+02  0.51100000000E-03 0. -1.
         11   -1    0    0    0    0 -0.00000000000E+00 -0.00000000000E+00 -0.45593999997E+02  0.45594000000E+02  0.51100000000E-03 0.  1.
    9900012    2    1    2    0    0 -0.26575091085E+02  0.79722708979E+01  0.15713968161E+02  0.59301931494E+02  0.49999977141E+02 0.  0.
        -12    1    1    2    0    0  0.26575091085E+02 -0.79722708979E+01 -0.15713968161E+02  0.31886068506E+02  0.00000000000E+00 0.  1.
         11    1    3    3    0    0 -0.21782020590E+02 -0.39998824082E+01  0.17628517193E+02  0.28305831536E+02  0.51100000000E-03 0. -1.
        -11    1    3    3    0    0 -0.12249420207E+02  0.26593786309E+01 -0.10456311750E+02  0.16323450793E+02  0.51100000000E-03 0.  1.
        -12    1    3    3    0    0  0.74563497123E+01  0.93127746752E+01  0.85417627177E+01  0.14672649165E+02  0.00000000000E+00 0.  1.
</event>
<event>
 7    1  0.5987893E-013  0.5930194E+02  0.7816164E-02  0.1266605E+00
        -11   -1    0    0    0    0  0.00000000000E+00  0.00000000000E+00  0.45593999997E+02  0.45594000000E+02  0.51100000000E-03 0.  1.
         11   -1    0    0    0    0 -0.00000000000E+00 -0.00000000000E+00 -0.45593999997E+02  0.45594000000E+02  0.51100000000E-03 0. -1.
    9900012    2    1    2    0    0  0.14588631926E+02  0.57626621026E+01 -0.27761207029E+02  0.59301936090E+02  0.49999985523E+02 0.  0.
        -12    1    1    2    0    0 -0.14588631926E+02 -0.57626621026E+01  0.27761207029E+02  0.31886063910E+02  0.00000000000E+00 0.  1.
         11    1    3    3    0    0 -0.70991602055E+01  0.16058671275E+02 -0.19778698609E+02  0.26447607031E+02  0.51100000000E-03 0. -1.
        -11    1    3    3    0    0  0.42508756915E+01 -0.11393631250E+02  0.25893230271E+01  0.12433397412E+02  0.51100000000E-03 0.  1.
         12    1    3    3    0    0  0.17436916440E+02  0.10976220783E+01 -0.10571831447E+02  0.20420931646E+02  0.00000000000E+00 0. -1.
</event>
<event>
 7    1  0.5987893E-013  0.5930194E+02  0.7816164E-02  0.1266605E+00
        -11   -1    0    0    0    0  0.00000000000E+00  0.00000000000E+00  0.45593999997E+02  0.45594000000E+02  0.51100000000E-03 0.  1.
         11   -1    0    0    0    0 -0.00000000000E+00 -0.00000000000E+00 -0.45593999997E+02  0.45594000000E+02  0.51100000000E-03 0. -1.
    9900012    2    1    2    0    0  0.26682256977E+02  0.65878606901E+01 -0.16167196043E+02  0.59301937626E+02  0.49999988324E+02 0.  0.
        -12    1    1    2    0    0 -0.26682256977E+02 -0.65878606901E+01  0.16167196043E+02  0.31886062374E+02  0.00000000000E+00 0.  1.
         11    1    3    3    0    0  0.17990305505E+02  0.12756701113E+02 -0.18885957126E+02  0.29035562545E+02  0.51100000000E-03 0. -1.
        -11    1    3    3    0    0  0.30542542452E+01  0.15573333349E+00  0.15020840982E+02  0.15329004728E+02  0.51100000000E-03 0.  1.
        -12    1    3    3    0    0  0.56376972266E+01 -0.63245737568E+01 -0.12302079899E+02  0.14937370353E+02  0.00000000000E+00 0.  1.
</event>
<event>
 7    1  0.5987893E-013  0.5930199E+02  0.7816164E-02  0.1266605E+00
        -11   -1    0    0    0    0  0.00000000000E+00  0.00000000000E+00  0.45593999997E+02  0.45594000000E+02  0.51100000000E-03 0. -1.
         11   -1    0    0    0    0 -0.00000000000E+00 -0.00000000000E+00 -0.45593999997E+02  0.45594000000E+02  0.51100000000E-03 0.  1.
    9900012    2    1    2    0    0 -0.26680434247E+01 -0.18184950229E+02 -0.26055838803E+02  0.59301990431E+02  0.50000084628E+02 0.  0.
        -12    1    1    2    0    0  0.26680434247E+01  0.18184950229E+02  0.26055838803E+02  0.31886009569E+02  0.00000000000E+00 0.  1.
         11    1    3    3    0    0 -0.10377424713E+02 -0.18438244054E+02 -0.27887641444E+02  0.35005432907E+02  0.51100000000E-03 0. -1.
        -11    1    3    3    0    0 -0.72308129655E+01  0.82905586897E+00  0.52319137611E+01  0.89635323194E+01  0.51100000000E-03 0.  1.
         12    1    3    3    0    0  0.14940194254E+02 -0.57576204436E+00 -0.34001111197E+01  0.15333025204E+02  0.00000000000E+00 0. -1.
</event>
<event>
 7    1  0.5987893E-013  0.5930195E+02  0.7816164E-02  0.1266605E+00
        -11   -1    0    0    0    0  0.00000000000E+00  0.00000000000E+00  0.45593999997E+02  0.45594000000E+02  0.51100000000E-03 0.  1.
         11   -1    0    0    0    0 -0.00000000000E+00 -0.00000000000E+00 -0.45593999997E+02  0.45594000000E+02  0.51100000000E-03 0. -1.
    9900012    2    1    2    0    0 -0.23363646923E+02  0.85065554061E+01 -0.19962426693E+02  0.59301953493E+02  0.50000017262E+02 0.  0.
        -12    1    1    2    0    0  0.23363646923E+02 -0.85065554061E+01  0.19962426693E+02  0.31886046507E+02  0.00000000000E+00 0.  1.
         11    1    3    3    0    0 -0.17598198035E+02 -0.23420372849E+01 -0.13176771327E+02  0.22109025658E+02  0.51100000000E-03 0. -1.
        -11    1    3    3    0    0  0.82114967019E+01 -0.87901146491E+01  0.41401725333E+00  0.12036037727E+02  0.51100000000E-03 0.  1.
        -12    1    3    3    0    0 -0.13976945590E+02  0.19638707340E+02 -0.71996726197E+01  0.25156890107E+02  0.00000000000E+00 0.  1.
</event>
<event>
 7    1  0.5987893E-013  0.5930195E+02  0.7816164E-02  0.1266605E+00
        -11   -1    0    0    0    0  0.00000000000E+00  0.00000000000E+00  0.45593999997E+02  0.45594000000E+02  0.51100000000E-03 0. -1.
         11   -1    0    0    0    0 -0.00000000000E+00 -0.00000000000E+00 -0.45593999997E+02  0.45594000000E+02  0.51100000000E-03 0.  1.
    9900012    2    1    2    0    0  0.22151667352E+01  0.57192495660E+01  0.31290626486E+02  0.59301951559E+02  0.50000013735E+02 0.  0.
        -12    1    1    2    0    0 -0.22151667352E+01 -0.57192495660E+01 -0.31290626486E+02  0.31886048441E+02  0.00000000000E+00 0.  1.
         11    1    3    3    0    0 -0.66186288604E+01  0.15549337840E+02  0.36571334084E+02  0.40287102554E+02  0.51100000000E-03 0. -1.
        -11    1    3    3    0    0 -0.19146162525E+01 -0.66821537216E+01 -0.99000701077E+00  0.70211856475E+01  0.51100000000E-03 0.  1.
         12    1    3    3    0    0  0.10748411848E+02 -0.31479345528E+01 -0.42907005869E+01  0.11993663357E+02  0.00000000000E+00 0. -1.
</event>
<event>
 7    1  0.5987893E-013  0.5930195E+02  0.7816164E-02  0.1266605E+00
        -11   -1    0    0    0    0  0.00000000000E+00  0.00000000000E+00  0.45593999997E+02  0.45594000000E+02  0.51100000000E-03 0. -1.
         11   -1    0    0    0    0 -0.00000000000E+00 -0.00000000000E+00 -0.45593999997E+02  0.45594000000E+02  0.51100000000E-03 0.  1.
    9900012    2    1    2    0    0  0.34506402300E+01  0.24646574766E+02  0.19933880363E+02  0.59301950511E+02  0.50000011824E+02 0.  0.
        -12    1    1    2    0    0 -0.34506402300E+01 -0.24646574766E+02 -0.19933880363E+02  0.31886049489E+02  0.00000000000E+00 0.  1.
         11    1    3    3    0    0  0.10558750033E+02  0.73216396216E+01 -0.56351633852E+01  0.14030277105E+02  0.51100000000E-03 0. -1.
        -11    1    3    3    0    0 -0.11372538203E+02 -0.15925696479E+01 -0.19077165078E+01  0.11640888531E+02  0.51100000000E-03 0.  1.
         12    1    3    3    0    0  0.42644284001E+01  0.18917504792E+02  0.27476760256E+02  0.33630784875E+02  0.00000000000E+00 0. -1.
</event>
<event>
 7    1  0.5987893E-013  0.5930196E+02  0.7816164E-02  0.1266605E+00
        -11   -1    0    0    0    0  0.00000000000E+00  0.00000000000E+00  0.45593999997E+02  0.45594000000E+02  0.51100000000E-03 0. -1.
         11   -1    0    0    0    0 -0.00000000000E+00 -0.00000000000E+00 -0.45593999997E+02  0.45594000000E+02  0.51100000000E-03 0.  1.
    9900012    2    1    2    0    0 -0.30455991025E+02 -0.89981960224E+01 -0.28609246901E+01  0.59301955857E+02  0.50000021574E+02 0.  0.
        -12    1    1    2    0    0  0.30455991025E+02  0.89981960224E+01  0.28609246901E+01  0.31886044143E+02  0.00000000000E+00 0.  1.
         11    1    3    3    0    0 -0.30533856696E+01  0.14631161921E+02  0.89838711386E+01  0.17438578042E+02  0.51100000000E-03 0. -1.
        -11    1    3    3    0    0 -0.29635230350E+02 -0.23657442286E+02 -0.11193584181E+02  0.39537548994E+02  0.51100000000E-03 0.  1.
         12    1    3    3    0    0  0.22326249946E+01  0.28084341689E-01 -0.65121164799E+00  0.23258288216E+01  0.00000000000E+00 0. -1.
</event>
<event>
 7    1  0.5987893E-013  0.5930195E+02  0.7816164E-02  0.1266605E+00
        -11   -1    0    0    0    0  0.00000000000E+00  0.00000000000E+00  0.45593999997E+02  0.45594000000E+02  0.51100000000E-03 0. -1.
         11   -1    0    0    0    0 -0.00000000000E+00 -0.00000000000E+00 -0.45593999997E+02  0.45594000000E+02  0.51100000000E-03 0.  1.
    9900012    2    1    2    0    0 -0.91236156544E+01  0.20040780097E+01  0.30487098823E+02  0.59301954683E+02  0.50000019434E+02 0.  0.
        -12    1    1    2    0    0  0.91236156544E+01 -0.20040780097E+01 -0.30487098823E+02  0.31886045317E+02  0.00000000000E+00 0.  1.
         11    1    3    3    0    0 -0.15985620126E+02  0.16864217837E+02  0.31512876971E+02  0.39153586161E+02  0.51100000000E-03 0. -1.
        -11    1    3    3    0    0  0.51892435717E+00 -0.12555315763E+01 -0.45340278923E+01  0.47331861592E+01  0.51100000000E-03 0.  1.
         12    1    3    3    0    0  0.63430801141E+01 -0.13604608251E+02  0.35082497447E+01  0.15415182363E+02  0.00000000000E+00 0. -1.
</event>
<event>
 7    1  0.5987893E-013  0.5930197E+02  0.7816164E-02  0.1266605E+00
        -11   -1    0    0    0    0  0.00000000000E+00  0.00000000000E+00  0.45593999997E+02  0.45594000000E+02  0.51100000000E-03 0.  1.
         11   -1    0    0    0    0 -0.00000000000E+00 -0.00000000000E+00 -0.45593999997E+02  0.45594000000E+02  0.51100000000E-03 0. -1.
    9900012    2    1    2    0    0 -0.87863822320E+01  0.30619583945E+02 -0.13997682302E+01  0.59301971951E+02  0.50000050925E+02 0.  0.
        -12    1    1    2    0    0  0.87863822320E+01 -0.30619583945E+02  0.13997682302E+01  0.31886028049E+02  0.00000000000E+00 0.  1.
         11    1    3    3    0    0 -0.36274684005E+01  0.14621764038E+02 -0.34150064394E+01  0.15447225635E+02  0.51100000000E-03 0. -1.
        -11    1    3    3    0    0  0.73879061357E+01  0.12522875218E+02  0.18064442992E+02  0.23188955597E+02  0.51100000000E-03 0.  1.
        -12    1    3    3    0    0 -0.12546819967E+02  0.34749446890E+01 -0.16049204783E+02  0.20665790719E+02  0.00000000000E+00 0.  1.
</event>
<event>
 7    1  0.5987893E-013  0.5930201E+02  0.7816164E-02  0.1266605E+00
        -11   -1    0    0    0    0  0.00000000000E+00  0.00000000000E+00  0.45593999997E+02  0.45594000000E+02  0.51100000000E-03 0. -1.
         11   -1    0    0    0    0 -0.00000000000E+00 -0.00000000000E+00 -0.45593999997E+02  0.45594000000E+02  0.51100000000E-03 0.  1.
    9900012    2    1    2    0    0 -0.24714368261E+02 -0.14326185792E+02  0.14166034793E+02  0.59302013428E+02  0.50000126569E+02 0.  0.
        -12    1    1    2    0    0  0.24714368261E+02  0.14326185792E+02 -0.14166034793E+02  0.31885986572E+02  0.00000000000E+00 0.  1.
         11    1    3    3    0    0 -0.10218334947E+02 -0.62684672128E+01  0.26628126653E+02  0.29202143408E+02  0.51100000000E-03 0. -1.
        -11    1    3    3    0    0 -0.45793945879E+01  0.61388393421E+01 -0.10019477903E+02  0.12611349688E+02  0.51100000000E-03 0.  1.
         12    1    3    3    0    0 -0.99166387266E+01 -0.14196557922E+02 -0.24426139576E+01  0.17488520332E+02  0.00000000000E+00 0. -1.
</event>
<event>
 7    1  0.5987893E-013  0.5930195E+02  0.7816164E-02  0.1266605E+00
        -11   -1    0    0    0    0  0.00000000000E+00  0.00000000000E+00  0.45593999997E+02  0.45594000000E+02  0.51100000000E-03 0.  1.
         11   -1    0    0    0    0 -0.00000000000E+00 -0.00000000000E+00 -0.45593999997E+02  0.45594000000E+02  0.51100000000E-03 0. -1.
    9900012    2    1    2    0    0  0.20267275828E+02 -0.16073842253E+02 -0.18643746348E+02  0.59301950509E+02  0.50000011820E+02 0.  0.
        -12    1    1    2    0    0 -0.20267275828E+02  0.16073842253E+02  0.18643746348E+02  0.31886049491E+02  0.00000000000E+00 0.  1.
         11    1    3    3    0    0  0.82158000960E+01 -0.66974383548E+01 -0.30736701583E+02  0.32513072390E+02  0.51100000000E-03 0. -1.
        -11    1    3    3    0    0  0.15261342392E+02 -0.77711430021E+01  0.35046950678E+01  0.17480907383E+02  0.51100000000E-03 0.  1.
         12    1    3    3    0    0 -0.32098666594E+01 -0.16052608958E+01  0.85882601677E+01  0.93079707360E+01  0.00000000000E+00 0. -1.
</event>
<event>
 7    1  0.5987893E-013  0.5930193E+02  0.7816164E-02  0.1266605E+00
        -11   -1    0    0    0    0  0.00000000000E+00  0.00000000000E+00  0.45593999997E+02  0.45594000000E+02  0.51100000000E-03 0.  1.
         11   -1    0    0    0    0 -0.00000000000E+00 -0.00000000000E+00 -0.45593999997E+02  0.45594000000E+02  0.51100000000E-03 0. -1.
    9900012    2    1    2    0    0 -0.13563752618E+02 -0.28513073752E+02  0.44442017545E+01  0.59301926408E+02  0.49999967866E+02 0.  0.
        -12    1    1    2    0    0  0.13563752618E+02  0.28513073752E+02 -0.44442017545E+01  0.31886073592E+02  0.00000000000E+00 0.  1.
         11    1    3    3    0    0 -0.19205135108E+02 -0.10080410971E+02  0.23414080379E+02  0.31916626703E+02  0.51100000000E-03 0. -1.
        -11    1    3    3    0    0  0.31557548696E+01 -0.40207463941E+01 -0.44532622793E+01  0.67791397354E+01  0.51100000000E-03 0.  1.
         12    1    3    3    0    0  0.24856276197E+01 -0.14411916387E+02 -0.14516616345E+02  0.20606159970E+02  0.00000000000E+00 0. -1.
</event>
<event>
 7    1  0.5987893E-013  0.5930192E+02  0.7816164E-02  0.1266605E+00
        -11   -1    0    0    0    0  0.00000000000E+00  0.00000000000E+00  0.45593999997E+02  0.45594000000E+02  0.51100000000E-03 0.  1.
         11   -1    0    0    0    0 -0.00000000000E+00 -0.00000000000E+00 -0.45593999997E+02  0.45594000000E+02  0.51100000000E-03 0. -1.
    9900012    2    1    2    0    0 -0.21868789508E+00 -0.45286860169E+01 -0.31562089472E+02  0.59301916621E+02  0.49999950016E+02 0.  0.
        -12    1    1    2    0    0  0.21868789508E+00  0.45286860169E+01  0.31562089472E+02  0.31886083379E+02  0.00000000000E+00 0.  1.
         11    1    3    3    0    0  0.14381830014E+02  0.32336098177E+01  0.31692459497E+01  0.15077711602E+02  0.51100000000E-03 0.  1.
        -11    1    3    3    0    0 -0.18249665070E+02 -0.87172045692E+01 -0.18005681793E+02  0.27078487915E+02  0.51100000000E-03 0. -1.
         12    1    3    3    0    0  0.36491471608E+01  0.95490873457E+00 -0.16725653629E+02  0.17145717104E+02  0.00000000000E+00 0. -1.
</event>
<event>
 7    1  0.5987893E-013  0.5930190E+02  0.7816164E-02  0.1266605E+00
        -11   -1    0    0    0    0  0.00000000000E+00  0.00000000000E+00  0.45593999997E+02  0.45594000000E+02  0.51100000000E-03 0.  1.
         11   -1    0    0    0    0 -0.00000000000E+00 -0.00000000000E+00 -0.45593999997E+02  0.45594000000E+02  0.51100000000E-03 0. -1.
    9900012    2    1    2    0    0 -0.45091672610E+01  0.27792499370E+02 -0.14965549308E+02  0.59301901513E+02  0.49999922464E+02 0.  0.
        -12    1    1    2    0    0  0.45091672610E+01 -0.27792499370E+02  0.14965549308E+02  0.31886098487E+02  0.00000000000E+00 0.  1.
         11    1    3    3    0    0  0.17884833140E+02  0.18990111803E+02 -0.10477400644E+02  0.28111697338E+02  0.51100000000E-03 0. -1.
        -11    1    3    3    0    0 -0.45964307704E+00  0.37936985327E+01  0.53990462898E+01  0.66146142303E+01  0.51100000000E-03 0.  1.
         12    1    3    3    0    0 -0.21934357324E+02  0.50086890344E+01 -0.98871949539E+01  0.24575589944E+02  0.00000000000E+00 0. -1.
</event>
<event>
 7    1  0.5987893E-013  0.5930194E+02  0.7816164E-02  0.1266605E+00
        -11   -1    0    0    0    0  0.00000000000E+00  0.00000000000E+00  0.45593999997E+02  0.45594000000E+02  0.51100000000E-03 0.  1.
         11   -1    0    0    0    0 -0.00000000000E+00 -0.00000000000E+00 -0.45593999997E+02  0.45594000000E+02  0.51100000000E-03 0. -1.
    9900012    2    1    2    0    0 -0.23220107215E+02  0.55149323199E+01 -0.21145521427E+02  0.59301938249E+02  0.49999989461E+02 0.  0.
        -12    1    1    2    0    0  0.23220107215E+02 -0.55149323199E+01  0.21145521427E+02  0.31886061751E+02  0.00000000000E+00 0.  1.
         11    1    3    3    0    0 -0.22903235534E+02  0.97271755331E+01 -0.20849890164E+02  0.32463734565E+02  0.51100000000E-03 0. -1.
        -11    1    3    3    0    0 -0.98236506401E+01 -0.30472303894E+01  0.88696083431E+01  0.13581593329E+02  0.51100000000E-03 0.  1.
         12    1    3    3    0    0  0.95067789594E+01 -0.11650128237E+01 -0.91652396062E+01  0.13256610355E+02  0.00000000000E+00 0. -1.
</event>
<event>
 7    1  0.5987893E-013  0.5930192E+02  0.7816164E-02  0.1266605E+00
        -11   -1    0    0    0    0  0.00000000000E+00  0.00000000000E+00  0.45593999997E+02  0.45594000000E+02  0.51100000000E-03 0.  1.
         11   -1    0    0    0    0 -0.00000000000E+00 -0.00000000000E+00 -0.45593999997E+02  0.45594000000E+02  0.51100000000E-03 0. -1.
    9900012    2    1    2    0    0  0.15003715923E+02  0.18663581769E+02 -0.21054244319E+02  0.59301921850E+02  0.49999959553E+02 0.  0.
        -12    1    1    2    0    0 -0.15003715923E+02 -0.18663581769E+02  0.21054244319E+02  0.31886078150E+02  0.00000000000E+00 0.  1.
         11    1    3    3    0    0  0.77359903014E+00  0.17901602941E+02 -0.10823293665E+02  0.20933454788E+02  0.51100000000E-03 0. -1.
        -11    1    3    3    0    0  0.45174545058E+01  0.51451087913E+01  0.11943323484E+02  0.13766717684E+02  0.51100000000E-03 0.  1.
        -12    1    3    3    0    0  0.97126623875E+01 -0.43831299633E+01 -0.22174274138E+02  0.24601749378E+02  0.00000000000E+00 0.  1.
</event>
<event>
 7    1  0.6165535E-013  0.5930223E+02  0.7816164E-02  0.1266604E+00
        -11   -1    0    0    0    0  0.00000000000E+00  0.00000000000E+00  0.45593999997E+02  0.45594000000E+02  0.51100000000E-03 0. -1.
         11   -1    0    0    0    0 -0.00000000000E+00 -0.00000000000E+00 -0.45593999997E+02  0.45594000000E+02  0.51100000000E-03 0.  1.
    9900012    2    1    2    0    0 -0.20126413169E+02 -0.17121047099E+01  0.24671817512E+02  0.59302229052E+02  0.50000519813E+02 0.  0.
        -12    1    1    2    0    0  0.20126413169E+02  0.17121047099E+01 -0.24671817512E+02  0.31885770948E+02  0.00000000000E+00 0.  1.
         11    1    3    3    0    0 -0.16634351497E+02 -0.22740779390E+01  0.25093336008E+02  0.30191863017E+02  0.51100000000E-03 0. -1.
        -11    1    3    3    0    0  0.11942441747E+02  0.51496294904E+01 -0.20884432756E+00  0.13007083262E+02  0.51100000000E-03 0.  1.
        -12    1    3    3    0    0 -0.15434503419E+02 -0.45876562613E+01 -0.21267416817E+00  0.16103282773E+02  0.00000000000E+00 0.  1.
</event>
<event>
 7    1  0.5987893E-013  0.5930194E+02  0.7816164E-02  0.1266605E+00
        -11   -1    0    0    0    0  0.00000000000E+00  0.00000000000E+00  0.45593999997E+02  0.45594000000E+02  0.51100000000E-03 0.  1.
         11   -1    0    0    0    0 -0.00000000000E+00 -0.00000000000E+00 -0.45593999997E+02  0.45594000000E+02  0.51100000000E-03 0. -1.
    9900012    2    1    2    0    0  0.22708103390E+02 -0.89907888186E+01 -0.20499479024E+02  0.59301939042E+02  0.49999990907E+02 0.  0.
        -12    1    1    2    0    0 -0.22708103390E+02  0.89907888186E+01  0.20499479024E+02  0.31886060958E+02  0.00000000000E+00 0.  1.
         11    1    3    3    0    0  0.22322856285E+02  0.34534961128E-01  0.58739337505E+01  0.23082768538E+02  0.51100000000E-03 0. -1.
        -11    1    3    3    0    0 -0.92163709339E+01  0.12048066410E+01 -0.16908698026E+02  0.19295002498E+02  0.51100000000E-03 0.  1.
         12    1    3    3    0    0  0.96016180387E+01 -0.10230130421E+02 -0.94647147493E+01  0.16924168005E+02  0.00000000000E+00 0. -1.
</event>
<event>
 7    1  0.5987893E-013  0.5930194E+02  0.7816164E-02  0.1266605E+00
        -11   -1    0    0    0    0  0.00000000000E+00  0.00000000000E+00  0.45593999997E+02  0.45594000000E+02  0.51100000000E-03 0. -1.
         11   -1    0    0    0    0 -0.00000000000E+00 -0.00000000000E+00 -0.45593999997E+02  0.45594000000E+02  0.51100000000E-03 0.  1.
    9900012    2    1    2    0    0 -0.15027466750E+02 -0.25910654511E+02 -0.10933167382E+02  0.59301938420E+02  0.49999989772E+02 0.  0.
        -12    1    1    2    0    0  0.15027466750E+02  0.25910654511E+02  0.10933167382E+02  0.31886061580E+02  0.00000000000E+00 0.  1.
         11    1    3    3    0    0  0.67966625686E+00  0.10899988360E+01  0.88815104600E+01  0.89739217734E+01  0.51100000000E-03 0. -1.
        -11    1    3    3    0    0 -0.77361518239E+01 -0.14218417485E+02 -0.28619293816E+02  0.32879711368E+02  0.51100000000E-03 0.  1.
        -12    1    3    3    0    0 -0.79709811829E+01 -0.12782235862E+02  0.88046159739E+01  0.17448305279E+02  0.00000000000E+00 0.  1.
</event>
<event>
 7    1  0.5987893E-013  0.5930195E+02  0.7816164E-02  0.1266605E+00
        -11   -1    0    0    0    0  0.00000000000E+00  0.00000000000E+00  0.45593999997E+02  0.45594000000E+02  0.51100000000E-03 0.  1.
         11   -1    0    0    0    0 -0.00000000000E+00 -0.00000000000E+00 -0.45593999997E+02  0.45594000000E+02  0.51100000000E-03 0. -1.
    9900012    2    1    2    0    0  0.57847870348E+01 -0.27642901519E+02  0.14802921410E+02  0.59301949010E+02  0.50000009087E+02 0.  0.
        -12    1    1    2    0    0 -0.57847870348E+01  0.27642901519E+02 -0.14802921410E+02  0.31886050990E+02  0.00000000000E+00 0.  1.
         11    1    3    3    0    0 -0.10540567008E+02 -0.20740245568E+02  0.14453791640E+02  0.27389294115E+02  0.51100000000E-03 0. -1.
        -11    1    3    3    0    0  0.15748336292E+02  0.62950912488E+01 -0.49677328214E+01  0.17672482549E+02  0.51100000000E-03 0.  1.
        -12    1    3    3    0    0  0.57701775138E+00 -0.13197747200E+02  0.53168625915E+01  0.14240172346E+02  0.00000000000E+00 0.  1.
</event>
<event>
 7    1  0.5987893E-013  0.5930192E+02  0.7816164E-02  0.1266605E+00
        -11   -1    0    0    0    0  0.00000000000E+00  0.00000000000E+00  0.45593999997E+02  0.45594000000E+02  0.51100000000E-03 0.  1.
         11   -1    0    0    0    0 -0.00000000000E+00 -0.00000000000E+00 -0.45593999997E+02  0.45594000000E+02  0.51100000000E-03 0. -1.
    9900012    2    1    2    0    0 -0.49111892673E+01  0.18930884340E+02 -0.25183799319E+02  0.59301922943E+02  0.49999961547E+02 0.  0.
        -12    1    1    2    0    0  0.49111892673E+01 -0.18930884340E+02  0.25183799319E+02  0.31886077057E+02  0.00000000000E+00 0.  1.
         11    1    3    3    0    0 -0.13028322141E+01  0.77834857217E+00 -0.48785300828E+01  0.51091343990E+01  0.51100000000E-03 0. -1.
        -11    1    3    3    0    0  0.15915755892E+02  0.20403606703E+02  0.79025723971E-01  0.25877107594E+02  0.51100000000E-03 0.  1.
        -12    1    3    3    0    0 -0.19524112945E+02 -0.22510709354E+01 -0.20384294960E+02  0.28315680950E+02  0.00000000000E+00 0.  1.
</event>
<event>
 7    1  0.5987893E-013  0.5930190E+02  0.7816164E-02  0.1266605E+00
        -11   -1    0    0    0    0  0.00000000000E+00  0.00000000000E+00  0.45593999997E+02  0.45594000000E+02  0.51100000000E-03 0. -1.
         11   -1    0    0    0    0 -0.00000000000E+00 -0.00000000000E+00 -0.45593999997E+02  0.45594000000E+02  0.51100000000E-03 0.  1.
    9900012    2    1    2    0    0 -0.15468963074E+02 -0.19461119060E+02  0.19967452733E+02  0.59301903621E+02  0.49999926307E+02 0.  0.
        -12    1    1    2    0    0  0.15468963074E+02  0.19461119060E+02 -0.19967452733E+02  0.31886096379E+02  0.00000000000E+00 0.  1.
         11    1    3    3    0    0 -0.17598573226E+02 -0.27407528489E+02  0.31240995428E+02  0.45131831262E+02  0.51100000000E-03 0. -1.
        -11    1    3    3    0    0 -0.36568191638E-01  0.34530133343E+01 -0.59139153922E+01  0.68482869279E+01  0.51100000000E-03 0.  1.
         12    1    3    3    0    0  0.21661783435E+01  0.44933960945E+01 -0.53596273026E+01  0.73217854312E+01  0.00000000000E+00 0. -1.
</event>
<event>
 7    1  0.5987893E-013  0.5930198E+02  0.7816164E-02  0.1266605E+00
        -11   -1    0    0    0    0  0.00000000000E+00  0.00000000000E+00  0.45593999997E+02  0.45594000000E+02  0.51100000000E-03 0. -1.
         11   -1    0    0    0    0 -0.00000000000E+00 -0.00000000000E+00 -0.45593999997E+02  0.45594000000E+02  0.51100000000E-03 0.  1.
    9900012    2    1    2    0    0 -0.10370595658E+02 -0.28094064548E+02  0.10949554515E+02  0.59301977024E+02  0.50000060178E+02 0.  0.
        -12    1    1    2    0    0  0.10370595658E+02  0.28094064548E+02 -0.10949554515E+02  0.31886022976E+02  0.00000000000E+00 0.  1.
         11    1    3    3    0    0 -0.19998224207E+02 -0.22977927312E+02  0.20777399399E+02  0.36872949991E+02  0.51100000000E-03 0. -1.
        -11    1    3    3    0    0 -0.25830817735E+01 -0.57428472183E+01 -0.78172602481E+01  0.10038035847E+02  0.51100000000E-03 0.  1.
         12    1    3    3    0    0  0.12210710323E+02  0.62670998212E+00 -0.20105846360E+01  0.12390991186E+02  0.00000000000E+00 0. -1.
</event>
<event>
 7    1  0.5987893E-013  0.5930192E+02  0.7816164E-02  0.1266605E+00
        -11   -1    0    0    0    0  0.00000000000E+00  0.00000000000E+00  0.45593999997E+02  0.45594000000E+02  0.51100000000E-03 0.  1.
         11   -1    0    0    0    0 -0.00000000000E+00 -0.00000000000E+00 -0.45593999997E+02  0.45594000000E+02  0.51100000000E-03 0. -1.
    9900012    2    1    2    0    0 -0.47710753173E+01  0.28982909971E+02 -0.12407659953E+02  0.59301917525E+02  0.49999951665E+02 0.  0.
        -12    1    1    2    0    0  0.47710753173E+01 -0.28982909971E+02  0.12407659953E+02  0.31886082475E+02  0.00000000000E+00 0.  1.
         11    1    3    3    0    0  0.96881384007E+01  0.29767026044E+02  0.73099487225E+00  0.31312461081E+02  0.51100000000E-03 0. -1.
        -11    1    3    3    0    0 -0.49843004275E+01  0.19601222854E+01 -0.16672193517E+02  0.17511349664E+02  0.51100000000E-03 0.  1.
         12    1    3    3    0    0 -0.94749132905E+01 -0.27442383577E+01  0.35335386914E+01  0.10478106781E+02  0.00000000000E+00 0. -1.
</event>
<event>
 7    1  0.5987893E-013  0.5930194E+02  0.7816164E-02  0.1266605E+00
        -11   -1    0    0    0    0  0.00000000000E+00  0.00000000000E+00  0.45593999997E+02  0.45594000000E+02  0.51100000000E-03 0.  1.
         11   -1    0    0    0    0 -0.00000000000E+00 -0.00000000000E+00 -0.45593999997E+02  0.45594000000E+02  0.51100000000E-03 0. -1.
    9900012    2    1    2    0    0  0.28147099523E+02 -0.60718652322E+01 -0.13696497232E+02  0.59301940423E+02  0.49999993425E+02 0.  0.
        -12    1    1    2    0    0 -0.28147099523E+02  0.60718652322E+01  0.13696497232E+02  0.31886059577E+02  0.00000000000E+00 0.  1.
         11    1    3    3    0    0 -0.54757943907E+01  0.21597610279E+01 -0.19283041928E+02  0.20161463195E+02  0.51100000000E-03 0. -1.
        -11    1    3    3    0    0  0.21823346227E+02 -0.91508971995E+01  0.11035688199E+02  0.26110989533E+02  0.51100000000E-03 0.  1.
         12    1    3    3    0    0  0.11799547687E+02  0.91927093935E+00 -0.54491435028E+01  0.13029487695E+02  0.00000000000E+00 0. -1.
</event>
<event>
 7    1  0.5987893E-013  0.5930194E+02  0.7816164E-02  0.1266605E+00
        -11   -1    0    0    0    0  0.00000000000E+00  0.00000000000E+00  0.45593999997E+02  0.45594000000E+02  0.51100000000E-03 0.  1.
         11   -1    0    0    0    0 -0.00000000000E+00 -0.00000000000E+00 -0.45593999997E+02  0.45594000000E+02  0.51100000000E-03 0. -1.
    9900012    2    1    2    0    0 -0.26248465884E+02  0.89728733006E+01 -0.15723433110E+02  0.59301940894E+02  0.49999994285E+02 0.  0.
        -12    1    1    2    0    0  0.26248465884E+02 -0.89728733006E+01  0.15723433110E+02  0.31886059106E+02  0.00000000000E+00 0.  1.
         11    1    3    3    0    0 -0.23717293523E+02 -0.90473652894E+01 -0.13289214676E+02  0.28652540162E+02  0.51100000000E-03 0. -1.
        -11    1    3    3    0    0  0.54968447555E+00  0.19672351340E+00  0.91509238885E+01  0.91695289649E+01  0.51100000000E-03 0.  1.
         12    1    3    3    0    0 -0.30808568362E+01  0.17823515077E+02 -0.11585142322E+02  0.21479871768E+02  0.00000000000E+00 0. -1.
</event>
<event>
 7    1  0.5987893E-013  0.5930195E+02  0.7816164E-02  0.1266605E+00
        -11   -1    0    0    0    0  0.00000000000E+00  0.00000000000E+00  0.45593999997E+02  0.45594000000E+02  0.51100000000E-03 0.  1.
         11   -1    0    0    0    0 -0.00000000000E+00 -0.00000000000E+00 -0.45593999997E+02  0.45594000000E+02  0.51100000000E-03 0. -1.
    9900012    2    1    2    0    0  0.23374310806E+02  0.17108413359E+02 -0.13329066282E+02  0.59301949426E+02  0.50000009844E+02 0.  0.
        -12    1    1    2    0    0 -0.23374310806E+02 -0.17108413359E+02  0.13329066282E+02  0.31886050574E+02  0.00000000000E+00 0.  1.
         11    1    3    3    0    0  0.20360691338E+02  0.16520363776E+01  0.15211528927E+02  0.25469149741E+02  0.51100000000E-03 0.  1.
        -11    1    3    3    0    0  0.61847862911E+01  0.11639922495E+02 -0.19919159771E+02  0.23885399377E+02  0.51100000000E-03 0. -1.
         12    1    3    3    0    0 -0.31711668238E+01  0.38164544864E+01 -0.86214354379E+01  0.99474003076E+01  0.00000000000E+00 0. -1.
</event>
<event>
 7    1  0.5987893E-013  0.5930192E+02  0.7816164E-02  0.1266605E+00
        -11   -1    0    0    0    0  0.00000000000E+00  0.00000000000E+00  0.45593999997E+02  0.45594000000E+02  0.51100000000E-03 0.  1.
         11   -1    0    0    0    0 -0.00000000000E+00 -0.00000000000E+00 -0.45593999997E+02  0.45594000000E+02  0.51100000000E-03 0. -1.
    9900012    2    1    2    0    0  0.95089524978E+01 -0.13165134705E+02 -0.27440507540E+02  0.59301915207E+02  0.49999947437E+02 0.  0.
        -12    1    1    2    0    0 -0.95089524978E+01  0.13165134705E+02  0.27440507540E+02  0.31886084793E+02  0.00000000000E+00 0.  1.
         11    1    3    3    0    0  0.17336425938E+02 -0.11566388384E+02 -0.11901810005E+02  0.23999710128E+02  0.51100000000E-03 0. -1.
        -11    1    3    3    0    0 -0.22754430140E+01  0.69937718587E+01 -0.22003804855E+02  0.23200386076E+02  0.51100000000E-03 0.  1.
        -12    1    3    3    0    0 -0.55520304266E+01 -0.85925181798E+01  0.64651073200E+01  0.12101819003E+02  0.00000000000E+00 0.  1.
</event>
<event>
 7    1  0.5987893E-013  0.5930194E+02  0.7816164E-02  0.1266605E+00
        -11   -1    0    0    0    0  0.00000000000E+00  0.00000000000E+00  0.45593999997E+02  0.45594000000E+02  0.51100000000E-03 0.  1.
         11   -1    0    0    0    0 -0.00000000000E+00 -0.00000000000E+00 -0.45593999997E+02  0.45594000000E+02  0.51100000000E-03 0. -1.
    9900012    2    1    2    0    0  0.83086577991E+01  0.60902163255E+01 -0.30176086785E+02  0.59301941244E+02  0.49999994923E+02 0.  0.
        -12    1    1    2    0    0 -0.83086577991E+01 -0.60902163255E+01  0.30176086785E+02  0.31886058756E+02  0.00000000000E+00 0.  1.
         11    1    3    3    0    0  0.45739864403E+01  0.48333551622E+01 -0.60500583541E+01  0.89936577892E+01  0.51100000000E-03 0. -1.
        -11    1    3    3    0    0 -0.17079586127E+02 -0.58211831739E+00 -0.23937843984E+02  0.29412097831E+02  0.51100000000E-03 0.  1.
        -12    1    3    3    0    0  0.20814257486E+02  0.18389794808E+01 -0.18818444784E+00  0.20896185623E+02  0.00000000000E+00 0.  1.
</event>
<event>
 7    1  0.5987893E-013  0.5930192E+02  0.7816164E-02  0.1266605E+00
        -11   -1    0    0    0    0  0.00000000000E+00  0.00000000000E+00  0.45593999997E+02  0.45594000000E+02  0.51100000000E-03 0. -1.
         11   -1    0    0    0    0 -0.00000000000E+00 -0.00000000000E+00 -0.45593999997E+02  0.45594000000E+02  0.51100000000E-03 0.  1.
    9900012    2    1    2    0    0 -0.16245701831E+02 -0.64691990565E+01  0.26663618336E+02  0.59301922989E+02  0.49999961630E+02 0.  0.
        -12    1    1    2    0    0  0.16245701831E+02  0.64691990565E+01 -0.26663618336E+02  0.31886077011E+02  0.00000000000E+00 0.  1.
         11    1    3    3    0    0 -0.50986291370E+01 -0.66061861334E+01  0.20181975900E+01  0.85855015043E+01  0.51100000000E-03 0. -1.
        -11    1    3    3    0    0  0.47285672262E+01 -0.69652186417E+01  0.31058951017E+02  0.32179683921E+02  0.51100000000E-03 0.  1.
        -12    1    3    3    0    0 -0.15875639920E+02  0.71022057185E+01 -0.64135302711E+01  0.18536737563E+02  0.00000000000E+00 0.  1.
</event>
<event>
 7    1  0.5987893E-013  0.5930186E+02  0.7816164E-02  0.1266605E+00
        -11   -1    0    0    0    0  0.00000000000E+00  0.00000000000E+00  0.45593999997E+02  0.45594000000E+02  0.51100000000E-03 0.  1.
         11   -1    0    0    0    0 -0.00000000000E+00 -0.00000000000E+00 -0.45593999997E+02  0.45594000000E+02  0.51100000000E-03 0. -1.
    9900012    2    1    2    0    0 -0.14555036536E+02  0.41422046079E+01 -0.28066331009E+02  0.59301860630E+02  0.49999847903E+02 0.  0.
        -12    1    1    2    0    0  0.14555036536E+02 -0.41422046079E+01  0.28066331009E+02  0.31886139370E+02  0.00000000000E+00 0.  1.
         11    1    3    3    0    0 -0.12937888661E+02  0.13502477877E+02 -0.35477404723E+02  0.40104265583E+02  0.51100000000E-03 0. -1.
        -11    1    3    3    0    0 -0.56170280405E+01 -0.93572336529E+01  0.15815010927E+00  0.10914844816E+02  0.51100000000E-03 0.  1.
         12    1    3    3    0    0  0.39998801661E+01 -0.30396166458E-02  0.72529236041E+01  0.82827502310E+01  0.00000000000E+00 0. -1.
</event>
<event>
 7    1  0.5987893E-013  0.5930197E+02  0.7816164E-02  0.1266605E+00
        -11   -1    0    0    0    0  0.00000000000E+00  0.00000000000E+00  0.45593999997E+02  0.45594000000E+02  0.51100000000E-03 0. -1.
         11   -1    0    0    0    0 -0.00000000000E+00 -0.00000000000E+00 -0.45593999997E+02  0.45594000000E+02  0.51100000000E-03 0.  1.
    9900012    2    1    2    0    0  0.62421232204E+01  0.80420473701E+01  0.30217223332E+02  0.59301965218E+02  0.50000038646E+02 0.  0.
        -12    1    1    2    0    0 -0.62421232204E+01 -0.80420473701E+01 -0.30217223332E+02  0.31886034782E+02  0.00000000000E+00 0.  1.
         11    1    3    3    0    0 -0.43719308477E+01 -0.13853855493E+02  0.23489478275E+02  0.27618810279E+02  0.51100000000E-03 0. -1.
        -11    1    3    3    0    0 -0.36415703726E+01  0.26637024612E+01 -0.34402427026E+01  0.56737655657E+01  0.51100000000E-03 0.  1.
         12    1    3    3    0    0  0.14255624441E+02  0.19232200401E+02  0.10167987760E+02  0.26009389373E+02  0.00000000000E+00 0. -1.
</event>
<event>
 7    1  0.5987893E-013  0.5930193E+02  0.7816164E-02  0.1266605E+00
        -11   -1    0    0    0    0  0.00000000000E+00  0.00000000000E+00  0.45593999997E+02  0.45594000000E+02  0.51100000000E-03 0.  1.
         11   -1    0    0    0    0 -0.00000000000E+00 -0.00000000000E+00 -0.45593999997E+02  0.45594000000E+02  0.51100000000E-03 0. -1.
    9900012    2    1    2    0    0  0.29290688668E+02  0.12452618231E+02 -0.19259093362E+01  0.59301932977E+02  0.49999979845E+02 0.  0.
        -12    1    1    2    0    0 -0.29290688668E+02 -0.12452618231E+02  0.19259093362E+01  0.31886067023E+02  0.00000000000E+00 0.  1.
         11    1    3    3    0    0 -0.45936335952E+01 -0.75935835903E+01  0.20910971300E+01  0.91179311698E+01  0.51100000000E-03 0. -1.
        -11    1    3    3    0    0  0.11472514835E+02  0.24601806532E+02 -0.26142702386E+01  0.27270898233E+02  0.51100000000E-03 0.  1.
        -12    1    3    3    0    0  0.22411807428E+02 -0.45556047106E+01 -0.14027362276E+01  0.22913103574E+02  0.00000000000E+00 0.  1.
</event>
<event>
 7    1  0.5987893E-013  0.5930192E+02  0.7816164E-02  0.1266605E+00
        -11   -1    0    0    0    0  0.00000000000E+00  0.00000000000E+00  0.45593999997E+02  0.45594000000E+02  0.51100000000E-03 0.  1.
         11   -1    0    0    0    0 -0.00000000000E+00 -0.00000000000E+00 -0.45593999997E+02  0.45594000000E+02  0.51100000000E-03 0. -1.
    9900012    2    1    2    0    0  0.17559961625E+02 -0.24716164859E+02  0.98732606412E+01  0.59301916307E+02  0.49999949443E+02 0.  0.
        -12    1    1    2    0    0 -0.17559961625E+02  0.24716164859E+02 -0.98732606412E+01  0.31886083693E+02  0.00000000000E+00 0.  1.
         11    1    3    3    0    0  0.26969799394E+02 -0.12144956628E+02  0.20493305598E+02  0.35983963448E+02  0.51100000000E-03 0. -1.
        -11    1    3    3    0    0 -0.56214189183E+01 -0.14910902935E+02 -0.10023063248E+02  0.18825439547E+02  0.51100000000E-03 0.  1.
        -12    1    3    3    0    0 -0.37884188507E+01  0.23396947039E+01 -0.59698170950E+00  0.44925133119E+01  0.00000000000E+00 0.  1.
</event>
<event>
 7    1  0.5987893E-013  0.5930194E+02  0.7816164E-02  0.1266605E+00
        -11   -1    0    0    0    0  0.00000000000E+00  0.00000000000E+00  0.45593999997E+02  0.45594000000E+02  0.51100000000E-03 0.  1.
         11   -1    0    0    0    0 -0.00000000000E+00 -0.00000000000E+00 -0.45593999997E+02  0.45594000000E+02  0.51100000000E-03 0. -1.
    9900012    2    1    2    0    0 -0.25619143053E+02 -0.14023639209E+02  0.12795228440E+02  0.59301940064E+02  0.49999992770E+02 0.  0.
        -12    1    1    2    0    0  0.25619143053E+02  0.14023639209E+02 -0.12795228440E+02  0.31886059936E+02  0.00000000000E+00 0.  1.
         11    1    3    3    0    0 -0.32573729026E+02 -0.11953905508E+02  0.24597423617E+02  0.42532069412E+02  0.51100000000E-03 0.  1.
        -11    1    3    3    0    0  0.85201097708E+01 -0.37644243509E+01 -0.77951083186E+01  0.12146064184E+02  0.51100000000E-03 0. -1.
        -12    1    3    3    0    0 -0.15655237975E+01  0.16946906501E+01 -0.40070868587E+01  0.46238064680E+01  0.00000000000E+00 0.  1.
</event>
<event>
 7    1  0.7955700E-013  0.5930191E+02  0.7816164E-02  0.1266605E+00
        -11   -1    0    0    0    0  0.00000000000E+00  0.00000000000E+00  0.45593999997E+02  0.45594000000E+02  0.51100000000E-03 0. -1.
         11   -1    0    0    0    0 -0.00000000000E+00 -0.00000000000E+00 -0.45593999997E+02  0.45594000000E+02  0.51100000000E-03 0.  1.
    9900012    2    1    2    0    0  0.22521401305E+02  0.66690003477E+01  0.21564641824E+02  0.59301908057E+02  0.49999934398E+02 0.  0.
        -12    1    1    2    0    0 -0.22521401305E+02 -0.66690003477E+01 -0.21564641824E+02  0.31886091943E+02  0.00000000000E+00 0.  1.
         11    1    3    3    0    0  0.14396082208E+02 -0.10678451835E+02  0.22976993906E+02  0.29141358337E+02  0.51100000000E-03 0. -1.
        -11    1    3    3    0    0 -0.21126238870E-01  0.54457838608E+01 -0.11388640807E+02  0.12623713712E+02  0.51100000000E-03 0.  1.
         12    1    3    3    0    0  0.81464453362E+01  0.11901668322E+02  0.99762887258E+01  0.17536836009E+02  0.00000000000E+00 0. -1.
</event>
<event>
 7    1  0.5987893E-013  0.5930174E+02  0.7816164E-02  0.1266605E+00
        -11   -1    0    0    0    0  0.00000000000E+00  0.00000000000E+00  0.45593999997E+02  0.45594000000E+02  0.51100000000E-03 0. -1.
         11   -1    0    0    0    0 -0.00000000000E+00 -0.00000000000E+00 -0.45593999997E+02  0.45594000000E+02  0.51100000000E-03 0.  1.
    9900012    2    1    2    0    0 -0.13237941084E+02 -0.15249913560E+01  0.28968340294E+02  0.59301742425E+02  0.49999632323E+02 0.  0.
        -12    1    1    2    0    0  0.13237941084E+02  0.15249913560E+01 -0.28968340294E+02  0.31886257575E+02  0.00000000000E+00 0.  1.
         11    1    3    3    0    0 -0.16897630156E+02  0.89929914757E+01  0.25850871533E+02  0.32166307836E+02  0.51100000000E-03 0. -1.
        -11    1    3    3    0    0  0.12217144487E+02 -0.31690409362E+01 -0.46379378111E+01  0.13446631819E+02  0.51100000000E-03 0.  1.
         12    1    3    3    0    0 -0.85574554150E+01 -0.73489418956E+01  0.77554065722E+01  0.13688802770E+02  0.00000000000E+00 0. -1.
</event>
<event>
 7    1  0.5987893E-013  0.5930196E+02  0.7816164E-02  0.1266605E+00
        -11   -1    0    0    0    0  0.00000000000E+00  0.00000000000E+00  0.45593999997E+02  0.45594000000E+02  0.51100000000E-03 0.  1.
         11   -1    0    0    0    0 -0.00000000000E+00 -0.00000000000E+00 -0.45593999997E+02  0.45594000000E+02  0.51100000000E-03 0. -1.
    9900012    2    1    2    0    0 -0.16692110563E+02  0.13393643834E+02 -0.23636902448E+02  0.59301962185E+02  0.50000033114E+02 0.  0.
        -12    1    1    2    0    0  0.16692110563E+02 -0.13393643834E+02  0.23636902448E+02  0.31886037815E+02  0.00000000000E+00 0.  1.
         11    1    3    3    0    0  0.94159629413E+01 -0.98404735305E+01 -0.73123158584E+01  0.15458500603E+02  0.51100000000E-03 0. -1.
        -11    1    3    3    0    0 -0.51291564697E+01  0.13268884256E+01  0.45817669298E+01  0.70043891557E+01  0.51100000000E-03 0.  1.
         12    1    3    3    0    0 -0.20978917035E+02  0.21907228939E+02 -0.20906353519E+02  0.36839072426E+02  0.00000000000E+00 0. -1.
</event>
<event>
 7    1  0.5987893E-013  0.5930194E+02  0.7816164E-02  0.1266605E+00
        -11   -1    0    0    0    0  0.00000000000E+00  0.00000000000E+00  0.45593999997E+02  0.45594000000E+02  0.51100000000E-03 0. -1.
         11   -1    0    0    0    0 -0.00000000000E+00 -0.00000000000E+00 -0.45593999997E+02  0.45594000000E+02  0.51100000000E-03 0.  1.
    9900012    2    1    2    0    0  0.23778569681E+02 -0.35530051099E+01  0.20944606473E+02  0.59301940951E+02  0.49999994389E+02 0.  0.
        -12    1    1    2    0    0 -0.23778569681E+02  0.35530051099E+01 -0.20944606473E+02  0.31886059049E+02  0.00000000000E+00 0.  1.
         11    1    3    3    0    0  0.37109509902E+01  0.83586688472E+01  0.21019600858E+02  0.22922960600E+02  0.51100000000E-03 0. -1.
        -11    1    3    3    0    0  0.48825886974E+01 -0.62773493094E+01 -0.13281625080E+02  0.15480515230E+02  0.51100000000E-03 0.  1.
        -12    1    3    3    0    0  0.15185029993E+02 -0.56343246477E+01  0.13206630695E+02  0.20898465122E+02  0.00000000000E+00 0.  1.
</event>
<event>
 7    1  0.5987893E-013  0.5930191E+02  0.7816164E-02  0.1266605E+00
        -11   -1    0    0    0    0  0.00000000000E+00  0.00000000000E+00  0.45593999997E+02  0.45594000000E+02  0.51100000000E-03 0. -1.
         11   -1    0    0    0    0 -0.00000000000E+00 -0.00000000000E+00 -0.45593999997E+02  0.45594000000E+02  0.51100000000E-03 0.  1.
    9900012    2    1    2    0    0 -0.25687480999E+02  0.10887140752E+02  0.15438475847E+02  0.59301905063E+02  0.49999928938E+02 0.  0.
        -12    1    1    2    0    0  0.25687480999E+02 -0.10887140752E+02 -0.15438475847E+02  0.31886094937E+02  0.00000000000E+00 0.  1.
         11    1    3    3    0    0  0.53593482157E+01  0.46756070784E+01 -0.98830997274E+01  0.12176188867E+02  0.51100000000E-03 0.  1.
        -11    1    3    3    0    0 -0.22288658373E+02  0.11594717316E+02  0.69405360763E+01  0.26065164550E+02  0.51100000000E-03 0. -1.
         12    1    3    3    0    0 -0.87581708422E+01 -0.53831836423E+01  0.18381039498E+02  0.21060551646E+02  0.00000000000E+00 0. -1.
</event>
<event>
 7    1  0.5987893E-013  0.5930195E+02  0.7816164E-02  0.1266605E+00
        -11   -1    0    0    0    0  0.00000000000E+00  0.00000000000E+00  0.45593999997E+02  0.45594000000E+02  0.51100000000E-03 0. -1.
         11   -1    0    0    0    0 -0.00000000000E+00 -0.00000000000E+00 -0.45593999997E+02  0.45594000000E+02  0.51100000000E-03 0.  1.
    9900012    2    1    2    0    0 -0.10959554747E+01 -0.59914127755E+01  0.31298910214E+02  0.59301954055E+02  0.50000018287E+02 0.  0.
        -12    1    1    2    0    0  0.10959554747E+01  0.59914127755E+01 -0.31298910214E+02  0.31886045945E+02  0.00000000000E+00 0.  1.
         11    1    3    3    0    0 -0.55051922544E+01 -0.11997864504E+01  0.97563783511E+01  0.11266478956E+02  0.51100000000E-03 0. -1.
        -11    1    3    3    0    0  0.43408571513E+01  0.62199364621E+01 -0.11179817337E+02  0.13509958044E+02  0.51100000000E-03 0.  1.
        -12    1    3    3    0    0  0.68379628404E-01 -0.11011562787E+02  0.32722349199E+02  0.34525517055E+02  0.00000000000E+00 0.  1.
</event>
<event>
 7    1  0.5987893E-013  0.5930189E+02  0.7816164E-02  0.1266605E+00
        -11   -1    0    0    0    0  0.00000000000E+00  0.00000000000E+00  0.45593999997E+02  0.45594000000E+02  0.51100000000E-03 0.  1.
         11   -1    0    0    0    0 -0.00000000000E+00 -0.00000000000E+00 -0.45593999997E+02  0.45594000000E+02  0.51100000000E-03 0. -1.
    9900012    2    1    2    0    0  0.30188310103E+02  0.83807401492E+01 -0.59290114717E+01  0.59301889398E+02  0.49999900368E+02 0.  0.
        -12    1    1    2    0    0 -0.30188310103E+02 -0.83807401492E+01  0.59290114717E+01  0.31886110602E+02  0.00000000000E+00 0.  1.
         11    1    3    3    0    0  0.10147772311E+02 -0.13885271007E+02 -0.33293335410E+00  0.17201420833E+02  0.51100000000E-03 0. -1.
        -11    1    3    3    0    0 -0.67871792920E+01  0.99497540717E+01 -0.33181723079E+01  0.12492945071E+02  0.51100000000E-03 0.  1.
         12    1    3    3    0    0  0.26827717084E+02  0.12316257084E+02 -0.22779058097E+01  0.29607523493E+02  0.00000000000E+00 0. -1.
</event>
<event>
 7    1  0.5987893E-013  0.5930191E+02  0.7816164E-02  0.1266605E+00
        -11   -1    0    0    0    0  0.00000000000E+00  0.00000000000E+00  0.45593999997E+02  0.45594000000E+02  0.51100000000E-03 0.  1.
         11   -1    0    0    0    0 -0.00000000000E+00 -0.00000000000E+00 -0.45593999997E+02  0.45594000000E+02  0.51100000000E-03 0. -1.
    9900012    2    1    2    0    0  0.25701997872E+02 -0.18808584961E+02  0.15384763161E+01  0.59301914128E+02  0.49999945470E+02 0.  0.
        -12    1    1    2    0    0 -0.25701997872E+02  0.18808584961E+02 -0.15384763161E+01  0.31886085872E+02  0.00000000000E+00 0.  1.
         11    1    3    3    0    0  0.31884922964E+02 -0.16385322169E+02  0.12176976958E+02  0.37860346844E+02  0.51100000000E-03 0.  1.
        -11    1    3    3    0    0 -0.64047959555E+01 -0.69773818876E+01 -0.13173388678E+02  0.16224778543E+02  0.51100000000E-03 0. -1.
        -12    1    3    3    0    0  0.22187086378E+00  0.45541190958E+01  0.25348880359E+01  0.52167887415E+01  0.00000000000E+00 0.  1.
</event>
<event>
 7    1  0.5987893E-013  0.5930183E+02  0.7816164E-02  0.1266605E+00
        -11   -1    0    0    0    0  0.00000000000E+00  0.00000000000E+00  0.45593999997E+02  0.45594000000E+02  0.51100000000E-03 0.  1.
         11   -1    0    0    0    0 -0.00000000000E+00 -0.00000000000E+00 -0.45593999997E+02  0.45594000000E+02  0.51100000000E-03 0. -1.
    9900012    2    1    2    0    0  0.27697973089E+02 -0.15789426525E+02 -0.49386349612E+00  0.59301833652E+02  0.49999798701E+02 0.  0.
        -12    1    1    2    0    0 -0.27697973089E+02  0.15789426525E+02  0.49386349612E+00  0.31886166348E+02  0.00000000000E+00 0.  1.
         11    1    3    3    0    0  0.13241868750E+02  0.12263118824E+02 -0.33994192551E+01  0.18365381096E+02  0.51100000000E-03 0. -1.
        -11    1    3    3    0    0 -0.65743010330E+01 -0.36648884979E+01  0.43639678891E+01  0.87004056096E+01  0.51100000000E-03 0.  1.
         12    1    3    3    0    0  0.21030405372E+02 -0.24387656850E+02 -0.14584121300E+01  0.32236046946E+02  0.00000000000E+00 0. -1.
</event>
<event>
 7    1  0.5987893E-013  0.5930194E+02  0.7816164E-02  0.1266605E+00
        -11   -1    0    0    0    0  0.00000000000E+00  0.00000000000E+00  0.45593999997E+02  0.45594000000E+02  0.51100000000E-03 0. -1.
         11   -1    0    0    0    0 -0.00000000000E+00 -0.00000000000E+00 -0.45593999997E+02  0.45594000000E+02  0.51100000000E-03 0.  1.
    9900012    2    1    2    0    0  0.22397972733E+02 -0.18093388090E+02  0.13699664828E+02  0.59301942051E+02  0.49999996394E+02 0.  0.
        -12    1    1    2    0    0 -0.22397972733E+02  0.18093388090E+02 -0.13699664828E+02  0.31886057949E+02  0.00000000000E+00 0.  1.
         11    1    3    3    0    0  0.85047951353E+01  0.27470343858E+01  0.20315690148E+02  0.22194706681E+02  0.51100000000E-03 0. -1.
        -11    1    3    3    0    0  0.10281367914E+02 -0.27266830049E+02 -0.52596889143E+01  0.29611667884E+02  0.51100000000E-03 0.  1.
        -12    1    3    3    0    0  0.36118096841E+01  0.64264075734E+01 -0.13563364050E+01  0.74955674861E+01  0.00000000000E+00 0.  1.
</event>
<event>
 7    1  0.5987893E-013  0.5930200E+02  0.7816164E-02  0.1266605E+00
        -11   -1    0    0    0    0  0.00000000000E+00  0.00000000000E+00  0.45593999997E+02  0.45594000000E+02  0.51100000000E-03 0.  1.
         11   -1    0    0    0    0 -0.00000000000E+00 -0.00000000000E+00 -0.45593999997E+02  0.45594000000E+02  0.51100000000E-03 0. -1.
    9900012    2    1    2    0    0  0.50564551885E+01  0.18849525546E+02 -0.25215957648E+02  0.59302001937E+02  0.50000105612E+02 0.  0.
        -12    1    1    2    0    0 -0.50564551885E+01 -0.18849525546E+02  0.25215957648E+02  0.31885998063E+02  0.00000000000E+00 0.  1.
         11    1    3    3    0    0 -0.85262310348E+01 -0.51168923179E+01 -0.11013467631E+02  0.14838317700E+02  0.51100000000E-03 0. -1.
        -11    1    3    3    0    0  0.10965707576E+01  0.91745619170E+01  0.99055667288E+01  0.13546043934E+02  0.51100000000E-03 0.  1.
        -12    1    3    3    0    0  0.12486115466E+02  0.14791855947E+02 -0.24108056746E+02  0.30917640302E+02  0.00000000000E+00 0.  1.
</event>
<event>
 7    1  0.5987893E-013  0.5930197E+02  0.7816164E-02  0.1266605E+00
        -11   -1    0    0    0    0  0.00000000000E+00  0.00000000000E+00  0.45593999997E+02  0.45594000000E+02  0.51100000000E-03 0.  1.
         11   -1    0    0    0    0 -0.00000000000E+00 -0.00000000000E+00 -0.45593999997E+02  0.45594000000E+02  0.51100000000E-03 0. -1.
    9900012    2    1    2    0    0 -0.17569662922E+02  0.13445000395E+02 -0.22962099945E+02  0.59301966620E+02  0.50000041203E+02 0.  0.
        -12    1    1    2    0    0  0.17569662922E+02 -0.13445000395E+02  0.22962099945E+02  0.31886033380E+02  0.00000000000E+00 0.  1.
         11    1    3    3    0    0 -0.37236611836E+01  0.16013130052E+02  0.78836443982E+01  0.18232877884E+02  0.51100000000E-03 0. -1.
        -11    1    3    3    0    0 -0.19002427398E+02 -0.10828615652E+00 -0.29674005787E+02  0.35237062769E+02  0.51100000000E-03 0.  1.
        -12    1    3    3    0    0  0.51564256599E+01 -0.24598435008E+01 -0.11717385567E+01  0.58320259670E+01  0.00000000000E+00 0.  1.
</event>
<event>
 7    1  0.5987893E-013  0.5930195E+02  0.7816164E-02  0.1266605E+00
        -11   -1    0    0    0    0  0.00000000000E+00  0.00000000000E+00  0.45593999997E+02  0.45594000000E+02  0.51100000000E-03 0.  1.
         11   -1    0    0    0    0 -0.00000000000E+00 -0.00000000000E+00 -0.45593999997E+02  0.45594000000E+02  0.51100000000E-03 0. -1.
    9900012    2    1    2    0    0 -0.10213831126E+02  0.30085115260E+02 -0.26987953036E+01  0.59301952854E+02  0.50000016097E+02 0.  0.
        -12    1    1    2    0    0  0.10213831126E+02 -0.30085115260E+02  0.26987953036E+01  0.31886047146E+02  0.00000000000E+00 0.  1.
         11    1    3    3    0    0 -0.11443789391E+02 -0.10629136691E+02  0.26867984118E+01  0.15847957231E+02  0.51100000000E-03 0. -1.
        -11    1    3    3    0    0  0.47229087158E+01  0.12506151146E+02  0.32309065319E+01  0.13753124754E+02  0.51100000000E-03 0.  1.
         12    1    3    3    0    0 -0.34929504507E+01  0.28208100805E+02 -0.86165002473E+01  0.29700870870E+02  0.00000000000E+00 0. -1.
</event>
<event>
 7    1  0.5987893E-013  0.5930196E+02  0.7816164E-02  0.1266605E+00
        -11   -1    0    0    0    0  0.00000000000E+00  0.00000000000E+00  0.45593999997E+02  0.45594000000E+02  0.51100000000E-03 0.  1.
         11   -1    0    0    0    0 -0.00000000000E+00 -0.00000000000E+00 -0.45593999997E+02  0.45594000000E+02  0.51100000000E-03 0. -1.
    9900012    2    1    2    0    0 -0.23644085642E+02 -0.21331767163E+02 -0.16225594374E+01  0.59301956419E+02  0.50000022598E+02 0.  0.
        -12    1    1    2    0    0  0.23644085642E+02  0.21331767163E+02  0.16225594374E+01  0.31886043581E+02  0.00000000000E+00 0.  1.
         11    1    3    3    0    0 -0.85570088754E+01 -0.83415553404E+01 -0.14018621352E+02  0.18420795077E+02  0.51100000000E-03 0. -1.
        -11    1    3    3    0    0  0.94127090485E+00 -0.20806666307E+02  0.91778297666E+01  0.22760402308E+02  0.51100000000E-03 0.  1.
        -12    1    3    3    0    0 -0.16028347672E+02  0.78164544845E+01  0.32182321484E+01  0.18120759034E+02  0.00000000000E+00 0.  1.
</event>
<event>
 7    1  0.5987893E-013  0.5930203E+02  0.7816164E-02  0.1266604E+00
        -11   -1    0    0    0    0  0.00000000000E+00  0.00000000000E+00  0.45593999997E+02  0.45594000000E+02  0.51100000000E-03 0.  1.
         11   -1    0    0    0    0 -0.00000000000E+00 -0.00000000000E+00 -0.45593999997E+02  0.45594000000E+02  0.51100000000E-03 0. -1.
    9900012    2    1    2    0    0  0.11031116757E+02  0.25778950135E+02 -0.15181410143E+02  0.59302030971E+02  0.50000158564E+02 0.  0.
        -12    1    1    2    0    0 -0.11031116757E+02 -0.25778950135E+02  0.15181410143E+02  0.31885969029E+02  0.00000000000E+00 0.  1.
         11    1    3    3    0    0 -0.31566912180E+01 -0.34962220728E+01  0.95698291939E+00  0.48066708643E+01  0.51100000000E-03 0. -1.
        -11    1    3    3    0    0  0.23286549880E+02  0.16297474860E+02  0.41773239104E+01  0.28728402800E+02  0.51100000000E-03 0.  1.
        -12    1    3    3    0    0 -0.90987419055E+01  0.12977697348E+02 -0.20315716973E+02  0.25766957307E+02  0.00000000000E+00 0.  1.
</event>
<event>
 7    1  0.5987893E-013  0.5930178E+02  0.7816164E-02  0.1266605E+00
        -11   -1    0    0    0    0  0.00000000000E+00  0.00000000000E+00  0.45593999997E+02  0.45594000000E+02  0.51100000000E-03 0.  1.
         11   -1    0    0    0    0 -0.00000000000E+00 -0.00000000000E+00 -0.45593999997E+02  0.45594000000E+02  0.51100000000E-03 0. -1.
    9900012    2    1    2    0    0  0.15370462274E+02 -0.27313875457E+02  0.58678756654E+01  0.59301782479E+02  0.49999705373E+02 0.  0.
        -12    1    1    2    0    0 -0.15370462274E+02  0.27313875457E+02 -0.58678756654E+01  0.31886217521E+02  0.00000000000E+00 0.  1.
         11    1    3    3    0    0  0.16944182341E+02 -0.12946650276E+02  0.13709082728E+01  0.21368211397E+02  0.51100000000E-03 0. -1.
        -11    1    3    3    0    0 -0.14281504638E+02  0.44494793237E+01  0.16134752526E+01  0.15045349568E+02  0.51100000000E-03 0.  1.
        -12    1    3    3    0    0  0.12707784572E+02 -0.18816704505E+02  0.28834921400E+01  0.22888221513E+02  0.00000000000E+00 0.  1.
</event>
<event>
 7    1  0.7653299E-013  0.5930194E+02  0.7816164E-02  0.1266605E+00
        -11   -1    0    0    0    0  0.00000000000E+00  0.00000000000E+00  0.45593999997E+02  0.45594000000E+02  0.51100000000E-03 0. -1.
         11   -1    0    0    0    0 -0.00000000000E+00 -0.00000000000E+00 -0.45593999997E+02  0.45594000000E+02  0.51100000000E-03 0.  1.
    9900012    2    1    2    0    0 -0.19817784008E+02 -0.11996989843E+02  0.21910006380E+02  0.59301941795E+02  0.49999995927E+02 0.  0.
        -12    1    1    2    0    0  0.19817784008E+02  0.11996989843E+02 -0.21910006380E+02  0.31886058205E+02  0.00000000000E+00 0.  1.
         11    1    3    3    0    0 -0.15595092627E+02  0.85625714800E+01  0.91168864315E+01  0.19991052070E+02  0.51100000000E-03 0. -1.
        -11    1    3    3    0    0 -0.11149089099E+02 -0.24943313366E+02  0.14510494349E+02  0.30935829000E+02  0.51100000000E-03 0.  1.
        -12    1    3    3    0    0  0.69263977177E+01  0.43837520429E+01 -0.17173743998E+01  0.83750607250E+01  0.00000000000E+00 0.  1.
</event>
<event>
 7    1  0.7929054E-013  0.5930194E+02  0.7816164E-02  0.1266605E+00
        -11   -1    0    0    0    0  0.00000000000E+00  0.00000000000E+00  0.45593999997E+02  0.45594000000E+02  0.51100000000E-03 0. -1.
         11   -1    0    0    0    0 -0.00000000000E+00 -0.00000000000E+00 -0.45593999997E+02  0.45594000000E+02  0.51100000000E-03 0.  1.
    9900012    2    1    2    0    0 -0.11514222551E+02  0.64059953741E+00  0.29727645339E+02  0.59301943704E+02  0.49999999409E+02 0.  0.
        -12    1    1    2    0    0  0.11514222551E+02 -0.64059953741E+00 -0.29727645339E+02  0.31886056296E+02  0.00000000000E+00 0.  1.
         11    1    3    3    0    0 -0.11039563343E+02 -0.48457714405E+01  0.29028666631E+02  0.31432736856E+02  0.51100000000E-03 0. -1.
        -11    1    3    3    0    0  0.44358251670E+01 -0.95772442247E+01 -0.40870858944E+01  0.11318322456E+02  0.51100000000E-03 0.  1.
        -12    1    3    3    0    0 -0.49104843747E+01  0.15063615203E+02  0.47860646028E+01  0.16550884392E+02  0.00000000000E+00 0.  1.
</event>
<event>
 7    1  0.5987893E-013  0.5930193E+02  0.7816164E-02  0.1266605E+00
        -11   -1    0    0    0    0  0.00000000000E+00  0.00000000000E+00  0.45593999997E+02  0.45594000000E+02  0.51100000000E-03 0.  1.
         11   -1    0    0    0    0 -0.00000000000E+00 -0.00000000000E+00 -0.45593999997E+02  0.45594000000E+02  0.51100000000E-03 0. -1.
    9900012    2    1    2    0    0  0.14119399379E+02  0.22621977719E+02  0.17481714926E+02  0.59301926684E+02  0.49999968370E+02 0.  0.
        -12    1    1    2    0    0 -0.14119399379E+02 -0.22621977719E+02 -0.17481714926E+02  0.31886073316E+02  0.00000000000E+00 0.  1.
         11    1    3    3    0    0  0.18035078994E+02  0.80801952029E+01  0.23818252169E+02  0.30949358079E+02  0.51100000000E-03 0.  1.
        -11    1    3    3    0    0 -0.51407427684E+01 -0.52054051613E+01  0.70931045276E+00  0.73502789528E+01  0.51100000000E-03 0. -1.
         12    1    3    3    0    0  0.12250631537E+01  0.19747187677E+02 -0.70458476960E+01  0.21002289653E+02  0.00000000000E+00 0. -1.
</event>
<event>
 7    1  0.5987893E-013  0.5930195E+02  0.7816164E-02  0.1266605E+00
        -11   -1    0    0    0    0  0.00000000000E+00  0.00000000000E+00  0.45593999997E+02  0.45594000000E+02  0.51100000000E-03 0.  1.
         11   -1    0    0    0    0 -0.00000000000E+00 -0.00000000000E+00 -0.45593999997E+02  0.45594000000E+02  0.51100000000E-03 0. -1.
    9900012    2    1    2    0    0 -0.57229038920E+00  0.12175991648E+02 -0.29464176672E+02  0.59301952960E+02  0.50000016289E+02 0.  0.
        -12    1    1    2    0    0  0.57229038920E+00 -0.12175991648E+02  0.29464176672E+02  0.31886047040E+02  0.00000000000E+00 0.  1.
         11    1    3    3    0    0  0.55000583660E+01  0.63432065058E+01 -0.36995702710E+02  0.37936380034E+02  0.51100000000E-03 0. -1.
        -11    1    3    3    0    0 -0.14298348504E+01  0.30531380704E+01  0.13143992833E+02  0.13569474111E+02  0.51100000000E-03 0.  1.
        -12    1    3    3    0    0 -0.46425139048E+01  0.27796470717E+01 -0.56124667960E+01  0.77960988152E+01  0.00000000000E+00 0.  1.
</event>
<event>
 7    1  0.5987893E-013  0.5930200E+02  0.7816164E-02  0.1266605E+00
        -11   -1    0    0    0    0  0.00000000000E+00  0.00000000000E+00  0.45593999997E+02  0.45594000000E+02  0.51100000000E-03 0. -1.
         11   -1    0    0    0    0 -0.00000000000E+00 -0.00000000000E+00 -0.45593999997E+02  0.45594000000E+02  0.51100000000E-03 0.  1.
    9900012    2    1    2    0    0 -0.34772643848E+01  0.18149422620E+02  0.25985076895E+02  0.59301997894E+02  0.50000098240E+02 0.  0.
        -12    1    1    2    0    0  0.34772643848E+01 -0.18149422620E+02 -0.25985076895E+02  0.31886002106E+02  0.00000000000E+00 0.  1.
         11    1    3    3    0    0 -0.35887232792E+01  0.25410554576E+02  0.31941304092E+02  0.40973431953E+02  0.51100000000E-03 0. -1.
        -11    1    3    3    0    0  0.22112760136E+01 -0.14984650617E+01 -0.10410966265E+02  0.10748179287E+02  0.51100000000E-03 0.  1.
        -12    1    3    3    0    0 -0.20998171192E+01 -0.57626668948E+01  0.44547390679E+01  0.75803866549E+01  0.00000000000E+00 0.  1.
</event>
<event>
 7    1  0.5987893E-013  0.5930193E+02  0.7816164E-02  0.1266605E+00
        -11   -1    0    0    0    0  0.00000000000E+00  0.00000000000E+00  0.45593999997E+02  0.45594000000E+02  0.51100000000E-03 0.  1.
         11   -1    0    0    0    0 -0.00000000000E+00 -0.00000000000E+00 -0.45593999997E+02  0.45594000000E+02  0.51100000000E-03 0. -1.
    9900012    2    1    2    0    0  0.23919076636E+02  0.61675132742E+01 -0.20163357443E+02  0.59301930464E+02  0.49999975262E+02 0.  0.
        -12    1    1    2    0    0 -0.23919076636E+02 -0.61675132742E+01  0.20163357443E+02  0.31886069536E+02  0.00000000000E+00 0.  1.
         11    1    3    3    0    0  0.20767213115E+02 -0.10969352714E+02 -0.13626363066E+02  0.27152930048E+02  0.51100000000E-03 0. -1.
        -11    1    3    3    0    0 -0.10398808658E+02  0.88872201576E+01 -0.85896732651E+01  0.16152411297E+02  0.51100000000E-03 0.  1.
         12    1    3    3    0    0  0.13550672178E+02  0.82496458302E+01  0.20526788883E+01  0.15996589118E+02  0.00000000000E+00 0. -1.
</event>
<event>
 7    1  0.5987893E-013  0.5930191E+02  0.7816164E-02  0.1266605E+00
        -11   -1    0    0    0    0  0.00000000000E+00  0.00000000000E+00  0.45593999997E+02  0.45594000000E+02  0.51100000000E-03 0. -1.
         11   -1    0    0    0    0 -0.00000000000E+00 -0.00000000000E+00 -0.45593999997E+02  0.45594000000E+02  0.51100000000E-03 0.  1.
    9900012    2    1    2    0    0 -0.53454186369E+01  0.49883711810E+01  0.31036516536E+02  0.59301910461E+02  0.49999938782E+02 0.  0.
        -12    1    1    2    0    0  0.53454186369E+01 -0.49883711810E+01 -0.31036516536E+02  0.31886089539E+02  0.00000000000E+00 0.  1.
         11    1    3    3    0    0  0.88073694922E+00  0.15219403794E+02  0.36993975353E+02  0.40012000226E+02  0.51100000000E-03 0. -1.
        -11    1    3    3    0    0  0.46450433595E+00  0.10409241512E+01 -0.60752865238E+01  0.61812938754E+01  0.51100000000E-03 0.  1.
         12    1    3    3    0    0 -0.66906599221E+01 -0.11271956764E+02  0.11782770619E+00  0.13108616359E+02  0.00000000000E+00 0. -1.
</event>
<event>
 7    1  0.5987893E-013  0.5930196E+02  0.7816164E-02  0.1266605E+00
        -11   -1    0    0    0    0  0.00000000000E+00  0.00000000000E+00  0.45593999997E+02  0.45594000000E+02  0.51100000000E-03 0.  1.
         11   -1    0    0    0    0 -0.00000000000E+00 -0.00000000000E+00 -0.45593999997E+02  0.45594000000E+02  0.51100000000E-03 0. -1.
    9900012    2    1    2    0    0 -0.20535394365E+02 -0.15626438617E+02 -0.18730492396E+02  0.59301963073E+02  0.50000034733E+02 0.  0.
        -12    1    1    2    0    0  0.20535394365E+02  0.15626438617E+02  0.18730492396E+02  0.31886036927E+02  0.00000000000E+00 0.  1.
         11    1    3    3    0    0 -0.27835376802E+02 -0.47976768702E+01 -0.22852972023E+02  0.36332963485E+02  0.51100000000E-03 0. -1.
        -11    1    3    3    0    0 -0.11514103953E+01 -0.13012967478E+02  0.54209125078E+01  0.14143880696E+02  0.51100000000E-03 0.  1.
         12    1    3    3    0    0  0.84513928331E+01  0.21842057309E+01 -0.12984328807E+01  0.88251188910E+01  0.00000000000E+00 0. -1.
</event>
<event>
 7    1  0.5987893E-013  0.5930193E+02  0.7816164E-02  0.1266605E+00
        -11   -1    0    0    0    0  0.00000000000E+00  0.00000000000E+00  0.45593999997E+02  0.45594000000E+02  0.51100000000E-03 0.  1.
         11   -1    0    0    0    0 -0.00000000000E+00 -0.00000000000E+00 -0.45593999997E+02  0.45594000000E+02  0.51100000000E-03 0. -1.
    9900012    2    1    2    0    0 -0.16572656749E+02  0.27199729777E+02  0.14977185084E+01  0.59301930747E+02  0.49999975779E+02 0.  0.
        -12    1    1    2    0    0  0.16572656749E+02 -0.27199729777E+02 -0.14977185084E+01  0.31886069253E+02  0.00000000000E+00 0.  1.
         11    1    3    3    0    0 -0.29973344438E+01  0.41989270768E+01 -0.16740416854E+02  0.17517321687E+02  0.51100000000E-03 0. -1.
        -11    1    3    3    0    0  0.53406867448E+01  0.51791136618E+00  0.98701023021E+01  0.11234326273E+02  0.51100000000E-03 0.  1.
         12    1    3    3    0    0 -0.18916009050E+02  0.22482891334E+02  0.83680330603E+01  0.30550282788E+02  0.00000000000E+00 0. -1.
</event>
<event>
 7    1  0.5987893E-013  0.5930191E+02  0.7816164E-02  0.1266605E+00
        -11   -1    0    0    0    0  0.00000000000E+00  0.00000000000E+00  0.45593999997E+02  0.45594000000E+02  0.51100000000E-03 0.  1.
         11   -1    0    0    0    0 -0.00000000000E+00 -0.00000000000E+00 -0.45593999997E+02  0.45594000000E+02  0.51100000000E-03 0. -1.
    9900012    2    1    2    0    0 -0.11092383774E+02  0.10414121979E+02 -0.28021911811E+02  0.59301914383E+02  0.49999945936E+02 0.  0.
        -12    1    1    2    0    0  0.11092383774E+02 -0.10414121979E+02  0.28021911811E+02  0.31886085617E+02  0.00000000000E+00 0.  1.
         11    1    3    3    0    0 -0.86393846962E+01  0.13649348266E+02 -0.29058629939E+02  0.33246769019E+02  0.51100000000E-03 0. -1.
        -11    1    3    3    0    0  0.64423486445E+01 -0.90384379869E+01  0.77075040837E+01  0.13513061709E+02  0.51100000000E-03 0.  1.
        -12    1    3    3    0    0 -0.88953477223E+01  0.58032117006E+01 -0.66707859564E+01  0.12542083655E+02  0.00000000000E+00 0.  1.
</event>
<event>
 7    1  0.5987893E-013  0.5930194E+02  0.7816164E-02  0.1266605E+00
        -11   -1    0    0    0    0  0.00000000000E+00  0.00000000000E+00  0.45593999997E+02  0.45594000000E+02  0.51100000000E-03 0. -1.
         11   -1    0    0    0    0 -0.00000000000E+00 -0.00000000000E+00 -0.45593999997E+02  0.45594000000E+02  0.51100000000E-03 0.  1.
    9900012    2    1    2    0    0  0.16462926545E+02 -0.10392674627E+02  0.25252430151E+02  0.59301939333E+02  0.49999991438E+02 0.  0.
        -12    1    1    2    0    0 -0.16462926545E+02  0.10392674627E+02 -0.25252430151E+02  0.31886060667E+02  0.00000000000E+00 0.  1.
         11    1    3    3    0    0  0.27430227826E+02 -0.68766610331E+01  0.10481016276E+02  0.30158872127E+02  0.51100000000E-03 0. -1.
        -11    1    3    3    0    0 -0.45139661288E+01 -0.17408813702E+01  0.20045934470E+02  0.20621494786E+02  0.51100000000E-03 0.  1.
        -12    1    3    3    0    0 -0.64533351517E+01 -0.17751322237E+01 -0.52745205961E+01  0.85215724201E+01  0.00000000000E+00 0.  1.
</event>
<event>
 7    1  0.5987893E-013  0.5930191E+02  0.7816164E-02  0.1266605E+00
        -11   -1    0    0    0    0  0.00000000000E+00  0.00000000000E+00  0.45593999997E+02  0.45594000000E+02  0.51100000000E-03 0.  1.
         11   -1    0    0    0    0 -0.00000000000E+00 -0.00000000000E+00 -0.45593999997E+02  0.45594000000E+02  0.51100000000E-03 0. -1.
    9900012    2    1    2    0    0  0.19226027638E+02 -0.19846519088E+02 -0.15912202166E+02  0.59301911553E+02  0.49999940774E+02 0.  0.
        -12    1    1    2    0    0 -0.19226027638E+02  0.19846519088E+02  0.15912202166E+02  0.31886088447E+02  0.00000000000E+00 0.  1.
         11    1    3    3    0    0  0.68331459935E+01 -0.24150589255E+02 -0.28071053003E+02  0.37655369637E+02  0.51100000000E-03 0. -1.
        -11    1    3    3    0    0 -0.26730961248E-01  0.53162048324E+01  0.48748877151E+01  0.72129937516E+01  0.51100000000E-03 0.  1.
         12    1    3    3    0    0  0.12419612606E+02 -0.10121346655E+01  0.72839631219E+01  0.14433548165E+02  0.00000000000E+00 0. -1.
</event>
<event>
 7    1  0.5987893E-013  0.5930194E+02  0.7816164E-02  0.1266605E+00
        -11   -1    0    0    0    0  0.00000000000E+00  0.00000000000E+00  0.45593999997E+02  0.45594000000E+02  0.51100000000E-03 0. -1.
         11   -1    0    0    0    0 -0.00000000000E+00 -0.00000000000E+00 -0.45593999997E+02  0.45594000000E+02  0.51100000000E-03 0.  1.
    9900012    2    1    2    0    0  0.22987455599E+02  0.21867148685E+02 -0.31820911712E+01  0.59301937045E+02  0.49999987266E+02 0.  0.
        -12    1    1    2    0    0 -0.22987455599E+02 -0.21867148685E+02  0.31820911712E+01  0.31886062955E+02  0.00000000000E+00 0.  1.
         11    1    3    3    0    0 -0.12414322993E+02  0.91710507164E+01 -0.51537820109E+01  0.16272217301E+02  0.51100000000E-03 0. -1.
        -11    1    3    3    0    0  0.79483170864E+01 -0.34514924914E+01 -0.55669432695E+01  0.10299485548E+02  0.51100000000E-03 0.  1.
         12    1    3    3    0    0  0.27453461506E+02  0.16147590460E+02  0.75386341092E+01  0.32730234196E+02  0.00000000000E+00 0. -1.
</event>
<event>
 7    1  0.5987893E-013  0.5930184E+02  0.7816164E-02  0.1266605E+00
        -11   -1    0    0    0    0  0.00000000000E+00  0.00000000000E+00  0.45593999997E+02  0.45594000000E+02  0.51100000000E-03 0. -1.
         11   -1    0    0    0    0 -0.00000000000E+00 -0.00000000000E+00 -0.45593999997E+02  0.45594000000E+02  0.51100000000E-03 0.  1.
    9900012    2    1    2    0    0 -0.54677085005E+01  0.76669263466E+01  0.30463905807E+02  0.59301840732E+02  0.49999811612E+02 0.  0.
        -12    1    1    2    0    0  0.54677085005E+01 -0.76669263466E+01 -0.30463905807E+02  0.31886159268E+02  0.00000000000E+00 0.  1.
         11    1    3    3    0    0  0.79120735281E+01 -0.48480811969E+01  0.24939248493E+02  0.26609601922E+02  0.51100000000E-03 0. -1.
        -11    1    3    3    0    0 -0.29723920224E+01  0.47336846382E+01 -0.10599810326E+02  0.11983274335E+02  0.51100000000E-03 0.  1.
        -12    1    3    3    0    0 -0.10407390006E+02  0.77813229053E+01  0.16124467641E+02  0.20708964474E+02  0.00000000000E+00 0.  1.
</event>
<event>
 7    1  0.5987893E-013  0.5930194E+02  0.7816164E-02  0.1266605E+00
        -11   -1    0    0    0    0  0.00000000000E+00  0.00000000000E+00  0.45593999997E+02  0.45594000000E+02  0.51100000000E-03 0. -1.
         11   -1    0    0    0    0 -0.00000000000E+00 -0.00000000000E+00 -0.45593999997E+02  0.45594000000E+02  0.51100000000E-03 0.  1.
    9900012    2    1    2    0    0  0.19481480390E+01 -0.30286607824E+02 -0.97799212720E+01  0.59301941066E+02  0.49999994599E+02 0.  0.
        -12    1    1    2    0    0 -0.19481480390E+01  0.30286607824E+02  0.97799212720E+01  0.31886058934E+02  0.00000000000E+00 0.  1.
         11    1    3    3    0    0  0.43155456242E+00 -0.33915785293E+02  0.17826190350E+01  0.33965342075E+02  0.51100000000E-03 0. -1.
        -11    1    3    3    0    0 -0.50317061137E+00  0.12973776729E+02 -0.65753312778E+01  0.14553592166E+02  0.51100000000E-03 0.  1.
        -12    1    3    3    0    0  0.20197640879E+01 -0.93445992595E+01 -0.49872090291E+01  0.10783006825E+02  0.00000000000E+00 0.  1.
</event>
<event>
 7    1  0.5987893E-013  0.5930194E+02  0.7816164E-02  0.1266605E+00
        -11   -1    0    0    0    0  0.00000000000E+00  0.00000000000E+00  0.45593999997E+02  0.45594000000E+02  0.51100000000E-03 0. -1.
         11   -1    0    0    0    0 -0.00000000000E+00 -0.00000000000E+00 -0.45593999997E+02  0.45594000000E+02  0.51100000000E-03 0.  1.
    9900012    2    1    2    0    0 -0.23258927937E+02 -0.15816294373E+02  0.15019594670E+02  0.59301935324E+02  0.49999984126E+02 0.  0.
        -12    1    1    2    0    0  0.23258927937E+02  0.15816294373E+02 -0.15019594670E+02  0.31886064676E+02  0.00000000000E+00 0.  1.
         11    1    3    3    0    0 -0.11802569303E+02  0.41713429497E+01  0.19710179448E+02  0.23349345136E+02  0.51100000000E-03 0. -1.
        -11    1    3    3    0    0 -0.52805556967E+01  0.52457399125E+01 -0.65405993788E+01  0.99086576382E+01  0.51100000000E-03 0.  1.
         12    1    3    3    0    0 -0.61758029378E+01 -0.25233377235E+02  0.18500146003E+01  0.26043932549E+02  0.00000000000E+00 0. -1.
</event>
<event>
 7    1  0.5987893E-013  0.5930198E+02  0.7816164E-02  0.1266605E+00
        -11   -1    0    0    0    0  0.00000000000E+00  0.00000000000E+00  0.45593999997E+02  0.45594000000E+02  0.51100000000E-03 0.  1.
         11   -1    0    0    0    0 -0.00000000000E+00 -0.00000000000E+00 -0.45593999997E+02  0.45594000000E+02  0.51100000000E-03 0. -1.
    9900012    2    1    2    0    0 -0.24258405633E+02 -0.13228956117E+02  0.15913597546E+02  0.59301982521E+02  0.50000070203E+02 0.  0.
        -12    1    1    2    0    0  0.24258405633E+02  0.13228956117E+02 -0.15913597546E+02  0.31886017479E+02  0.00000000000E+00 0.  1.
         11    1    3    3    0    0 -0.20846101995E+01 -0.16377657144E+02  0.13083932333E+02  0.21065672046E+02  0.51100000000E-03 0. -1.
        -11    1    3    3    0    0 -0.29666569775E+02  0.17541803549E+01 -0.94065847809E+00  0.29733270079E+02  0.51100000000E-03 0.  1.
        -12    1    3    3    0    0  0.74927743418E+01  0.13945206720E+01  0.37703236915E+01  0.85030403963E+01  0.00000000000E+00 0.  1.
</event>
<event>
 7    1  0.5987893E-013  0.5930193E+02  0.7816164E-02  0.1266605E+00
        -11   -1    0    0    0    0  0.00000000000E+00  0.00000000000E+00  0.45593999997E+02  0.45594000000E+02  0.51100000000E-03 0.  1.
         11   -1    0    0    0    0 -0.00000000000E+00 -0.00000000000E+00 -0.45593999997E+02  0.45594000000E+02  0.51100000000E-03 0. -1.
    9900012    2    1    2    0    0 -0.20575166068E+02  0.12739178061E+02 -0.20762880647E+02  0.59301932052E+02  0.49999978160E+02 0.  0.
        -12    1    1    2    0    0  0.20575166068E+02 -0.12739178061E+02  0.20762880647E+02  0.31886067948E+02  0.00000000000E+00 0.  1.
         11    1    3    3    0    0  0.27815040719E+00  0.18750174188E+02 -0.41462474303E+01  0.19205149512E+02  0.51100000000E-03 0. -1.
        -11    1    3    3    0    0 -0.13005651183E+02 -0.98370150824E+01  0.47754167079E+01  0.16991716612E+02  0.51100000000E-03 0.  1.
         12    1    3    3    0    0 -0.78476652924E+01  0.38260189544E+01 -0.21392049925E+02  0.23105065929E+02  0.00000000000E+00 0. -1.
</event>
<event>
 7    1  0.5987893E-013  0.5930195E+02  0.7816164E-02  0.1266605E+00
        -11   -1    0    0    0    0  0.00000000000E+00  0.00000000000E+00  0.45593999997E+02  0.45594000000E+02  0.51100000000E-03 0. -1.
         11   -1    0    0    0    0 -0.00000000000E+00 -0.00000000000E+00 -0.45593999997E+02  0.45594000000E+02  0.51100000000E-03 0.  1.
    9900012    2    1    2    0    0  0.22420892518E+01  0.96609208651E+01  0.30304452091E+02  0.59301950187E+02  0.50000011233E+02 0.  0.
        -12    1    1    2    0    0 -0.22420892518E+01 -0.96609208651E+01 -0.30304452091E+02  0.31886049813E+02  0.00000000000E+00 0.  1.
         11    1    3    3    0    0  0.10991302803E+02 -0.11874307344E+02 -0.48593986055E+01  0.16894427107E+02  0.51100000000E-03 0. -1.
        -11    1    3    3    0    0 -0.62207011388E+01  0.99743647147E+01  0.19610714437E+02  0.22864059026E+02  0.51100000000E-03 0.  1.
         12    1    3    3    0    0 -0.25285124120E+01  0.11560863495E+02  0.15553136259E+02  0.19543464054E+02  0.00000000000E+00 0. -1.
</event>
<event>
 7    1  0.5987893E-013  0.5930181E+02  0.7816164E-02  0.1266605E+00
        -11   -1    0    0    0    0  0.00000000000E+00  0.00000000000E+00  0.45593999997E+02  0.45594000000E+02  0.51100000000E-03 0.  1.
         11   -1    0    0    0    0 -0.00000000000E+00 -0.00000000000E+00 -0.45593999997E+02  0.45594000000E+02  0.51100000000E-03 0. -1.
    9900012    2    1    2    0    0 -0.52312560819E+01  0.20792856078E+02 -0.23601278214E+02  0.59301808045E+02  0.49999751999E+02 0.  0.
        -12    1    1    2    0    0  0.52312560819E+01 -0.20792856078E+02  0.23601278214E+02  0.31886191955E+02  0.00000000000E+00 0.  1.
         11    1    3    3    0    0 -0.13112769054E+02  0.40783121910E+01 -0.32182007221E+00  0.13736117028E+02  0.51100000000E-03 0. -1.
        -11    1    3    3    0    0  0.14813736901E+02  0.24460429805E+02 -0.15098923504E+02  0.32337855811E+02  0.51100000000E-03 0.  1.
        -12    1    3    3    0    0 -0.69322239295E+01 -0.77458859178E+01 -0.81805346383E+01  0.13227835206E+02  0.00000000000E+00 0.  1.
</event>
<event>
 7    1  0.5987893E-013  0.5930195E+02  0.7816164E-02  0.1266605E+00
        -11   -1    0    0    0    0  0.00000000000E+00  0.00000000000E+00  0.45593999997E+02  0.45594000000E+02  0.51100000000E-03 0.  1.
         11   -1    0    0    0    0 -0.00000000000E+00 -0.00000000000E+00 -0.45593999997E+02  0.45594000000E+02  0.51100000000E-03 0. -1.
    9900012    2    1    2    0    0  0.14676442949E+02 -0.19983516265E+02 -0.20049471209E+02  0.59301949826E+02  0.50000010574E+02 0.  0.
        -12    1    1    2    0    0 -0.14676442949E+02  0.19983516265E+02  0.20049471209E+02  0.31886050174E+02  0.00000000000E+00 0.  1.
         11    1    3    3    0    0  0.15027952780E+02 -0.11456400952E+02 -0.18858731665E+02  0.26697195504E+02  0.51100000000E-03 0. -1.
        -11    1    3    3    0    0 -0.15891561354E+02 -0.39201524613E+01 -0.92418404207E+00  0.16394006039E+02  0.51100000000E-03 0.  1.
        -12    1    3    3    0    0  0.15540051523E+02 -0.46069628514E+01 -0.26655550263E+00  0.16210748283E+02  0.00000000000E+00 0.  1.
</event>
<event>
 7    1  0.5987893E-013  0.5930194E+02  0.7816164E-02  0.1266605E+00
        -11   -1    0    0    0    0  0.00000000000E+00  0.00000000000E+00  0.45593999997E+02  0.45594000000E+02  0.51100000000E-03 0. -1.
         11   -1    0    0    0    0 -0.00000000000E+00 -0.00000000000E+00 -0.45593999997E+02  0.45594000000E+02  0.51100000000E-03 0.  1.
    9900012    2    1    2    0    0  0.67189708793E+01 -0.12137457334E+02  0.28709903532E+02  0.59301937198E+02  0.49999987544E+02 0.  0.
        -12    1    1    2    0    0 -0.67189708793E+01  0.12137457334E+02 -0.28709903532E+02  0.31886062802E+02  0.00000000000E+00 0.  1.
         11    1    3    3    0    0 -0.12021402057E+02  0.20674452689E+01  0.32327072705E+02  0.34551817134E+02  0.51100000000E-03 0. -1.
        -11    1    3    3    0    0  0.17043009118E+02 -0.13903684516E+02 -0.15371189629E+01  0.22048567706E+02  0.51100000000E-03 0.  1.
         12    1    3    3    0    0  0.16973638176E+01 -0.30121808626E+00 -0.20800502095E+01  0.27015523572E+01  0.00000000000E+00 0. -1.
</event>
<event>
 7    1  0.5987893E-013  0.5930193E+02  0.7816164E-02  0.1266605E+00
        -11   -1    0    0    0    0  0.00000000000E+00  0.00000000000E+00  0.45593999997E+02  0.45594000000E+02  0.51100000000E-03 0. -1.
         11   -1    0    0    0    0 -0.00000000000E+00 -0.00000000000E+00 -0.45593999997E+02  0.45594000000E+02  0.51100000000E-03 0.  1.
    9900012    2    1    2    0    0  0.11149747854E+02  0.19800517992E+01  0.29807452736E+02  0.59301925909E+02  0.49999966955E+02 0.  0.
        -12    1    1    2    0    0 -0.11149747854E+02 -0.19800517992E+01 -0.29807452736E+02  0.31886074091E+02  0.00000000000E+00 0.  1.
         11    1    3    3    0    0  0.16841438773E+02 -0.84185769019E+01  0.62490150196E+00  0.18838710124E+02  0.51100000000E-03 0. -1.
        -11    1    3    3    0    0 -0.61432847485E+01  0.11430323045E+02  0.18503954913E+01  0.13107867719E+02  0.51100000000E-03 0.  1.
         12    1    3    3    0    0  0.45159382999E+00 -0.10316943439E+01  0.27332155743E+02  0.27355348065E+02  0.00000000000E+00 0. -1.
</event>
<event>
 7    1  0.5987893E-013  0.5930200E+02  0.7816164E-02  0.1266605E+00
        -11   -1    0    0    0    0  0.00000000000E+00  0.00000000000E+00  0.45593999997E+02  0.45594000000E+02  0.51100000000E-03 0.  1.
         11   -1    0    0    0    0 -0.00000000000E+00 -0.00000000000E+00 -0.45593999997E+02  0.45594000000E+02  0.51100000000E-03 0. -1.
    9900012    2    1    2    0    0  0.27891479281E+02  0.21131424522E+01  0.15307417050E+02  0.59301999871E+02  0.50000101844E+02 0.  0.
        -12    1    1    2    0    0 -0.27891479281E+02 -0.21131424522E+01 -0.15307417050E+02  0.31886000129E+02  0.00000000000E+00 0.  1.
         11    1    3    3    0    0  0.84319343530E+01  0.13443279533E+02  0.15995843093E+02  0.22531894685E+02  0.51100000000E-03 0. -1.
        -11    1    3    3    0    0  0.96614395245E+01 -0.17537215337E+02  0.87165174119E+01  0.21837468066E+02  0.51100000000E-03 0.  1.
        -12    1    3    3    0    0  0.97981054034E+01  0.62070782559E+01 -0.94049434555E+01  0.14932637121E+02  0.00000000000E+00 0.  1.
</event>
<event>
 7    1  0.5987893E-013  0.5930193E+02  0.7816164E-02  0.1266605E+00
        -11   -1    0    0    0    0  0.00000000000E+00  0.00000000000E+00  0.45593999997E+02  0.45594000000E+02  0.51100000000E-03 0.  1.
         11   -1    0    0    0    0 -0.00000000000E+00 -0.00000000000E+00 -0.45593999997E+02  0.45594000000E+02  0.51100000000E-03 0. -1.
    9900012    2    1    2    0    0 -0.14453721238E+02 -0.21167729873E+02 -0.18966775231E+02  0.59301930812E+02  0.49999975899E+02 0.  0.
        -12    1    1    2    0    0  0.14453721238E+02  0.21167729873E+02  0.18966775231E+02  0.31886069188E+02  0.00000000000E+00 0.  1.
         11    1    3    3    0    0 -0.14102769991E+02 -0.14832395616E+01  0.53172926061E+01  0.15144692864E+02  0.51100000000E-03 0. -1.
        -11    1    3    3    0    0  0.11521327781E+02 -0.21603982416E+02 -0.19136900381E+02  0.31075617557E+02  0.51100000000E-03 0.  1.
         12    1    3    3    0    0 -0.11872279028E+02  0.19194921053E+01 -0.51471674561E+01  0.13081620392E+02  0.00000000000E+00 0. -1.
</event>
<event>
 7    1  0.5987893E-013  0.5930193E+02  0.7816164E-02  0.1266605E+00
        -11   -1    0    0    0    0  0.00000000000E+00  0.00000000000E+00  0.45593999997E+02  0.45594000000E+02  0.51100000000E-03 0.  1.
         11   -1    0    0    0    0 -0.00000000000E+00 -0.00000000000E+00 -0.45593999997E+02  0.45594000000E+02  0.51100000000E-03 0. -1.
    9900012    2    1    2    0    0 -0.31200689302E+01  0.30355124411E+02 -0.92494753549E+01  0.59301934039E+02  0.49999981782E+02 0.  0.
        -12    1    1    2    0    0  0.31200689302E+01 -0.30355124411E+02  0.92494753549E+01  0.31886065961E+02  0.00000000000E+00 0.  1.
         11    1    3    3    0    0  0.15813917373E+02  0.31419284083E+02  0.16754492140E+01  0.35214464716E+02  0.51100000000E-03 0.  1.
        -11    1    3    3    0    0 -0.17796972948E+02  0.15532542291E+01 -0.11403403948E+02  0.21193925230E+02  0.51100000000E-03 0. -1.
         12    1    3    3    0    0 -0.11370133554E+01 -0.26174139004E+01  0.47847937889E+00  0.28935440920E+01  0.00000000000E+00 0. -1.
</event>
<event>
 7    1  0.5987893E-013  0.5930195E+02  0.7816164E-02  0.1266605E+00
        -11   -1    0    0    0    0  0.00000000000E+00  0.00000000000E+00  0.45593999997E+02  0.45594000000E+02  0.51100000000E-03 0. -1.
         11   -1    0    0    0    0 -0.00000000000E+00 -0.00000000000E+00 -0.45593999997E+02  0.45594000000E+02  0.51100000000E-03 0.  1.
    9900012    2    1    2    0    0 -0.12202698347E+02 -0.28770568513E+02  0.63299631446E+01  0.59301954574E+02  0.50000019234E+02 0.  0.
        -12    1    1    2    0    0  0.12202698347E+02  0.28770568513E+02 -0.63299631446E+01  0.31886045426E+02  0.00000000000E+00 0.  1.
         11    1    3    3    0    0  0.13748942049E+02 -0.24262342254E+02  0.14645846803E+02  0.31499134718E+02  0.51100000000E-03 0. -1.
        -11    1    3    3    0    0 -0.38237131593E+01 -0.17167846704E+01 -0.79929990985E+00  0.42669676043E+01  0.51100000000E-03 0.  1.
         12    1    3    3    0    0 -0.22127927237E+02 -0.27914415881E+01 -0.75165837487E+01  0.23535852252E+02  0.00000000000E+00 0. -1.
</event>
<event>
 7    1  0.7012631E-013  0.5930193E+02  0.7816164E-02  0.1266605E+00
        -11   -1    0    0    0    0  0.00000000000E+00  0.00000000000E+00  0.45593999997E+02  0.45594000000E+02  0.51100000000E-03 0.  1.
         11   -1    0    0    0    0 -0.00000000000E+00 -0.00000000000E+00 -0.45593999997E+02  0.45594000000E+02  0.51100000000E-03 0. -1.
    9900012    2    1    2    0    0 -0.29782330712E+02 -0.12685562523E+01 -0.11319226177E+02  0.59301931900E+02  0.49999977882E+02 0.  0.
        -12    1    1    2    0    0  0.29782330712E+02  0.12685562523E+01  0.11319226177E+02  0.31886068100E+02  0.00000000000E+00 0.  1.
         11    1    3    3    0    0  0.91834276649E+01 -0.42560597204E+01 -0.86787962856E+00  0.10158868211E+02  0.51100000000E-03 0. -1.
        -11    1    3    3    0    0 -0.25995262543E+02  0.14124009243E+02 -0.98329470417E+00  0.29600813849E+02  0.51100000000E-03 0.  1.
         12    1    3    3    0    0 -0.12970495834E+02 -0.11136505775E+02 -0.94680518447E+01  0.19542249840E+02  0.00000000000E+00 0. -1.
</event>
<event>
 7    1  0.5987893E-013  0.5930197E+02  0.7816164E-02  0.1266605E+00
        -11   -1    0    0    0    0  0.00000000000E+00  0.00000000000E+00  0.45593999997E+02  0.45594000000E+02  0.51100000000E-03 0. -1.
         11   -1    0    0    0    0 -0.00000000000E+00 -0.00000000000E+00 -0.45593999997E+02  0.45594000000E+02  0.51100000000E-03 0.  1.
    9900012    2    1    2    0    0 -0.17734509665E+02  0.26430120696E+02 -0.19118155768E+01  0.59301966195E+02  0.50000040427E+02 0.  0.
        -12    1    1    2    0    0  0.17734509665E+02 -0.26430120696E+02  0.19118155768E+01  0.31886033805E+02  0.00000000000E+00 0.  1.
         11    1    3    3    0    0 -0.18395102901E+02  0.26422366563E+02  0.12097272094E+02  0.34392808230E+02  0.51100000000E-03 0. -1.
        -11    1    3    3    0    0 -0.89384980769E+01  0.21119233236E+01 -0.11591422471E+02  0.14789119080E+02  0.51100000000E-03 0.  1.
         12    1    3    3    0    0  0.95990913130E+01 -0.21041691909E+01 -0.24176652005E+01  0.10120038885E+02  0.00000000000E+00 0. -1.
</event>
<event>
 7    1  0.5987893E-013  0.5930190E+02  0.7816164E-02  0.1266605E+00
        -11   -1    0    0    0    0  0.00000000000E+00  0.00000000000E+00  0.45593999997E+02  0.45594000000E+02  0.51100000000E-03 0.  1.
         11   -1    0    0    0    0 -0.00000000000E+00 -0.00000000000E+00 -0.45593999997E+02  0.45594000000E+02  0.51100000000E-03 0. -1.
    9900012    2    1    2    0    0  0.36082570603E+01 -0.18502466041E+02 -0.25716967441E+02  0.59301902983E+02  0.49999925145E+02 0.  0.
        -12    1    1    2    0    0 -0.36082570603E+01  0.18502466041E+02  0.25716967441E+02  0.31886097017E+02  0.00000000000E+00 0.  1.
         11    1    3    3    0    0 -0.90103288523E+01 -0.92541606001E+01 -0.14153204332E+01  0.12993407814E+02  0.51100000000E-03 0. -1.
        -11    1    3    3    0    0  0.11534285755E+02  0.11948541247E+02 -0.43247704169E+01  0.17161323528E+02  0.51100000000E-03 0.  1.
        -12    1    3    3    0    0  0.10843001574E+01 -0.21196846688E+02 -0.19976876591E+02  0.29147171641E+02  0.00000000000E+00 0.  1.
</event>
<event>
 7    1  0.5987893E-013  0.5930195E+02  0.7816164E-02  0.1266605E+00
        -11   -1    0    0    0    0  0.00000000000E+00  0.00000000000E+00  0.45593999997E+02  0.45594000000E+02  0.51100000000E-03 0.  1.
         11   -1    0    0    0    0 -0.00000000000E+00 -0.00000000000E+00 -0.45593999997E+02  0.45594000000E+02  0.51100000000E-03 0. -1.
    9900012    2    1    2    0    0  0.24028884567E+02  0.20935774036E+02  0.10130680541E+01  0.59301949211E+02  0.50000009454E+02 0.  0.
        -12    1    1    2    0    0 -0.24028884567E+02 -0.20935774036E+02 -0.10130680541E+01  0.31886050789E+02  0.00000000000E+00 0.  1.
         11    1    3    3    0    0  0.31244646345E+02  0.38493482470E+01  0.86469356063E+01  0.32646820715E+02  0.51100000000E-03 0. -1.
        -11    1    3    3    0    0 -0.45523064394E+01  0.12543924333E+02  0.39615681192E+01  0.13920041444E+02  0.51100000000E-03 0.  1.
         12    1    3    3    0    0 -0.26634553387E+01  0.45425014561E+01 -0.11595435671E+02  0.12735087052E+02  0.00000000000E+00 0. -1.
</event>
<event>
 7    1  0.5987893E-013  0.5930193E+02  0.7816164E-02  0.1266605E+00
        -11   -1    0    0    0    0  0.00000000000E+00  0.00000000000E+00  0.45593999997E+02  0.45594000000E+02  0.51100000000E-03 0.  1.
         11   -1    0    0    0    0 -0.00000000000E+00 -0.00000000000E+00 -0.45593999997E+02  0.45594000000E+02  0.51100000000E-03 0. -1.
    9900012    2    1    2    0    0 -0.13810715589E+02 -0.14723805057E+02 -0.24681883320E+02  0.59301926791E+02  0.49999968564E+02 0.  0.
        -12    1    1    2    0    0  0.13810715589E+02  0.14723805057E+02  0.24681883320E+02  0.31886073209E+02  0.00000000000E+00 0.  1.
         11    1    3    3    0    0 -0.81973066554E+00 -0.18853195591E+02  0.18034909029E+01  0.18956991377E+02  0.51100000000E-03 0.  1.
        -11    1    3    3    0    0 -0.20812045353E+02  0.72117092341E+01 -0.18988043012E+02  0.29080848673E+02  0.51100000000E-03 0. -1.
         12    1    3    3    0    0  0.78210604295E+01 -0.30823187001E+01 -0.74973312109E+01  0.11264086741E+02  0.00000000000E+00 0. -1.
</event>
<event>
 7    1  0.5987893E-013  0.5930197E+02  0.7816164E-02  0.1266605E+00
        -11   -1    0    0    0    0  0.00000000000E+00  0.00000000000E+00  0.45593999997E+02  0.45594000000E+02  0.51100000000E-03 0.  1.
         11   -1    0    0    0    0 -0.00000000000E+00 -0.00000000000E+00 -0.45593999997E+02  0.45594000000E+02  0.51100000000E-03 0. -1.
    9900012    2    1    2    0    0 -0.73671657225E+01 -0.17668580293E+02 -0.25500299818E+02  0.59301966205E+02  0.50000040446E+02 0.  0.
        -12    1    1    2    0    0  0.73671657225E+01  0.17668580293E+02  0.25500299818E+02  0.31886033795E+02  0.00000000000E+00 0.  1.
         11    1    3    3    0    0 -0.41256570119E+01  0.61988048908E+01 -0.40132953346E+01  0.84588868983E+01  0.51100000000E-03 0. -1.
        -11    1    3    3    0    0  0.11581844795E+02 -0.10867656473E+02 -0.26138788789E+02  0.30585639860E+02  0.51100000000E-03 0.  1.
        -12    1    3    3    0    0 -0.14823353505E+02 -0.12999728711E+02  0.46517843052E+01  0.20257439446E+02  0.00000000000E+00 0.  1.
</event>
<event>
 7    1  0.5987893E-013  0.5930194E+02  0.7816164E-02  0.1266605E+00
        -11   -1    0    0    0    0  0.00000000000E+00  0.00000000000E+00  0.45593999997E+02  0.45594000000E+02  0.51100000000E-03 0.  1.
         11   -1    0    0    0    0 -0.00000000000E+00 -0.00000000000E+00 -0.45593999997E+02  0.45594000000E+02  0.51100000000E-03 0. -1.
    9900012    2    1    2    0    0  0.23693306009E+02 -0.14500164139E+02 -0.15655460434E+02  0.59301937981E+02  0.49999988972E+02 0.  0.
        -12    1    1    2    0    0 -0.23693306009E+02  0.14500164139E+02  0.15655460434E+02  0.31886062019E+02  0.00000000000E+00 0.  1.
         11    1    3    3    0    0  0.49062480343E+01 -0.19150154131E+00 -0.22983278799E+02  0.23501894546E+02  0.51100000000E-03 0. -1.
        -11    1    3    3    0    0 -0.27617765126E+01 -0.36593223958E+01  0.10593106987E+02  0.11542615206E+02  0.51100000000E-03 0.  1.
        -12    1    3    3    0    0  0.21548834487E+02 -0.10649340202E+02 -0.32652886212E+01  0.24257428229E+02  0.00000000000E+00 0.  1.
</event>
<event>
 7    1  0.5987893E-013  0.5930195E+02  0.7816164E-02  0.1266605E+00
        -11   -1    0    0    0    0  0.00000000000E+00  0.00000000000E+00  0.45593999997E+02  0.45594000000E+02  0.51100000000E-03 0.  1.
         11   -1    0    0    0    0 -0.00000000000E+00 -0.00000000000E+00 -0.45593999997E+02  0.45594000000E+02  0.51100000000E-03 0. -1.
    9900012    2    1    2    0    0  0.78934215407E+01  0.27631374241E+02 -0.13817435715E+02  0.59301945434E+02  0.50000002564E+02 0.  0.
        -12    1    1    2    0    0 -0.78934215407E+01 -0.27631374241E+02  0.13817435715E+02  0.31886054566E+02  0.00000000000E+00 0.  1.
         11    1    3    3    0    0  0.55836320538E+00  0.17277232959E+02 -0.28494356038E+02  0.33327809326E+02  0.51100000000E-03 0. -1.
        -11    1    3    3    0    0  0.76692092334E+01 -0.14830537023E+01  0.98735118869E+00  0.78734415080E+01  0.51100000000E-03 0.  1.
         12    1    3    3    0    0 -0.33415089809E+00  0.11837194985E+02  0.13689569134E+02  0.18100694600E+02  0.00000000000E+00 0. -1.
</event>
<event>
 7    1  0.5987893E-013  0.5930192E+02  0.7816164E-02  0.1266605E+00
        -11   -1    0    0    0    0  0.00000000000E+00  0.00000000000E+00  0.45593999997E+02  0.45594000000E+02  0.51100000000E-03 0.  1.
         11   -1    0    0    0    0 -0.00000000000E+00 -0.00000000000E+00 -0.45593999997E+02  0.45594000000E+02  0.51100000000E-03 0. -1.
    9900012    2    1    2    0    0 -0.41623736341E+01 -0.10375618468E+02 -0.29862074998E+02  0.59301916263E+02  0.49999949364E+02 0.  0.
        -12    1    1    2    0    0  0.41623736341E+01  0.10375618468E+02  0.29862074998E+02  0.31886083737E+02  0.00000000000E+00 0.  1.
         11    1    3    3    0    0  0.37345484168E+00 -0.28947754010E+02 -0.27332116408E+02  0.39814024141E+02  0.51100000000E-03 0. -1.
        -11    1    3    3    0    0 -0.31429372962E+00  0.42383746523E+01  0.37183776332E+00  0.42662470422E+01  0.51100000000E-03 0.  1.
         12    1    3    3    0    0 -0.42215347462E+01  0.14333760890E+02 -0.29017963535E+01  0.15221645080E+02  0.00000000000E+00 0. -1.
</event>
<event>
 7    1  0.5987893E-013  0.5930192E+02  0.7816164E-02  0.1266605E+00
        -11   -1    0    0    0    0  0.00000000000E+00  0.00000000000E+00  0.45593999997E+02  0.45594000000E+02  0.51100000000E-03 0.  1.
         11   -1    0    0    0    0 -0.00000000000E+00 -0.00000000000E+00 -0.45593999997E+02  0.45594000000E+02  0.51100000000E-03 0. -1.
    9900012    2    1    2    0    0  0.10368674753E+02 -0.11271835564E+02 -0.27967099313E+02  0.59301916247E+02  0.49999949335E+02 0.  0.
        -12    1    1    2    0    0 -0.10368674753E+02  0.11271835564E+02  0.27967099313E+02  0.31886083753E+02  0.00000000000E+00 0.  1.
         11    1    3    3    0    0  0.20769328208E+02  0.35169179419E+01 -0.81978681333E+01  0.22603954261E+02  0.51100000000E-03 0. -1.
        -11    1    3    3    0    0 -0.16576119589E+01 -0.20047431323E+02 -0.16398208367E+02  0.25952811369E+02  0.51100000000E-03 0.  1.
         12    1    3    3    0    0 -0.87430414965E+01  0.52586778171E+01 -0.33710228119E+01  0.10745150617E+02  0.00000000000E+00 0. -1.
</event>
<event>
 7    1  0.5987893E-013  0.5930191E+02  0.7816164E-02  0.1266605E+00
        -11   -1    0    0    0    0  0.00000000000E+00  0.00000000000E+00  0.45593999997E+02  0.45594000000E+02  0.51100000000E-03 0. -1.
         11   -1    0    0    0    0 -0.00000000000E+00 -0.00000000000E+00 -0.45593999997E+02  0.45594000000E+02  0.51100000000E-03 0.  1.
    9900012    2    1    2    0    0 -0.11003667255E+02  0.28566270021E+02  0.89224415397E+01  0.59301914649E+02  0.49999946420E+02 0.  0.
        -12    1    1    2    0    0  0.11003667255E+02 -0.28566270021E+02 -0.89224415397E+01  0.31886085351E+02  0.00000000000E+00 0.  1.
         11    1    3    3    0    0  0.26952694606E+01 -0.11996014001E+02 -0.34754725591E+00  0.12299984501E+02  0.51100000000E-03 0. -1.
        -11    1    3    3    0    0  0.26193879373E+01  0.15478798837E+02  0.83091404799E-01  0.15699086312E+02  0.51100000000E-03 0.  1.
         12    1    3    3    0    0 -0.16318324653E+02  0.25083485185E+02  0.91868973908E+01  0.31302843835E+02  0.00000000000E+00 0. -1.
</event>
<event>
 7    1  0.5987893E-013  0.5930196E+02  0.7816164E-02  0.1266605E+00
        -11   -1    0    0    0    0  0.00000000000E+00  0.00000000000E+00  0.45593999997E+02  0.45594000000E+02  0.51100000000E-03 0.  1.
         11   -1    0    0    0    0 -0.00000000000E+00 -0.00000000000E+00 -0.45593999997E+02  0.45594000000E+02  0.51100000000E-03 0. -1.
    9900012    2    1    2    0    0 -0.23407680075E+02 -0.19036894541E+02 -0.10314877363E+02  0.59301960182E+02  0.50000029461E+02 0.  0.
        -12    1    1    2    0    0  0.23407680075E+02  0.19036894541E+02  0.10314877363E+02  0.31886039818E+02  0.00000000000E+00 0.  1.
         11    1    3    3    0    0 -0.12515239945E+02 -0.13654717444E+02 -0.17380355161E+02  0.25399985928E+02  0.51100000000E-03 0. -1.
        -11    1    3    3    0    0 -0.31226299978E+01 -0.74241676652E+01  0.18355862338E+02  0.20045118260E+02  0.51100000000E-03 0.  1.
         12    1    3    3    0    0 -0.77698101325E+01  0.20419905678E+01 -0.11290384540E+02  0.13856855994E+02  0.00000000000E+00 0. -1.
</event>
<event>
 7    1  0.5987893E-013  0.5930194E+02  0.7816164E-02  0.1266605E+00
        -11   -1    0    0    0    0  0.00000000000E+00  0.00000000000E+00  0.45593999997E+02  0.45594000000E+02  0.51100000000E-03 0.  1.
         11   -1    0    0    0    0 -0.00000000000E+00 -0.00000000000E+00 -0.45593999997E+02  0.45594000000E+02  0.51100000000E-03 0. -1.
    9900012    2    1    2    0    0 -0.24911853150E+02  0.14802370036E+02 -0.13304520768E+02  0.59301939427E+02  0.49999991609E+02 0.  0.
        -12    1    1    2    0    0  0.24911853150E+02 -0.14802370036E+02  0.13304520768E+02  0.31886060573E+02  0.00000000000E+00 0.  1.
         11    1    3    3    0    0 -0.49465145107E+01  0.20869150773E+02 -0.20708331601E+02  0.29813159138E+02  0.51100000000E-03 0. -1.
        -11    1    3    3    0    0 -0.12462027779E+02  0.51559148261E+01  0.85045093412E+01  0.15944035670E+02  0.51100000000E-03 0.  1.
         12    1    3    3    0    0 -0.75033108598E+01 -0.11222695564E+02 -0.11006985082E+01  0.13544744619E+02  0.00000000000E+00 0. -1.
</event>
<event>
 7    1  0.5987893E-013  0.5930195E+02  0.7816164E-02  0.1266605E+00
        -11   -1    0    0    0    0  0.00000000000E+00  0.00000000000E+00  0.45593999997E+02  0.45594000000E+02  0.51100000000E-03 0. -1.
         11   -1    0    0    0    0 -0.00000000000E+00 -0.00000000000E+00 -0.45593999997E+02  0.45594000000E+02  0.51100000000E-03 0.  1.
    9900012    2    1    2    0    0 -0.27185332177E+02  0.14833459199E+02  0.75925065390E+01  0.59301953633E+02  0.50000017518E+02 0.  0.
        -12    1    1    2    0    0  0.27185332177E+02 -0.14833459199E+02 -0.75925065390E+01  0.31886046367E+02  0.00000000000E+00 0.  1.
         11    1    3    3    0    0 -0.87977552373E+01  0.40847851355E+01  0.35493642537E+01  0.10328792460E+02  0.51100000000E-03 0. -1.
        -11    1    3    3    0    0 -0.10687881274E+02 -0.15894598908E+02  0.83724279633E+01  0.20903746814E+02  0.51100000000E-03 0.  1.
        -12    1    3    3    0    0 -0.76996956656E+01  0.26643272972E+02 -0.43292856780E+01  0.28069414359E+02  0.00000000000E+00 0.  1.
</event>
<event>
 7    1  0.5987893E-013  0.5930195E+02  0.7816164E-02  0.1266605E+00
        -11   -1    0    0    0    0  0.00000000000E+00  0.00000000000E+00  0.45593999997E+02  0.45594000000E+02  0.51100000000E-03 0. -1.
         11   -1    0    0    0    0 -0.00000000000E+00 -0.00000000000E+00 -0.45593999997E+02  0.45594000000E+02  0.51100000000E-03 0.  1.
    9900012    2    1    2    0    0 -0.18211304618E+02 -0.86473757105E+01 -0.24704079217E+02  0.59301948935E+02  0.50000008949E+02 0.  0.
        -12    1    1    2    0    0  0.18211304618E+02  0.86473757105E+01  0.24704079217E+02  0.31886051065E+02  0.00000000000E+00 0.  1.
         11    1    3    3    0    0 -0.31118467408E+02 -0.45512760691E+01 -0.21779325850E+02  0.38254570478E+02  0.51100000000E-03 0. -1.
        -11    1    3    3    0    0  0.55292388555E+01 -0.47062586877E+01 -0.89338792713E+01  0.11512408621E+02  0.51100000000E-03 0.  1.
         12    1    3    3    0    0  0.73779239344E+01  0.61015904633E+00  0.60091259041E+01  0.95349698361E+01  0.00000000000E+00 0. -1.
</event>
<event>
 7    1  0.5987893E-013  0.5930191E+02  0.7816164E-02  0.1266605E+00
        -11   -1    0    0    0    0  0.00000000000E+00  0.00000000000E+00  0.45593999997E+02  0.45594000000E+02  0.51100000000E-03 0.  1.
         11   -1    0    0    0    0 -0.00000000000E+00 -0.00000000000E+00 -0.45593999997E+02  0.45594000000E+02  0.51100000000E-03 0. -1.
    9900012    2    1    2    0    0  0.15869489133E+02  0.26755822805E+02 -0.70005535789E+01  0.59301913854E+02  0.49999944970E+02 0.  0.
        -12    1    1    2    0    0 -0.15869489133E+02 -0.26755822805E+02  0.70005535789E+01  0.31886086146E+02  0.00000000000E+00 0.  1.
         11    1    3    3    0    0  0.10554627827E+02 -0.39488244727E+01 -0.11126276878E+02  0.15836269154E+02  0.51100000000E-03 0. -1.
        -11    1    3    3    0    0 -0.10127509032E+01  0.35330868322E+02  0.44264446920E+01  0.35621472929E+02  0.51100000000E-03 0.  1.
        -12    1    3    3    0    0  0.63276122084E+01 -0.46262210440E+01 -0.30072139279E+00  0.78441717705E+01  0.00000000000E+00 0.  1.
</event>
<event>
 7    1  0.5987893E-013  0.5930197E+02  0.7816164E-02  0.1266605E+00
        -11   -1    0    0    0    0  0.00000000000E+00  0.00000000000E+00  0.45593999997E+02  0.45594000000E+02  0.51100000000E-03 0. -1.
         11   -1    0    0    0    0 -0.00000000000E+00 -0.00000000000E+00 -0.45593999997E+02  0.45594000000E+02  0.51100000000E-03 0.  1.
    9900012    2    1    2    0    0 -0.62844308275E+01  0.30090680783E+02 -0.84720722240E+01  0.59301966245E+02  0.50000040520E+02 0.  0.
        -12    1    1    2    0    0  0.62844308275E+01 -0.30090680783E+02  0.84720722240E+01  0.31886033755E+02  0.00000000000E+00 0.  1.
         11    1    3    3    0    0 -0.15359261960E+01  0.36407848336E+02 -0.96570293567E+01  0.37698126028E+02  0.51100000000E-03 0. -1.
        -11    1    3    3    0    0  0.19119796868E+01 -0.14774460128E+01  0.95594074167E+01  0.98600600131E+01  0.51100000000E-03 0.  1.
         12    1    3    3    0    0 -0.66604843183E+01 -0.48397215399E+01 -0.83744502839E+01  0.11743780205E+02  0.00000000000E+00 0. -1.
</event>
<event>
 7    1  0.5987893E-013  0.5930194E+02  0.7816164E-02  0.1266605E+00
        -11   -1    0    0    0    0  0.00000000000E+00  0.00000000000E+00  0.45593999997E+02  0.45594000000E+02  0.51100000000E-03 0.  1.
         11   -1    0    0    0    0 -0.00000000000E+00 -0.00000000000E+00 -0.45593999997E+02  0.45594000000E+02  0.51100000000E-03 0. -1.
    9900012    2    1    2    0    0 -0.12997967022E+02  0.19178253799E+02 -0.21908180939E+02  0.59301937880E+02  0.49999988788E+02 0.  0.
        -12    1    1    2    0    0  0.12997967022E+02 -0.19178253799E+02  0.21908180939E+02  0.31886062120E+02  0.00000000000E+00 0.  1.
         11    1    3    3    0    0 -0.11428006615E+02  0.16687162404E+02 -0.30652911111E+01  0.20456215049E+02  0.51100000000E-03 0. -1.
        -11    1    3    3    0    0 -0.10684429149E+02 -0.65507172116E+01 -0.22272971685E+02  0.25556881464E+02  0.51100000000E-03 0.  1.
        -12    1    3    3    0    0  0.91144687416E+01  0.90418086070E+01  0.34300818571E+01  0.13288841367E+02  0.00000000000E+00 0.  1.
</event>
<event>
 7    1  0.5987893E-013  0.5930194E+02  0.7816164E-02  0.1266605E+00
        -11   -1    0    0    0    0  0.00000000000E+00  0.00000000000E+00  0.45593999997E+02  0.45594000000E+02  0.51100000000E-03 0.  1.
         11   -1    0    0    0    0 -0.00000000000E+00 -0.00000000000E+00 -0.45593999997E+02  0.45594000000E+02  0.51100000000E-03 0. -1.
    9900012    2    1    2    0    0 -0.12273242374E+02  0.12616017708E+02 -0.26588052620E+02  0.59301938416E+02  0.49999989766E+02 0.  0.
        -12    1    1    2    0    0  0.12273242374E+02 -0.12616017708E+02  0.26588052620E+02  0.31886061584E+02  0.00000000000E+00 0.  1.
         11    1    3    3    0    0 -0.84145530210E+01 -0.62375113343E+01 -0.29337697837E+02  0.31151432789E+02  0.51100000000E-03 0. -1.
        -11    1    3    3    0    0  0.13050688190E+01 -0.26320621334E+01  0.51439403157E+01  0.59237722719E+01  0.51100000000E-03 0.  1.
         12    1    3    3    0    0 -0.51637581725E+01  0.21485591176E+02 -0.23942950992E+01  0.22226733355E+02  0.00000000000E+00 0. -1.
</event>
<event>
 7    1  0.5987893E-013  0.5930196E+02  0.7816164E-02  0.1266605E+00
        -11   -1    0    0    0    0  0.00000000000E+00  0.00000000000E+00  0.45593999997E+02  0.45594000000E+02  0.51100000000E-03 0. -1.
         11   -1    0    0    0    0 -0.00000000000E+00 -0.00000000000E+00 -0.45593999997E+02  0.45594000000E+02  0.51100000000E-03 0.  1.
    9900012    2    1    2    0    0 -0.21469349816E+02  0.22382964420E+02  0.74019860544E+01  0.59301961123E+02  0.50000031177E+02 0.  0.
        -12    1    1    2    0    0  0.21469349816E+02 -0.22382964420E+02 -0.74019860544E+01  0.31886038877E+02  0.00000000000E+00 0.  1.
         11    1    3    3    0    0  0.15729951940E+00  0.33723191635E+02  0.75200045191E+01  0.34551828684E+02  0.51100000000E-03 0. -1.
        -11    1    3    3    0    0 -0.41076066964E+01 -0.25547721660E+01 -0.16016877323E+01  0.50955566374E+01  0.51100000000E-03 0.  1.
         12    1    3    3    0    0 -0.17519042639E+02 -0.87854550493E+01  0.14836692676E+01  0.19654575801E+02  0.00000000000E+00 0. -1.
</event>
<event>
 7    1  0.5987893E-013  0.5930194E+02  0.7816164E-02  0.1266605E+00
        -11   -1    0    0    0    0  0.00000000000E+00  0.00000000000E+00  0.45593999997E+02  0.45594000000E+02  0.51100000000E-03 0. -1.
         11   -1    0    0    0    0 -0.00000000000E+00 -0.00000000000E+00 -0.45593999997E+02  0.45594000000E+02  0.51100000000E-03 0.  1.
    9900012    2    1    2    0    0 -0.34612582011E+01  0.19785709926E+02  0.24764215444E+02  0.59301937336E+02  0.49999987797E+02 0.  0.
        -12    1    1    2    0    0  0.34612582011E+01 -0.19785709926E+02 -0.24764215444E+02  0.31886062664E+02  0.00000000000E+00 0.  1.
         11    1    3    3    0    0 -0.84095533040E+01  0.32748681592E+02  0.24964371816E+02  0.42028759121E+02  0.51100000000E-03 0. -1.
        -11    1    3    3    0    0  0.37982961442E+01 -0.10670571198E+02 -0.45640712048E+01  0.12211424549E+02  0.51100000000E-03 0.  1.
        -12    1    3    3    0    0  0.11499989587E+01 -0.22924004677E+01  0.43639148333E+01  0.50617536667E+01  0.00000000000E+00 0.  1.
</event>
<event>
 7    1  0.5987893E-013  0.5930194E+02  0.7816164E-02  0.1266605E+00
        -11   -1    0    0    0    0  0.00000000000E+00  0.00000000000E+00  0.45593999997E+02  0.45594000000E+02  0.51100000000E-03 0.  1.
         11   -1    0    0    0    0 -0.00000000000E+00 -0.00000000000E+00 -0.45593999997E+02  0.45594000000E+02  0.51100000000E-03 0. -1.
    9900012    2    1    2    0    0  0.35919133066E+01  0.31697552216E+01 -0.31524144128E+02  0.59301939529E+02  0.49999991796E+02 0.  0.
        -12    1    1    2    0    0 -0.35919133066E+01 -0.31697552216E+01  0.31524144128E+02  0.31886060471E+02  0.00000000000E+00 0.  1.
         11    1    3    3    0    0 -0.17988357010E+02  0.77425364086E+01 -0.31543086806E+02  0.37128078101E+02  0.51100000000E-03 0. -1.
        -11    1    3    3    0    0  0.16378283584E+02 -0.44270474342E+01  0.18788131235E+00  0.16967092320E+02  0.51100000000E-03 0.  1.
         12    1    3    3    0    0  0.52019867319E+01 -0.14573375288E+00 -0.16893863439E+00  0.52067691083E+01  0.00000000000E+00 0. -1.
</event>
<event>
 7    1  0.5987893E-013  0.5930190E+02  0.7816164E-02  0.1266605E+00
        -11   -1    0    0    0    0  0.00000000000E+00  0.00000000000E+00  0.45593999997E+02  0.45594000000E+02  0.51100000000E-03 0.  1.
         11   -1    0    0    0    0 -0.00000000000E+00 -0.00000000000E+00 -0.45593999997E+02  0.45594000000E+02  0.51100000000E-03 0. -1.
    9900012    2    1    2    0    0 -0.17565673930E+02 -0.16121698056E+02 -0.21172179170E+02  0.59301902409E+02  0.49999924097E+02 0.  0.
        -12    1    1    2    0    0  0.17565673930E+02  0.16121698056E+02  0.21172179170E+02  0.31886097591E+02  0.00000000000E+00 0.  1.
         11    1    3    3    0    0 -0.31955824338E+01 -0.27445522374E+02 -0.99191629453E+01  0.29357422218E+02  0.51100000000E-03 0. -1.
        -11    1    3    3    0    0 -0.10638464788E+02  0.16812112897E+02 -0.43436047870E+01  0.20363962677E+02  0.51100000000E-03 0.  1.
        -12    1    3    3    0    0 -0.37316267079E+01 -0.54882885784E+01 -0.69094114376E+01  0.95805175132E+01  0.00000000000E+00 0.  1.
</event>
<event>
 7    1  0.5987893E-013  0.5930214E+02  0.7816164E-02  0.1266604E+00
        -11   -1    0    0    0    0  0.00000000000E+00  0.00000000000E+00  0.45593999997E+02  0.45594000000E+02  0.51100000000E-03 0.  1.
         11   -1    0    0    0    0 -0.00000000000E+00 -0.00000000000E+00 -0.45593999997E+02  0.45594000000E+02  0.51100000000E-03 0. -1.
    9900012    2    1    2    0    0  0.24762280577E+02 -0.15283497580E+02 -0.13036577438E+02  0.59302138103E+02  0.50000353945E+02 0.  0.
        -12    1    1    2    0    0 -0.24762280577E+02  0.15283497580E+02  0.13036577438E+02  0.31885861897E+02  0.00000000000E+00 0.  1.
         11    1    3    3    0    0  0.10977752651E+02 -0.14464871944E+02 -0.17094635977E+02  0.24939329443E+02  0.51100000000E-03 0. -1.
        -11    1    3    3    0    0  0.66362646014E+01 -0.11685689589E+02  0.12905344818E+02  0.18631781293E+02  0.51100000000E-03 0.  1.
        -12    1    3    3    0    0  0.71482633240E+01  0.10867063953E+02 -0.88472862789E+01  0.15731027366E+02  0.00000000000E+00 0.  1.
</event>
<event>
 7    1  0.5987893E-013  0.5930192E+02  0.7816164E-02  0.1266605E+00
        -11   -1    0    0    0    0  0.00000000000E+00  0.00000000000E+00  0.45593999997E+02  0.45594000000E+02  0.51100000000E-03 0. -1.
         11   -1    0    0    0    0 -0.00000000000E+00 -0.00000000000E+00 -0.45593999997E+02  0.45594000000E+02  0.51100000000E-03 0.  1.
    9900012    2    1    2    0    0  0.21699956746E+02 -0.23289945985E+02  0.18471863815E+01  0.59301924602E+02  0.49999964571E+02 0.  0.
        -12    1    1    2    0    0 -0.21699956746E+02  0.23289945985E+02 -0.18471863815E+01  0.31886075398E+02  0.00000000000E+00 0.  1.
         11    1    3    3    0    0  0.10681853467E+02 -0.92537772543E+01  0.82169641639E+01  0.16347871033E+02  0.51100000000E-03 0. -1.
        -11    1    3    3    0    0  0.16971682024E+02 -0.28235782782E+01 -0.18592251083E+02  0.25331450523E+02  0.51100000000E-03 0.  1.
        -12    1    3    3    0    0 -0.59535787451E+01 -0.11212590453E+02  0.12222473300E+02  0.17622603046E+02  0.00000000000E+00 0.  1.
</event>
<event>
 7    1  0.5987893E-013  0.5930197E+02  0.7816164E-02  0.1266605E+00
        -11   -1    0    0    0    0  0.00000000000E+00  0.00000000000E+00  0.45593999997E+02  0.45594000000E+02  0.51100000000E-03 0. -1.
         11   -1    0    0    0    0 -0.00000000000E+00 -0.00000000000E+00 -0.45593999997E+02  0.45594000000E+02  0.51100000000E-03 0.  1.
    9900012    2    1    2    0    0  0.44086868810E+01 -0.31396584306E+02  0.33965874746E+01  0.59301971201E+02  0.50000049557E+02 0.  0.
        -12    1    1    2    0    0 -0.44086868810E+01  0.31396584306E+02 -0.33965874746E+01  0.31886028799E+02  0.00000000000E+00 0.  1.
         11    1    3    3    0    0  0.41747085120E+00 -0.97013002580E+01 -0.18055002624E+02  0.20500551910E+02  0.51100000000E-03 0.  1.
        -11    1    3    3    0    0 -0.63831940863E+01 -0.20218499882E+02  0.17866121550E+02  0.27726002304E+02  0.51100000000E-03 0. -1.
        -12    1    3    3    0    0  0.10374410116E+02 -0.14767841659E+01  0.35854685479E+01  0.11075416987E+02  0.00000000000E+00 0.  1.
</event>
<event>
 7    1  0.5987893E-013  0.5930196E+02  0.7816164E-02  0.1266605E+00
        -11   -1    0    0    0    0  0.00000000000E+00  0.00000000000E+00  0.45593999997E+02  0.45594000000E+02  0.51100000000E-03 0.  1.
         11   -1    0    0    0    0 -0.00000000000E+00 -0.00000000000E+00 -0.45593999997E+02  0.45594000000E+02  0.51100000000E-03 0. -1.
    9900012    2    1    2    0    0 -0.10814619034E+02 -0.85983089062E+01 -0.28737300554E+02  0.59301963181E+02  0.50000034930E+02 0.  0.
        -12    1    1    2    0    0  0.10814619034E+02  0.85983089062E+01  0.28737300554E+02  0.31886036819E+02  0.00000000000E+00 0.  1.
         11    1    3    3    0    0 -0.56727517296E+01  0.15681868037E+02 -0.14545323568E+02  0.22128432735E+02  0.51100000000E-03 0. -1.
        -11    1    3    3    0    0  0.24677549174E+01 -0.16518384118E+02 -0.18991951638E+02  0.25291126022E+02  0.51100000000E-03 0.  1.
        -12    1    3    3    0    0 -0.76096222218E+01 -0.77617928253E+01  0.47999746519E+01  0.11882404423E+02  0.00000000000E+00 0.  1.
</event>
<event>
 7    1  0.5987893E-013  0.5930195E+02  0.7816164E-02  0.1266605E+00
        -11   -1    0    0    0    0  0.00000000000E+00  0.00000000000E+00  0.45593999997E+02  0.45594000000E+02  0.51100000000E-03 0. -1.
         11   -1    0    0    0    0 -0.00000000000E+00 -0.00000000000E+00 -0.45593999997E+02  0.45594000000E+02  0.51100000000E-03 0.  1.
    9900012    2    1    2    0    0 -0.18262727390E+02 -0.24946664795E+02 -0.78010959523E+01  0.59301946714E+02  0.50000004899E+02 0.  0.
        -12    1    1    2    0    0  0.18262727390E+02  0.24946664795E+02  0.78010959523E+01  0.31886053286E+02  0.00000000000E+00 0.  1.
         11    1    3    3    0    0 -0.31764606251E+01  0.11070806503E+01  0.12477436119E+02  0.12922923123E+02  0.51100000000E-03 0. -1.
        -11    1    3    3    0    0 -0.18215994495E+02 -0.27258091304E+02 -0.81319389720E+01  0.33778016944E+02  0.51100000000E-03 0.  1.
        -12    1    3    3    0    0  0.31297277300E+01  0.12043458584E+01 -0.12146593099E+02  0.12601006647E+02  0.00000000000E+00 0.  1.
</event>
<event>
 7    1  0.5987893E-013  0.5930191E+02  0.7816164E-02  0.1266605E+00
        -11   -1    0    0    0    0  0.00000000000E+00  0.00000000000E+00  0.45593999997E+02  0.45594000000E+02  0.51100000000E-03 0. -1.
         11   -1    0    0    0    0 -0.00000000000E+00 -0.00000000000E+00 -0.45593999997E+02  0.45594000000E+02  0.51100000000E-03 0.  1.
    9900012    2    1    2    0    0 -0.22650986049E+02  0.93957612366E+01 -0.20380755823E+02  0.59301910460E+02  0.49999938781E+02 0.  0.
        -12    1    1    2    0    0  0.22650986049E+02 -0.93957612366E+01  0.20380755823E+02  0.31886089540E+02  0.00000000000E+00 0.  1.
         11    1    3    3    0    0  0.10457631833E+02  0.11465011278E+02 -0.95525729281E+01  0.18222518952E+02  0.51100000000E-03 0. -1.
        -11    1    3    3    0    0 -0.29528714649E+02 -0.65067956880E+01 -0.15249076229E+02  0.33864697031E+02  0.51100000000E-03 0.  1.
        -12    1    3    3    0    0 -0.35799032333E+01  0.44375456467E+01  0.44208933338E+01  0.72146944769E+01  0.00000000000E+00 0.  1.
</event>
<event>
 7    1  0.5987893E-013  0.5930191E+02  0.7816164E-02  0.1266605E+00
        -11   -1    0    0    0    0  0.00000000000E+00  0.00000000000E+00  0.45593999997E+02  0.45594000000E+02  0.51100000000E-03 0.  1.
         11   -1    0    0    0    0 -0.00000000000E+00 -0.00000000000E+00 -0.45593999997E+02  0.45594000000E+02  0.51100000000E-03 0. -1.
    9900012    2    1    2    0    0  0.14096272302E+02 -0.24683896969E+02 -0.14447253984E+02  0.59301908831E+02  0.49999935810E+02 0.  0.
        -12    1    1    2    0    0 -0.14096272302E+02  0.24683896969E+02  0.14447253984E+02  0.31886091169E+02  0.00000000000E+00 0.  1.
         11    1    3    3    0    0  0.24002122095E+02 -0.18227009139E+02 -0.13765216969E+02  0.33133169569E+02  0.51100000000E-03 0. -1.
        -11    1    3    3    0    0  0.47559623780E+00  0.45056349320E+01  0.76747109677E+01  0.89122458797E+01  0.51100000000E-03 0.  1.
         12    1    3    3    0    0 -0.10381446031E+02 -0.10962522762E+02 -0.83567479824E+01  0.17256493382E+02  0.00000000000E+00 0. -1.
</event>
<event>
 7    1  0.5987893E-013  0.5930195E+02  0.7816164E-02  0.1266605E+00
        -11   -1    0    0    0    0  0.00000000000E+00  0.00000000000E+00  0.45593999997E+02  0.45594000000E+02  0.51100000000E-03 0. -1.
         11   -1    0    0    0    0 -0.00000000000E+00 -0.00000000000E+00 -0.45593999997E+02  0.45594000000E+02  0.51100000000E-03 0.  1.
    9900012    2    1    2    0    0 -0.19462702432E+02 -0.23747170187E+02 -0.86020515814E+01  0.59301950241E+02  0.50000011332E+02 0.  0.
        -12    1    1    2    0    0  0.19462702432E+02  0.23747170187E+02  0.86020515814E+01  0.31886049759E+02  0.00000000000E+00 0.  1.
         11    1    3    3    0    0  0.13165697624E+01  0.47352974415E+01  0.46367966404E+01  0.67569431805E+01  0.51100000000E-03 0. -1.
        -11    1    3    3    0    0 -0.25507205686E+02 -0.33348202479E+02 -0.16382275776E+02  0.45067716941E+02  0.51100000000E-03 0.  1.
        -12    1    3    3    0    0  0.47279334915E+01  0.48657348505E+01  0.31434275546E+01  0.74772901192E+01  0.00000000000E+00 0.  1.
</event>
<event>
 7    1  0.5987893E-013  0.5930194E+02  0.7816164E-02  0.1266605E+00
        -11   -1    0    0    0    0  0.00000000000E+00  0.00000000000E+00  0.45593999997E+02  0.45594000000E+02  0.51100000000E-03 0.  1.
         11   -1    0    0    0    0 -0.00000000000E+00 -0.00000000000E+00 -0.45593999997E+02  0.45594000000E+02  0.51100000000E-03 0. -1.
    9900012    2    1    2    0    0 -0.30008891526E+02  0.10049785081E+02  0.38973126257E+01  0.59301940405E+02  0.49999993393E+02 0.  0.
        -12    1    1    2    0    0  0.30008891526E+02 -0.10049785081E+02 -0.38973126257E+01  0.31886059595E+02  0.00000000000E+00 0.  1.
         11    1    3    3    0    0 -0.26913143496E+02  0.20476007431E+02 -0.99264181701E+01  0.35243693777E+02  0.51100000000E-03 0. -1.
        -11    1    3    3    0    0  0.66624606607E+01 -0.48376083142E+01  0.76034538028E+01  0.11207289871E+02  0.51100000000E-03 0.  1.
         12    1    3    3    0    0 -0.97582086909E+01 -0.55886140358E+01  0.62202769930E+01  0.12850956757E+02  0.00000000000E+00 0. -1.
</event>
<event>
 7    1  0.5987893E-013  0.5930191E+02  0.7816164E-02  0.1266605E+00
        -11   -1    0    0    0    0  0.00000000000E+00  0.00000000000E+00  0.45593999997E+02  0.45594000000E+02  0.51100000000E-03 0. -1.
         11   -1    0    0    0    0 -0.00000000000E+00 -0.00000000000E+00 -0.45593999997E+02  0.45594000000E+02  0.51100000000E-03 0.  1.
    9900012    2    1    2    0    0 -0.15251626406E+00 -0.31188712633E+02  0.66304911180E+01  0.59301914173E+02  0.49999945553E+02 0.  0.
        -12    1    1    2    0    0  0.15251626406E+00  0.31188712633E+02 -0.66304911180E+01  0.31886085827E+02  0.00000000000E+00 0.  1.
         11    1    3    3    0    0  0.13565246574E+02 -0.11722222105E+02 -0.12286874697E+02  0.21734619752E+02  0.51100000000E-03 0.  1.
        -11    1    3    3    0    0 -0.15309270937E+02 -0.31800191432E+01  0.12388202108E+02  0.19948780667E+02  0.51100000000E-03 0. -1.
        -12    1    3    3    0    0  0.15915080991E+01 -0.16286471384E+02  0.65291637076E+01  0.17618513754E+02  0.00000000000E+00 0.  1.
</event>
