<event>
 7    1  0.3925070E-015  0.9000848E+02  0.7816164E-02  0.1186338E+00
        -11   -1    0    0    0    0  0.00000000000E+00  0.00000000000E+00  0.45593999997E+02  0.45594000000E+02  0.51100000000E-03 0.  1.
         11   -1    0    0    0    0 -0.00000000000E+00 -0.00000000000E+00 -0.45593999997E+02  0.45594000000E+02  0.51100000000E-03 0. -1.
    9900012    2    1    2    0    0  0.98963632709E+00  0.23444287217E+00  0.59742181966E+00  0.90008484697E+02  0.90000755891E+02 0.  0.
        -12    1    1    2    0    0 -0.98963632709E+00 -0.23444287217E+00 -0.59742181966E+00  0.11795153033E+01  0.00000000000E+00 0.  1.
         11    1    3    3    0    0  0.16354544768E+02  0.18653785136E+02  0.58297778446E+01  0.25483742747E+02  0.51100000000E-03 0. -1.
        -11    1    3    3    0    0 -0.10416114545E+02  0.16084197829E+02  0.14898429335E+02  0.24272619531E+02  0.51100000000E-03 0.  1.
         12    1    3    3    0    0 -0.49487938961E+01 -0.34503540092E+02 -0.20130785360E+02  0.40252122418E+02  0.00000000000E+00 0. -1.
</event>
<event>
 7    1  0.3925070E-015  0.9000773E+02  0.7816164E-02  0.1186339E+00
        -11   -1    0    0    0    0  0.00000000000E+00  0.00000000000E+00  0.45593999997E+02  0.45594000000E+02  0.51100000000E-03 0. -1.
         11   -1    0    0    0    0 -0.00000000000E+00 -0.00000000000E+00 -0.45593999997E+02  0.45594000000E+02  0.51100000000E-03 0.  1.
    9900012    2    1    2    0    0  0.22471286796E+00 -0.76263003924E+00  0.87231768599E+00  0.90007729440E+02  0.89999990668E+02 0.  0.
        -12    1    1    2    0    0 -0.22471286796E+00  0.76263003924E+00 -0.87231768599E+00  0.11802705601E+01  0.00000000000E+00 0.  1.
         11    1    3    3    0    0 -0.68196959279E+01 -0.51872905797E+01  0.69078594374E+01  0.11006123676E+02  0.51100000000E-03 0. -1.
        -11    1    3    3    0    0 -0.22061846330E+02 -0.23912923914E+02 -0.17296264510E+02  0.36847167596E+02  0.51100000000E-03 0.  1.
         12    1    3    3    0    0  0.29106255126E+02  0.28337584455E+02  0.11260722758E+02  0.42154438167E+02  0.00000000000E+00 0. -1.
</event>
<event>
 7    1  0.3925070E-015  0.9000785E+02  0.7816164E-02  0.1186339E+00
        -11   -1    0    0    0    0  0.00000000000E+00  0.00000000000E+00  0.45593999997E+02  0.45594000000E+02  0.51100000000E-03 0.  1.
         11   -1    0    0    0    0 -0.00000000000E+00 -0.00000000000E+00 -0.45593999997E+02  0.45594000000E+02  0.51100000000E-03 0. -1.
    9900012    2    1    2    0    0 -0.74341466171E+00  0.42449958360E+00 -0.81233667239E+00  0.90007849109E+02  0.90000111917E+02 0.  0.
        -12    1    1    2    0    0  0.74341466171E+00 -0.42449958360E+00  0.81233667239E+00  0.11801508908E+01  0.00000000000E+00 0.  1.
         11    1    3    3    0    0 -0.49909341367E+01  0.15859669679E+02 -0.32257508460E+02  0.36290293443E+02  0.51100000000E-03 0. -1.
        -11    1    3    3    0    0  0.76818779251E+01  0.59592721464E+01 -0.52896962478E+01  0.11068200379E+02  0.51100000000E-03 0.  1.
        -12    1    3    3    0    0 -0.34343584502E+01 -0.21394442242E+02  0.36734868036E+02  0.42649355287E+02  0.00000000000E+00 0.  1.
</event>
<event>
 7    1  0.3925070E-015  0.9000853E+02  0.7816164E-02  0.1186337E+00
        -11   -1    0    0    0    0  0.00000000000E+00  0.00000000000E+00  0.45593999997E+02  0.45594000000E+02  0.51100000000E-03 0. -1.
         11   -1    0    0    0    0 -0.00000000000E+00 -0.00000000000E+00 -0.45593999997E+02  0.45594000000E+02  0.51100000000E-03 0.  1.
    9900012    2    1    2    0    0 -0.90500800314E+00 -0.70066816124E+00  0.28492939206E+00  0.90008525491E+02  0.90000797224E+02 0.  0.
        -12    1    1    2    0    0  0.90500800314E+00  0.70066816124E+00 -0.28492939206E+00  0.11794745086E+01  0.00000000000E+00 0.  1.
         11    1    3    3    0    0  0.19385857142E+01 -0.50215317074E+01  0.48993520538E+01  0.72785675835E+01  0.51100000000E-03 0. -1.
        -11    1    3    3    0    0  0.13396041670E+02 -0.35411516230E+02 -0.10782199393E+02  0.39366041687E+02  0.51100000000E-03 0.  1.
         12    1    3    3    0    0 -0.16239635387E+02  0.39732379776E+02  0.61677767315E+01  0.43363916221E+02  0.00000000000E+00 0. -1.
</event>
<event>
 7    1  0.3925070E-015  0.9000768E+02  0.7816164E-02  0.1186339E+00
        -11   -1    0    0    0    0  0.00000000000E+00  0.00000000000E+00  0.45593999997E+02  0.45594000000E+02  0.51100000000E-03 0.  1.
         11   -1    0    0    0    0 -0.00000000000E+00 -0.00000000000E+00 -0.45593999997E+02  0.45594000000E+02  0.51100000000E-03 0. -1.
    9900012    2    1    2    0    0  0.16135543561E+00  0.10911475665E+01  0.42014161536E+00  0.90007679041E+02  0.89999939605E+02 0.  0.
        -12    1    1    2    0    0 -0.16135543561E+00 -0.10911475665E+01 -0.42014161536E+00  0.11803209587E+01  0.00000000000E+00 0.  1.
         11    1    3    3    0    0  0.28339620676E+01  0.99464939635E+01 -0.52879138180E+01  0.11615770141E+02  0.51100000000E-03 0. -1.
        -11    1    3    3    0    0  0.10428718205E+02  0.13435041605E+02  0.35246908006E+02  0.39135700205E+02  0.51100000000E-03 0.  1.
         12    1    3    3    0    0 -0.13101324837E+02 -0.22290388002E+02 -0.29538852572E+02  0.39256208695E+02  0.00000000000E+00 0. -1.
</event>
<event>
 7    1  0.5202439E-015  0.9000758E+02  0.7816164E-02  0.1186339E+00
        -11   -1    0    0    0    0  0.00000000000E+00  0.00000000000E+00  0.45593999997E+02  0.45594000000E+02  0.51100000000E-03 0.  1.
         11   -1    0    0    0    0 -0.00000000000E+00 -0.00000000000E+00 -0.45593999997E+02  0.45594000000E+02  0.51100000000E-03 0. -1.
    9900012    2    1    2    0    0 -0.74484606814E+00 -0.89086747853E+00 -0.21203157325E+00  0.90007577229E+02  0.89999836449E+02 0.  0.
        -12    1    1    2    0    0  0.74484606814E+00  0.89086747853E+00  0.21203157325E+00  0.11804227707E+01  0.00000000000E+00 0.  1.
         11    1    3    3    0    0  0.12225173448E+02  0.32522758978E+02 -0.18219526324E+02  0.39231821995E+02  0.51100000000E-03 0. -1.
        -11    1    3    3    0    0  0.82924873680E+01 -0.83944180109E+00  0.51913395292E+01  0.98193694123E+01  0.51100000000E-03 0.  1.
        -12    1    3    3    0    0 -0.21262506884E+02 -0.32574184655E+02  0.12816155221E+02  0.40956385822E+02  0.00000000000E+00 0.  1.
</event>
<event>
 7    1  0.3925070E-015  0.9000785E+02  0.7816164E-02  0.1186339E+00
        -11   -1    0    0    0    0  0.00000000000E+00  0.00000000000E+00  0.45593999997E+02  0.45594000000E+02  0.51100000000E-03 0.  1.
         11   -1    0    0    0    0 -0.00000000000E+00 -0.00000000000E+00 -0.45593999997E+02  0.45594000000E+02  0.51100000000E-03 0. -1.
    9900012    2    1    2    0    0 -0.42199883526E+00 -0.17203789002E+00  0.10886162582E+01  0.90007845175E+02  0.90000107932E+02 0.  0.
        -12    1    1    2    0    0  0.42199883526E+00  0.17203789002E+00 -0.10886162582E+01  0.11801548246E+01  0.00000000000E+00 0.  1.
         11    1    3    3    0    0  0.18643734632E+02 -0.31908869498E+02  0.60577342179E+01  0.37449445094E+02  0.51100000000E-03 0. -1.
        -11    1    3    3    0    0 -0.53368979737E+01 -0.76905835265E+01 -0.54001416328E+01  0.10806899873E+02  0.51100000000E-03 0.  1.
        -12    1    3    3    0    0 -0.13728835494E+02  0.39427415135E+02  0.43102367310E+00  0.41751500208E+02  0.00000000000E+00 0.  1.
</event>
<event>
 7    1  0.3925070E-015  0.9000776E+02  0.7816164E-02  0.1186339E+00
        -11   -1    0    0    0    0  0.00000000000E+00  0.00000000000E+00  0.45593999997E+02  0.45594000000E+02  0.51100000000E-03 0.  1.
         11   -1    0    0    0    0 -0.00000000000E+00 -0.00000000000E+00 -0.45593999997E+02  0.45594000000E+02  0.51100000000E-03 0. -1.
    9900012    2    1    2    0    0  0.48342288123E+00 -0.10391630333E-01 -0.10766485972E+01  0.90007755165E+02  0.90000016733E+02 0.  0.
        -12    1    1    2    0    0 -0.48342288123E+00  0.10391630333E-01  0.10766485972E+01  0.11802448348E+01  0.00000000000E+00 0.  1.
         11    1    3    3    0    0 -0.27223992365E+02  0.21304047276E+02 -0.16135221196E+02  0.38149096372E+02  0.51100000000E-03 0. -1.
        -11    1    3    3    0    0 -0.82482962048E+01 -0.46775205317E+01  0.59901766578E+01  0.11215872916E+02  0.51100000000E-03 0.  1.
        -12    1    3    3    0    0  0.35955711451E+02 -0.16636918375E+02  0.90683959410E+01  0.40642785878E+02  0.00000000000E+00 0.  1.
</event>
<event>
 7    1  0.3925070E-015  0.9000772E+02  0.7816164E-02  0.1186339E+00
        -11   -1    0    0    0    0  0.00000000000E+00  0.00000000000E+00  0.45593999997E+02  0.45594000000E+02  0.51100000000E-03 0.  1.
         11   -1    0    0    0    0 -0.00000000000E+00 -0.00000000000E+00 -0.45593999997E+02  0.45594000000E+02  0.51100000000E-03 0. -1.
    9900012    2    1    2    0    0  0.85990600392E-01 -0.11771442678E+01  0.67034215659E-03  0.90007718906E+02  0.89999979996E+02 0.  0.
        -12    1    1    2    0    0 -0.85990600392E-01  0.11771442678E+01 -0.67034215658E-03  0.11802810936E+01  0.00000000000E+00 0.  1.
         11    1    3    3    0    0  0.13375381156E+02  0.85034895204E+01 -0.33021261630E+02  0.36628047655E+02  0.51100000000E-03 0. -1.
        -11    1    3    3    0    0 -0.19723590657E-01  0.61102667077E+01 -0.64244252930E+01  0.88661710374E+01  0.51100000000E-03 0.  1.
        -12    1    3    3    0    0 -0.13269666965E+02 -0.15790900496E+02  0.39446357265E+02  0.44513500214E+02  0.00000000000E+00 0.  1.
</event>
<event>
 7    1  0.3925070E-015  0.9000772E+02  0.7816164E-02  0.1186339E+00
        -11   -1    0    0    0    0  0.00000000000E+00  0.00000000000E+00  0.45593999997E+02  0.45594000000E+02  0.51100000000E-03 0. -1.
         11   -1    0    0    0    0 -0.00000000000E+00 -0.00000000000E+00 -0.45593999997E+02  0.45594000000E+02  0.51100000000E-03 0.  1.
    9900012    2    1    2    0    0 -0.68824901994E-01 -0.85819064877E+00  0.80736570481E+00  0.90007717221E+02  0.89999978288E+02 0.  0.
        -12    1    1    2    0    0  0.68824901994E-01  0.85819064877E+00 -0.80736570481E+00  0.11802827789E+01  0.00000000000E+00 0.  1.
         11    1    3    3    0    0  0.25738774026E+02 -0.25889448711E+02  0.78052558142E+00  0.36515164841E+02  0.51100000000E-03 0. -1.
        -11    1    3    3    0    0 -0.27520927343E+01 -0.96923420518E+01  0.54589774069E+01  0.11459316884E+02  0.51100000000E-03 0.  1.
        -12    1    3    3    0    0 -0.23055506194E+02  0.34723600114E+02 -0.54321372835E+01  0.42033235495E+02  0.00000000000E+00 0.  1.
</event>
<event>
 7    1  0.3925070E-015  0.9000770E+02  0.7816164E-02  0.1186339E+00
        -11   -1    0    0    0    0  0.00000000000E+00  0.00000000000E+00  0.45593999997E+02  0.45594000000E+02  0.51100000000E-03 0.  1.
         11   -1    0    0    0    0 -0.00000000000E+00 -0.00000000000E+00 -0.45593999997E+02  0.45594000000E+02  0.51100000000E-03 0. -1.
    9900012    2    1    2    0    0 -0.22853308934E+00 -0.10939484969E+01 -0.37969077827E+00  0.90007696745E+02  0.89999957542E+02 0.  0.
        -12    1    1    2    0    0  0.22853308934E+00  0.10939484969E+01  0.37969077827E+00  0.11803032551E+01  0.00000000000E+00 0.  1.
         11    1    3    3    0    0  0.30756382460E+02  0.14849276538E+02 -0.20217944402E+02  0.39689058338E+02  0.51100000000E-03 0. -1.
        -11    1    3    3    0    0  0.42499079682E+01 -0.17889939476E+00  0.94214476300E+01  0.10337185228E+02  0.51100000000E-03 0.  1.
        -12    1    3    3    0    0 -0.35234823517E+02 -0.15764325640E+02  0.10416805993E+02  0.39981453179E+02  0.00000000000E+00 0.  1.
</event>
<event>
 7    1  0.3925070E-015  0.9000768E+02  0.7816164E-02  0.1186339E+00
        -11   -1    0    0    0    0  0.00000000000E+00  0.00000000000E+00  0.45593999997E+02  0.45594000000E+02  0.51100000000E-03 0.  1.
         11   -1    0    0    0    0 -0.00000000000E+00 -0.00000000000E+00 -0.45593999997E+02  0.45594000000E+02  0.51100000000E-03 0. -1.
    9900012    2    1    2    0    0 -0.10787281082E+00 -0.11435691690E+01 -0.27159322782E+00  0.90007682302E+02  0.89999942908E+02 0.  0.
        -12    1    1    2    0    0  0.10787281082E+00  0.11435691690E+01  0.27159322782E+00  0.11803176984E+01  0.00000000000E+00 0.  1.
         11    1    3    3    0    0 -0.57176282796E+01 -0.13900664619E+02 -0.67249528514E+01  0.16466473244E+02  0.51100000000E-03 0. -1.
        -11    1    3    3    0    0  0.33052388600E+02 -0.11133432156E+02  0.11684307616E+02  0.36782288516E+02  0.51100000000E-03 0.  1.
         12    1    3    3    0    0 -0.27442633131E+02  0.23890527606E+02 -0.52309479922E+01  0.36758920541E+02  0.00000000000E+00 0. -1.
</event>
<event>
 7    1  0.3925070E-015  0.9000765E+02  0.7816164E-02  0.1186339E+00
        -11   -1    0    0    0    0  0.00000000000E+00  0.00000000000E+00  0.45593999997E+02  0.45594000000E+02  0.51100000000E-03 0.  1.
         11   -1    0    0    0    0 -0.00000000000E+00 -0.00000000000E+00 -0.45593999997E+02  0.45594000000E+02  0.51100000000E-03 0. -1.
    9900012    2    1    2    0    0 -0.12692768890E+00 -0.41330164816E+00 -0.10983180928E+01  0.90007647712E+02  0.89999907862E+02 0.  0.
        -12    1    1    2    0    0  0.12692768890E+00  0.41330164816E+00  0.10983180928E+01  0.11803522879E+01  0.00000000000E+00 0.  1.
         11    1    3    3    0    0 -0.66052004516E+01  0.44862413523E+01  0.75590489240E+01  0.10995192375E+02  0.51100000000E-03 0. -1.
        -11    1    3    3    0    0 -0.13680966385E+02 -0.21040365576E+02  0.25772660761E+02  0.35973543998E+02  0.51100000000E-03 0.  1.
         12    1    3    3    0    0  0.20159239147E+02  0.16140822576E+02 -0.34430027778E+02  0.43038911339E+02  0.00000000000E+00 0. -1.
</event>
<event>
 7    1  0.3925070E-015  0.9000756E+02  0.7816164E-02  0.1186339E+00
        -11   -1    0    0    0    0  0.00000000000E+00  0.00000000000E+00  0.45593999997E+02  0.45594000000E+02  0.51100000000E-03 0.  1.
         11   -1    0    0    0    0 -0.00000000000E+00 -0.00000000000E+00 -0.45593999997E+02  0.45594000000E+02  0.51100000000E-03 0. -1.
    9900012    2    1    2    0    0 -0.41719446933E+00  0.10861612094E+01  0.19907608932E+00  0.90007564196E+02  0.89999823243E+02 0.  0.
        -12    1    1    2    0    0  0.41719446933E+00 -0.10861612094E+01 -0.19907608932E+00  0.11804358040E+01  0.00000000000E+00 0.  1.
         11    1    3    3    0    0  0.73933655744E-01  0.41061166568E+02 -0.11599710964E+02  0.42668233626E+02  0.51100000000E-03 0. -1.
        -11    1    3    3    0    0 -0.34701678047E+01 -0.28605811673E+01  0.89259472851E+01  0.99948749069E+01  0.51100000000E-03 0.  1.
        -12    1    3    3    0    0  0.29790396796E+01 -0.37114424191E+02  0.28728397681E+01  0.37344455663E+02  0.00000000000E+00 0.  1.
</event>
<event>
 7    1  0.3925070E-015  0.9000789E+02  0.7816164E-02  0.1186339E+00
        -11   -1    0    0    0    0  0.00000000000E+00  0.00000000000E+00  0.45593999997E+02  0.45594000000E+02  0.51100000000E-03 0.  1.
         11   -1    0    0    0    0 -0.00000000000E+00 -0.00000000000E+00 -0.45593999997E+02  0.45594000000E+02  0.51100000000E-03 0. -1.
    9900012    2    1    2    0    0  0.10694293354E+01  0.31062225394E+00 -0.39050732322E+00  0.90007889303E+02  0.90000152642E+02 0.  0.
        -12    1    1    2    0    0 -0.10694293354E+01 -0.31062225394E+00  0.39050732322E+00  0.11801106972E+01  0.00000000000E+00 0.  1.
         11    1    3    3    0    0 -0.72649011120E+01  0.17502026004E+01 -0.11025293723E+02  0.13319125318E+02  0.51100000000E-03 0. -1.
        -11    1    3    3    0    0 -0.22453762501E+02  0.14086861798E+02  0.27593603981E+02  0.38262489551E+02  0.51100000000E-03 0.  1.
         12    1    3    3    0    0  0.30788092948E+02 -0.15526442145E+02 -0.16958817581E+02  0.38426274433E+02  0.00000000000E+00 0. -1.
</event>
<event>
 7    1  0.3925070E-015  0.9000774E+02  0.7816164E-02  0.1186339E+00
        -11   -1    0    0    0    0  0.00000000000E+00  0.00000000000E+00  0.45593999997E+02  0.45594000000E+02  0.51100000000E-03 0.  1.
         11   -1    0    0    0    0 -0.00000000000E+00 -0.00000000000E+00 -0.45593999997E+02  0.45594000000E+02  0.51100000000E-03 0. -1.
    9900012    2    1    2    0    0 -0.94183408755E+00  0.69493460285E+00 -0.15177654404E+00  0.90007736610E+02  0.89999997933E+02 0.  0.
        -12    1    1    2    0    0  0.94183408755E+00 -0.69493460285E+00  0.15177654404E+00  0.11802633901E+01  0.00000000000E+00 0.  1.
         11    1    3    3    0    0  0.15503558057E+01 -0.84916620404E+01  0.12712499325E+02  0.15366182567E+02  0.51100000000E-03 0. -1.
        -11    1    3    3    0    0  0.23261976573E+02 -0.60165457195E+00  0.20750855372E+02  0.31178190153E+02  0.51100000000E-03 0.  1.
         12    1    3    3    0    0 -0.25754166466E+02  0.97882512152E+01 -0.33615131241E+02  0.43463363889E+02  0.00000000000E+00 0. -1.
</event>
<event>
 7    1  0.3925070E-015  0.9000770E+02  0.7816164E-02  0.1186339E+00
        -11   -1    0    0    0    0  0.00000000000E+00  0.00000000000E+00  0.45593999997E+02  0.45594000000E+02  0.51100000000E-03 0.  1.
         11   -1    0    0    0    0 -0.00000000000E+00 -0.00000000000E+00 -0.45593999997E+02  0.45594000000E+02  0.51100000000E-03 0. -1.
    9900012    2    1    2    0    0  0.22975082546E-01 -0.17344564187E+00 -0.11672571735E+01  0.90007703192E+02  0.89999964074E+02 0.  0.
        -12    1    1    2    0    0 -0.22975082546E-01  0.17344564187E+00  0.11672571735E+01  0.11802968077E+01  0.00000000000E+00 0.  1.
         11    1    3    3    0    0 -0.20252790573E+02 -0.33454434610E+02 -0.10273307754E+02  0.40434089251E+02  0.51100000000E-03 0. -1.
        -11    1    3    3    0    0 -0.49964996191E+01  0.90680741263E+01 -0.54119592878E+01  0.11682648689E+02  0.51100000000E-03 0.  1.
        -12    1    3    3    0    0  0.25272265275E+02  0.24212914842E+02  0.14518009868E+02  0.37890965253E+02  0.00000000000E+00 0.  1.
</event>
<event>
 7    1  0.3925070E-015  0.9000774E+02  0.7816164E-02  0.1186339E+00
        -11   -1    0    0    0    0  0.00000000000E+00  0.00000000000E+00  0.45593999997E+02  0.45594000000E+02  0.51100000000E-03 0.  1.
         11   -1    0    0    0    0 -0.00000000000E+00 -0.00000000000E+00 -0.45593999997E+02  0.45594000000E+02  0.51100000000E-03 0. -1.
    9900012    2    1    2    0    0  0.20903340279E+00  0.69114514566E+00 -0.93361047508E+00  0.90007743632E+02  0.90000005048E+02 0.  0.
        -12    1    1    2    0    0 -0.20903340279E+00 -0.69114514566E+00  0.93361047508E+00  0.11802563683E+01  0.00000000000E+00 0.  1.
         11    1    3    3    0    0  0.61592811659E+01  0.54601428562E+01  0.60848612418E+01  0.10235987548E+02  0.51100000000E-03 0. -1.
        -11    1    3    3    0    0  0.14787288902E+02  0.24258400028E+02  0.20234205823E+02  0.34879176747E+02  0.51100000000E-03 0.  1.
         12    1    3    3    0    0 -0.20737536665E+02 -0.29027397738E+02 -0.27252677540E+02  0.44892579337E+02  0.00000000000E+00 0. -1.
</event>
<event>
 7    1  0.3925070E-015  0.9000772E+02  0.7816164E-02  0.1186339E+00
        -11   -1    0    0    0    0  0.00000000000E+00  0.00000000000E+00  0.45593999997E+02  0.45594000000E+02  0.51100000000E-03 0.  1.
         11   -1    0    0    0    0 -0.00000000000E+00 -0.00000000000E+00 -0.45593999997E+02  0.45594000000E+02  0.51100000000E-03 0. -1.
    9900012    2    1    2    0    0 -0.59171172603E+00 -0.85247875304E+00 -0.56233969963E+00  0.90007716674E+02  0.89999977734E+02 0.  0.
        -12    1    1    2    0    0  0.59171172603E+00  0.85247875304E+00  0.56233969963E+00  0.11802833257E+01  0.00000000000E+00 0.  1.
         11    1    3    3    0    0 -0.85731885067E+01  0.94254159839E+01 -0.32548673280E+01  0.13150368406E+02  0.51100000000E-03 0. -1.
        -11    1    3    3    0    0 -0.33091776810E+02 -0.27091059817E+01  0.95150168865E+01  0.34538970660E+02  0.51100000000E-03 0.  1.
         12    1    3    3    0    0  0.41073253590E+02 -0.75687887552E+01 -0.68224892581E+01  0.42318377608E+02  0.00000000000E+00 0. -1.
</event>
<event>
 7    1  0.3925070E-015  0.9000779E+02  0.7816164E-02  0.1186339E+00
        -11   -1    0    0    0    0  0.00000000000E+00  0.00000000000E+00  0.45593999997E+02  0.45594000000E+02  0.51100000000E-03 0. -1.
         11   -1    0    0    0    0 -0.00000000000E+00 -0.00000000000E+00 -0.45593999997E+02  0.45594000000E+02  0.51100000000E-03 0.  1.
    9900012    2    1    2    0    0 -0.84934051705E-01  0.91066108715E+00  0.74590643970E+00  0.90007790770E+02  0.90000052809E+02 0.  0.
        -12    1    1    2    0    0  0.84934051705E-01 -0.91066108715E+00 -0.74590643970E+00  0.11802092296E+01  0.00000000000E+00 0.  1.
         11    1    3    3    0    0  0.30462386313E+02  0.25154105496E+02  0.96400517754E+01  0.40664684945E+02  0.51100000000E-03 0. -1.
        -11    1    3    3    0    0 -0.24832470076E+01  0.35309093225E+01 -0.88635621051E+01  0.98588320706E+01  0.51100000000E-03 0.  1.
        -12    1    3    3    0    0 -0.28064073357E+02 -0.27774353732E+02 -0.30583230647E-01  0.39484273755E+02  0.00000000000E+00 0.  1.
</event>
<event>
 7    1  0.3925070E-015  0.9000771E+02  0.7816164E-02  0.1186339E+00
        -11   -1    0    0    0    0  0.00000000000E+00  0.00000000000E+00  0.45593999997E+02  0.45594000000E+02  0.51100000000E-03 0. -1.
         11   -1    0    0    0    0 -0.00000000000E+00 -0.00000000000E+00 -0.45593999997E+02  0.45594000000E+02  0.51100000000E-03 0.  1.
    9900012    2    1    2    0    0  0.72961736196E+00 -0.15287751158E+00  0.91507829642E+00  0.90007711342E+02  0.89999972331E+02 0.  0.
        -12    1    1    2    0    0 -0.72961736196E+00  0.15287751158E+00 -0.91507829642E+00  0.11802886583E+01  0.00000000000E+00 0.  1.
         11    1    3    3    0    0 -0.17967583059E+02  0.77229655395E+01  0.36535544548E+02  0.41440611161E+02  0.51100000000E-03 0. -1.
        -11    1    3    3    0    0  0.22589635284E+00  0.82251445755E+01 -0.63477761025E+01  0.10392222773E+02  0.51100000000E-03 0.  1.
        -12    1    3    3    0    0  0.18471304068E+02 -0.16100987627E+02 -0.29272690149E+02  0.38174877408E+02  0.00000000000E+00 0.  1.
</event>
<event>
 7    1  0.3925070E-015  0.9000784E+02  0.7816164E-02  0.1186339E+00
        -11   -1    0    0    0    0  0.00000000000E+00  0.00000000000E+00  0.45593999997E+02  0.45594000000E+02  0.51100000000E-03 0.  1.
         11   -1    0    0    0    0 -0.00000000000E+00 -0.00000000000E+00 -0.45593999997E+02  0.45594000000E+02  0.51100000000E-03 0. -1.
    9900012    2    1    2    0    0 -0.11685580258E+01 -0.75245063693E-01 -0.14692672695E+00  0.90007840205E+02  0.90000102895E+02 0.  0.
        -12    1    1    2    0    0  0.11685580258E+01  0.75245063693E-01  0.14692672695E+00  0.11801597952E+01  0.00000000000E+00 0.  1.
         11    1    3    3    0    0  0.16283219962E+01  0.54298974648E+01  0.82105484986E+01  0.99773907366E+01  0.51100000000E-03 0. -1.
        -11    1    3    3    0    0  0.44365880455E+01 -0.38459200954E+02  0.12115934109E+02  0.40565863865E+02  0.51100000000E-03 0.  1.
         12    1    3    3    0    0 -0.72334680675E+01  0.32954058426E+02 -0.20473409335E+02  0.39464585603E+02  0.00000000000E+00 0. -1.
</event>
<event>
 7    1  0.3925070E-015  0.9000773E+02  0.7816164E-02  0.1186339E+00
        -11   -1    0    0    0    0  0.00000000000E+00  0.00000000000E+00  0.45593999997E+02  0.45594000000E+02  0.51100000000E-03 0.  1.
         11   -1    0    0    0    0 -0.00000000000E+00 -0.00000000000E+00 -0.45593999997E+02  0.45594000000E+02  0.51100000000E-03 0. -1.
    9900012    2    1    2    0    0 -0.84259807477E+00 -0.82382200158E+00  0.66226286975E-01  0.90007728791E+02  0.89999990011E+02 0.  0.
        -12    1    1    2    0    0  0.84259807477E+00  0.82382200158E+00 -0.66226286975E-01  0.11802712091E+01  0.00000000000E+00 0.  1.
         11    1    3    3    0    0 -0.22785867888E+02 -0.90575088249E+01 -0.26749633239E+02  0.36287423720E+02  0.51100000000E-03 0. -1.
        -11    1    3    3    0    0 -0.33379796075E+00 -0.71567704073E+01 -0.72578917914E+01  0.10198420331E+02  0.51100000000E-03 0.  1.
        -12    1    3    3    0    0  0.22277067774E+02  0.15390457231E+02  0.34073751318E+02  0.43521884739E+02  0.00000000000E+00 0.  1.
</event>
<event>
 7    1  0.3925070E-015  0.9000775E+02  0.7816164E-02  0.1186339E+00
        -11   -1    0    0    0    0  0.00000000000E+00  0.00000000000E+00  0.45593999997E+02  0.45594000000E+02  0.51100000000E-03 0. -1.
         11   -1    0    0    0    0 -0.00000000000E+00 -0.00000000000E+00 -0.45593999997E+02  0.45594000000E+02  0.51100000000E-03 0.  1.
    9900012    2    1    2    0    0  0.37054226825E+00 -0.60359382212E+00  0.94412552962E+00  0.90007745752E+02  0.90000007196E+02 0.  0.
        -12    1    1    2    0    0 -0.37054226825E+00  0.60359382212E+00 -0.94412552962E+00  0.11802542482E+01  0.00000000000E+00 0.  1.
         11    1    3    3    0    0 -0.12781050323E+02  0.39008225118E+01 -0.94266813949E+01  0.16353409003E+02  0.51100000000E-03 0. -1.
        -11    1    3    3    0    0  0.49507056473E+00  0.12443518980E+02 -0.27549526344E+02  0.30233469227E+02  0.51100000000E-03 0.  1.
         12    1    3    3    0    0  0.12656522026E+02 -0.16947935314E+02  0.37920333268E+02  0.43420867522E+02  0.00000000000E+00 0. -1.
</event>
<event>
 7    1  0.3925070E-015  0.9000777E+02  0.7816164E-02  0.1186339E+00
        -11   -1    0    0    0    0  0.00000000000E+00  0.00000000000E+00  0.45593999997E+02  0.45594000000E+02  0.51100000000E-03 0.  1.
         11   -1    0    0    0    0 -0.00000000000E+00 -0.00000000000E+00 -0.45593999997E+02  0.45594000000E+02  0.51100000000E-03 0. -1.
    9900012    2    1    2    0    0 -0.11750943179E+01 -0.14583775972E-01  0.10903020293E+00  0.90007768274E+02  0.90000030015E+02 0.  0.
        -12    1    1    2    0    0  0.11750943179E+01  0.14583775972E-01 -0.10903020293E+00  0.11802317262E+01  0.00000000000E+00 0.  1.
         11    1    3    3    0    0 -0.28603551667E+02  0.27704782565E+02 -0.22413562993E+01  0.39884104895E+02  0.51100000000E-03 0. -1.
        -11    1    3    3    0    0 -0.46614004224E+01 -0.69002506486E+01  0.78917364131E+01  0.11472646460E+02  0.51100000000E-03 0.  1.
        -12    1    3    3    0    0  0.32089857772E+02 -0.20819115692E+02 -0.55413499110E+01  0.38651016919E+02  0.00000000000E+00 0.  1.
</event>
<event>
 7    1  0.3925070E-015  0.9000753E+02  0.7816164E-02  0.1186339E+00
        -11   -1    0    0    0    0  0.00000000000E+00  0.00000000000E+00  0.45593999997E+02  0.45594000000E+02  0.51100000000E-03 0.  1.
         11   -1    0    0    0    0 -0.00000000000E+00 -0.00000000000E+00 -0.45593999997E+02  0.45594000000E+02  0.51100000000E-03 0. -1.
    9900012    2    1    2    0    0  0.90335487828E+00 -0.73389817001E+00 -0.19712710773E+00  0.90007527359E+02  0.89999785920E+02 0.  0.
        -12    1    1    2    0    0 -0.90335487828E+00  0.73389817001E+00  0.19712710773E+00  0.11804726412E+01  0.00000000000E+00 0.  1.
         11    1    3    3    0    0 -0.34142613803E+01 -0.74305117837E+01 -0.54749197035E+01  0.98409568723E+01  0.51100000000E-03 0. -1.
        -11    1    3    3    0    0  0.20559931229E+02 -0.28398684331E+02  0.18058965552E+02  0.39437574481E+02  0.51100000000E-03 0.  1.
         12    1    3    3    0    0 -0.16242314971E+02  0.35095297945E+02 -0.12781172956E+02  0.40728996005E+02  0.00000000000E+00 0. -1.
</event>
<event>
 7    1  0.3925071E-015  0.9000766E+02  0.7816164E-02  0.1186339E+00
        -11   -1    0    0    0    0  0.00000000000E+00  0.00000000000E+00  0.45593999997E+02  0.45594000000E+02  0.51100000000E-03 0. -1.
         11   -1    0    0    0    0 -0.00000000000E+00 -0.00000000000E+00 -0.45593999997E+02  0.45594000000E+02  0.51100000000E-03 0.  1.
    9900012    2    1    2    0    0 -0.11152164423E+01 -0.54873933765E-01  0.38273965791E+00  0.90007657462E+02  0.89999917740E+02 0.  0.
        -12    1    1    2    0    0  0.11152164423E+01  0.54873933765E-01 -0.38273965791E+00  0.11803425382E+01  0.00000000000E+00 0.  1.
         11    1    3    3    0    0 -0.14588876490E+02  0.24698164655E+02  0.31441215246E+02  0.42560365024E+02  0.51100000000E-03 0. -1.
        -11    1    3    3    0    0 -0.61676045616E+01 -0.43974418387E+01 -0.61520608699E+01  0.97583140942E+01  0.51100000000E-03 0.  1.
        -12    1    3    3    0    0  0.19641264609E+02 -0.20355596750E+02 -0.24906414718E+02  0.37688978344E+02  0.00000000000E+00 0.  1.
</event>
<event>
 7    1  0.3925070E-015  0.9000772E+02  0.7816164E-02  0.1186339E+00
        -11   -1    0    0    0    0  0.00000000000E+00  0.00000000000E+00  0.45593999997E+02  0.45594000000E+02  0.51100000000E-03 0. -1.
         11   -1    0    0    0    0 -0.00000000000E+00 -0.00000000000E+00 -0.45593999997E+02  0.45594000000E+02  0.51100000000E-03 0.  1.
    9900012    2    1    2    0    0  0.17912039937E-01  0.44961967861E+00  0.10911350116E+01  0.90007722783E+02  0.89999983923E+02 0.  0.
        -12    1    1    2    0    0 -0.17912039937E-01 -0.44961967861E+00 -0.10911350116E+01  0.11802772175E+01  0.00000000000E+00 0.  1.
         11    1    3    3    0    0 -0.48685139731E+01  0.11257599619E+02 -0.39133850969E+01  0.12874414964E+02  0.51100000000E-03 0. -1.
        -11    1    3    3    0    0 -0.87414814672E+01 -0.23526395759E+02 -0.29001383802E+02  0.38353423033E+02  0.51100000000E-03 0.  1.
         12    1    3    3    0    0  0.13627907480E+02  0.12718415819E+02  0.34005903910E+02  0.38779884786E+02  0.00000000000E+00 0. -1.
</event>
<event>
 7    1  0.3925070E-015  0.9000770E+02  0.7816164E-02  0.1186339E+00
        -11   -1    0    0    0    0  0.00000000000E+00  0.00000000000E+00  0.45593999997E+02  0.45594000000E+02  0.51100000000E-03 0.  1.
         11   -1    0    0    0    0 -0.00000000000E+00 -0.00000000000E+00 -0.45593999997E+02  0.45594000000E+02  0.51100000000E-03 0. -1.
    9900012    2    1    2    0    0 -0.74532934079E+00  0.87488557817E+00  0.26866095244E+00  0.90007695248E+02  0.89999956025E+02 0.  0.
        -12    1    1    2    0    0  0.74532934079E+00 -0.87488557817E+00 -0.26866095244E+00  0.11803047524E+01  0.00000000000E+00 0.  1.
         11    1    3    3    0    0 -0.34281077497E+02  0.16226636772E+02 -0.10993833207E+02  0.39488737434E+02  0.51100000000E-03 0. -1.
        -11    1    3    3    0    0  0.20227690328E+01  0.88730079733E+01 -0.35612551607E+00  0.91076171801E+01  0.51100000000E-03 0.  1.
        -12    1    3    3    0    0  0.31512979123E+02 -0.24224759168E+02  0.11618619675E+02  0.41411340634E+02  0.00000000000E+00 0.  1.
</event>
<event>
 7    1  0.3925070E-015  0.9000778E+02  0.7816164E-02  0.1186339E+00
        -11   -1    0    0    0    0  0.00000000000E+00  0.00000000000E+00  0.45593999997E+02  0.45594000000E+02  0.51100000000E-03 0. -1.
         11   -1    0    0    0    0 -0.00000000000E+00 -0.00000000000E+00 -0.45593999997E+02  0.45594000000E+02  0.51100000000E-03 0.  1.
    9900012    2    1    2    0    0 -0.62517425834E+00 -0.80908058678E+00  0.58945864747E+00  0.90007781484E+02  0.90000043399E+02 0.  0.
        -12    1    1    2    0    0  0.62517425834E+00  0.80908058678E+00 -0.58945864747E+00  0.11802185163E+01  0.00000000000E+00 0.  1.
         11    1    3    3    0    0  0.14611837031E+01 -0.27103657602E+02  0.13389077615E+02  0.30265668881E+02  0.51100000000E-03 0. -1.
        -11    1    3    3    0    0  0.61965849820E+01 -0.41982755351E+01  0.15571080107E+02  0.17276623480E+02  0.51100000000E-03 0.  1.
        -12    1    3    3    0    0 -0.82829429434E+01  0.30492852550E+02 -0.28370699074E+02  0.42465489122E+02  0.00000000000E+00 0.  1.
</event>
<event>
 7    1  0.3925070E-015  0.9000774E+02  0.7816164E-02  0.1186339E+00
        -11   -1    0    0    0    0  0.00000000000E+00  0.00000000000E+00  0.45593999997E+02  0.45594000000E+02  0.51100000000E-03 0.  1.
         11   -1    0    0    0    0 -0.00000000000E+00 -0.00000000000E+00 -0.45593999997E+02  0.45594000000E+02  0.51100000000E-03 0. -1.
    9900012    2    1    2    0    0  0.24644408575E+00 -0.10499158961E+01 -0.47953405185E+00  0.90007741137E+02  0.90000002520E+02 0.  0.
        -12    1    1    2    0    0 -0.24644408575E+00  0.10499158961E+01  0.47953405185E+00  0.11802588628E+01  0.00000000000E+00 0.  1.
         11    1    3    3    0    0 -0.30058535620E+02  0.24641679827E+02 -0.29243763985E+01  0.38977941530E+02  0.51100000000E-03 0. -1.
        -11    1    3    3    0    0  0.16234278615E+01  0.34878209624E+01 -0.79348878719E+01  0.88183251748E+01  0.51100000000E-03 0.  1.
        -12    1    3    3    0    0  0.28681551844E+02 -0.29179416686E+02  0.10379730219E+02  0.42211474432E+02  0.00000000000E+00 0.  1.
</event>
<event>
 7    1  0.3925070E-015  0.9000775E+02  0.7816164E-02  0.1186339E+00
        -11   -1    0    0    0    0  0.00000000000E+00  0.00000000000E+00  0.45593999997E+02  0.45594000000E+02  0.51100000000E-03 0. -1.
         11   -1    0    0    0    0 -0.00000000000E+00 -0.00000000000E+00 -0.45593999997E+02  0.45594000000E+02  0.51100000000E-03 0.  1.
    9900012    2    1    2    0    0 -0.11029512022E+01  0.66007786081E-01 -0.41487917702E+00  0.90007752944E+02  0.90000014483E+02 0.  0.
        -12    1    1    2    0    0  0.11029512022E+01 -0.66007786081E-01  0.41487917702E+00  0.11802470562E+01  0.00000000000E+00 0.  1.
         11    1    3    3    0    0 -0.32953274381E+01 -0.14146136396E+02 -0.33946325638E+01  0.14916296067E+02  0.51100000000E-03 0. -1.
        -11    1    3    3    0    0 -0.51779291704E+01 -0.29255611530E+02  0.78643303210E+01  0.30733523198E+02  0.51100000000E-03 0.  1.
        -12    1    3    3    0    0  0.73703054064E+01  0.43467755712E+02 -0.48845769342E+01  0.44357933679E+02  0.00000000000E+00 0.  1.
</event>
<event>
 7    1  0.3925070E-015  0.9000767E+02  0.7816164E-02  0.1186339E+00
        -11   -1    0    0    0    0  0.00000000000E+00  0.00000000000E+00  0.45593999997E+02  0.45594000000E+02  0.51100000000E-03 0.  1.
         11   -1    0    0    0    0 -0.00000000000E+00 -0.00000000000E+00 -0.45593999997E+02  0.45594000000E+02  0.51100000000E-03 0. -1.
    9900012    2    1    2    0    0 -0.39002248324E+00  0.26314233432E+00 -0.10825039936E+01  0.90007671096E+02  0.89999931554E+02 0.  0.
        -12    1    1    2    0    0  0.39002248324E+00 -0.26314233432E+00  0.10825039936E+01  0.11803289040E+01  0.00000000000E+00 0.  1.
         11    1    3    3    0    0 -0.25140798007E+02  0.28490111965E+02 -0.48977874189E+01  0.38311023558E+02  0.51100000000E-03 0. -1.
        -11    1    3    3    0    0  0.16844436015E+01  0.81681225750E+01 -0.71288803347E+00  0.83704113553E+01  0.51100000000E-03 0.  1.
        -12    1    3    3    0    0  0.23066331923E+02 -0.36395092205E+02  0.45281714588E+01  0.43326236183E+02  0.00000000000E+00 0.  1.
</event>
<event>
 7    1  0.4113001E-015  0.9000765E+02  0.7816164E-02  0.1186339E+00
        -11   -1    0    0    0    0  0.00000000000E+00  0.00000000000E+00  0.45593999997E+02  0.45594000000E+02  0.51100000000E-03 0. -1.
         11   -1    0    0    0    0 -0.00000000000E+00 -0.00000000000E+00 -0.45593999997E+02  0.45594000000E+02  0.51100000000E-03 0.  1.
    9900012    2    1    2    0    0 -0.30855212559E+00 -0.97504211687E+00  0.58933977517E+00  0.90007647123E+02  0.89999907265E+02 0.  0.
        -12    1    1    2    0    0  0.30855212559E+00  0.97504211687E+00 -0.58933977517E+00  0.11803528771E+01  0.00000000000E+00 0.  1.
         11    1    3    3    0    0 -0.35908097079E+02  0.46240981596E+01  0.59206471398E+01  0.36685525517E+02  0.51100000000E-03 0. -1.
        -11    1    3    3    0    0 -0.78931585896E+01 -0.38017337702E+01 -0.43493831246E+01  0.97812200673E+01  0.51100000000E-03 0.  1.
        -12    1    3    3    0    0  0.43492703543E+02 -0.17974065063E+01 -0.98192424005E+00  0.43540901539E+02  0.00000000000E+00 0.  1.
</event>
<event>
 7    1  0.3925070E-015  0.9000772E+02  0.7816164E-02  0.1186339E+00
        -11   -1    0    0    0    0  0.00000000000E+00  0.00000000000E+00  0.45593999997E+02  0.45594000000E+02  0.51100000000E-03 0.  1.
         11   -1    0    0    0    0 -0.00000000000E+00 -0.00000000000E+00 -0.45593999997E+02  0.45594000000E+02  0.51100000000E-03 0. -1.
    9900012    2    1    2    0    0  0.90771460945E+00  0.72178521523E+00 -0.21938441336E+00  0.90007724935E+02  0.89999986104E+02 0.  0.
        -12    1    1    2    0    0 -0.90771460945E+00 -0.72178521523E+00  0.21938441336E+00  0.11802750654E+01  0.00000000000E+00 0.  1.
         11    1    3    3    0    0 -0.24330671232E+02  0.28893405310E+02 -0.10781939151E+02  0.39281810614E+02  0.51100000000E-03 0. -1.
        -11    1    3    3    0    0 -0.30439725266E+01 -0.49847803183E+01 -0.78466489194E+01  0.97818046950E+01  0.51100000000E-03 0.  1.
        -12    1    3    3    0    0  0.28282358368E+02 -0.23186839776E+02  0.18409203658E+02  0.40944109625E+02  0.00000000000E+00 0.  1.
</event>
<event>
 7    1  0.3925070E-015  0.9000773E+02  0.7816164E-02  0.1186339E+00
        -11   -1    0    0    0    0  0.00000000000E+00  0.00000000000E+00  0.45593999997E+02  0.45594000000E+02  0.51100000000E-03 0. -1.
         11   -1    0    0    0    0 -0.00000000000E+00 -0.00000000000E+00 -0.45593999997E+02  0.45594000000E+02  0.51100000000E-03 0.  1.
    9900012    2    1    2    0    0 -0.12091835736E+00  0.78462658006E+00  0.87337425701E+00  0.90007727696E+02  0.89999988901E+02 0.  0.
        -12    1    1    2    0    0  0.12091835736E+00 -0.78462658006E+00 -0.87337425701E+00  0.11802723042E+01  0.00000000000E+00 0.  1.
         11    1    3    3    0    0 -0.13715546587E+02 -0.24604332515E+02  0.18327875125E+02  0.33606552985E+02  0.51100000000E-03 0. -1.
        -11    1    3    3    0    0  0.22846018437E+02 -0.28969616513E+01 -0.12590147845E+02  0.26245852401E+02  0.51100000000E-03 0.  1.
        -12    1    3    3    0    0 -0.92513902073E+01  0.28285920747E+02 -0.48643530224E+01  0.30155322309E+02  0.00000000000E+00 0.  1.
</event>
<event>
 7    1  0.3925070E-015  0.9000759E+02  0.7816164E-02  0.1186339E+00
        -11   -1    0    0    0    0  0.00000000000E+00  0.00000000000E+00  0.45593999997E+02  0.45594000000E+02  0.51100000000E-03 0. -1.
         11   -1    0    0    0    0 -0.00000000000E+00 -0.00000000000E+00 -0.45593999997E+02  0.45594000000E+02  0.51100000000E-03 0.  1.
    9900012    2    1    2    0    0 -0.54208029409E+00 -0.37899755702E+00  0.97769409463E+00  0.90007586540E+02  0.89999845882E+02 0.  0.
        -12    1    1    2    0    0  0.54208029409E+00  0.37899755702E+00 -0.97769409463E+00  0.11804134598E+01  0.00000000000E+00 0.  1.
         11    1    3    3    0    0 -0.46974349586E+01 -0.17107585798E+02  0.21376540644E+02  0.27779342634E+02  0.51100000000E-03 0. -1.
        -11    1    3    3    0    0  0.21046225469E+00  0.47060400935E+01  0.19661062486E+02  0.20217529178E+02  0.51100000000E-03 0.  1.
        -12    1    3    3    0    0  0.39448924098E+01  0.12022548148E+02 -0.40059909035E+02  0.42010714728E+02  0.00000000000E+00 0.  1.
</event>
<event>
 7    1  0.3925070E-015  0.9000766E+02  0.7816164E-02  0.1186339E+00
        -11   -1    0    0    0    0  0.00000000000E+00  0.00000000000E+00  0.45593999997E+02  0.45594000000E+02  0.51100000000E-03 0.  1.
         11   -1    0    0    0    0 -0.00000000000E+00 -0.00000000000E+00 -0.45593999997E+02  0.45594000000E+02  0.51100000000E-03 0. -1.
    9900012    2    1    2    0    0  0.10445271926E+01 -0.92899625248E-01  0.54178469384E+00  0.90007661891E+02  0.89999922228E+02 0.  0.
        -12    1    1    2    0    0 -0.10445271926E+01  0.92899625248E-01 -0.54178469384E+00  0.11803381087E+01  0.00000000000E+00 0.  1.
         11    1    3    3    0    0  0.20398139123E+01  0.66754817225E+01 -0.67087400131E+01  0.96814301552E+01  0.51100000000E-03 0. -1.
        -11    1    3    3    0    0 -0.39977977367E+02  0.14865274418E+01  0.12103786624E+01  0.40023911040E+02  0.51100000000E-03 0.  1.
         12    1    3    3    0    0  0.38982690647E+02 -0.82549087896E+01  0.60401460446E+01  0.40302320696E+02  0.00000000000E+00 0. -1.
</event>
<event>
 7    1  0.3925070E-015  0.9000770E+02  0.7816164E-02  0.1186339E+00
        -11   -1    0    0    0    0  0.00000000000E+00  0.00000000000E+00  0.45593999997E+02  0.45594000000E+02  0.51100000000E-03 0. -1.
         11   -1    0    0    0    0 -0.00000000000E+00 -0.00000000000E+00 -0.45593999997E+02  0.45594000000E+02  0.51100000000E-03 0.  1.
    9900012    2    1    2    0    0  0.17390323160E+00 -0.15774953559E+00  0.11567134301E+01  0.90007697831E+02  0.89999958643E+02 0.  0.
        -12    1    1    2    0    0 -0.17390323160E+00  0.15774953559E+00 -0.11567134301E+01  0.11803021687E+01  0.00000000000E+00 0.  1.
         11    1    3    3    0    0 -0.35081936147E+00  0.58447119564E+01 -0.73703067128E+01  0.94130310410E+01  0.51100000000E-03 0. -1.
        -11    1    3    3    0    0  0.16886109706E+02  0.24546523504E+02 -0.19852843051E+02  0.35802344820E+02  0.51100000000E-03 0.  1.
         12    1    3    3    0    0 -0.16361387113E+02 -0.30548984996E+02  0.28379863194E+02  0.44792321970E+02  0.00000000000E+00 0. -1.
</event>
<event>
 7    1  0.3925070E-015  0.9000771E+02  0.7816164E-02  0.1186339E+00
        -11   -1    0    0    0    0  0.00000000000E+00  0.00000000000E+00  0.45593999997E+02  0.45594000000E+02  0.51100000000E-03 0.  1.
         11   -1    0    0    0    0 -0.00000000000E+00 -0.00000000000E+00 -0.45593999997E+02  0.45594000000E+02  0.51100000000E-03 0. -1.
    9900012    2    1    2    0    0 -0.48215727314E+00  0.37884662672E+00 -0.10085102684E+01  0.90007706238E+02  0.89999967161E+02 0.  0.
        -12    1    1    2    0    0  0.48215727314E+00 -0.37884662672E+00  0.10085102684E+01  0.11802937618E+01  0.00000000000E+00 0.  1.
         11    1    3    3    0    0  0.36281634377E+02 -0.46292405115E+01  0.21873502082E+02  0.42617331619E+02  0.51100000000E-03 0. -1.
        -11    1    3    3    0    0 -0.23117412304E+00  0.41619320621E+01 -0.55634525940E+01  0.69517713564E+01  0.51100000000E-03 0.  1.
        -12    1    3    3    0    0 -0.36532617527E+02  0.84615507619E+00 -0.17318559756E+02  0.40438603262E+02  0.00000000000E+00 0.  1.
</event>
<event>
 7    1  0.3925070E-015  0.9000753E+02  0.7816164E-02  0.1186339E+00
        -11   -1    0    0    0    0  0.00000000000E+00  0.00000000000E+00  0.45593999997E+02  0.45594000000E+02  0.51100000000E-03 0. -1.
         11   -1    0    0    0    0 -0.00000000000E+00 -0.00000000000E+00 -0.45593999997E+02  0.45594000000E+02  0.51100000000E-03 0.  1.
    9900012    2    1    2    0    0  0.19755608358E+00  0.11596831213E+01  0.98002432584E-01  0.90007534912E+02  0.89999793572E+02 0.  0.
        -12    1    1    2    0    0 -0.19755608358E+00 -0.11596831213E+01 -0.98002432584E-01  0.11804650884E+01  0.00000000000E+00 0.  1.
         11    1    3    3    0    0  0.15974644596E+01  0.55488296866E+01  0.97666191898E+01  0.11345847445E+02  0.51100000000E-03 0. -1.
        -11    1    3    3    0    0  0.27542847145E+02  0.20120485743E+02  0.10522666094E+02  0.35695502201E+02  0.51100000000E-03 0.  1.
         12    1    3    3    0    0 -0.28942755521E+02 -0.24509632309E+02 -0.20191282851E+02  0.42966185265E+02  0.00000000000E+00 0. -1.
</event>
<event>
 7    1  0.3925070E-015  0.9000777E+02  0.7816164E-02  0.1186339E+00
        -11   -1    0    0    0    0  0.00000000000E+00  0.00000000000E+00  0.45593999997E+02  0.45594000000E+02  0.51100000000E-03 0.  1.
         11   -1    0    0    0    0 -0.00000000000E+00 -0.00000000000E+00 -0.45593999997E+02  0.45594000000E+02  0.51100000000E-03 0. -1.
    9900012    2    1    2    0    0 -0.92804008272E+00  0.66693265479E+00  0.29474856335E+00  0.90007773633E+02  0.90000035445E+02 0.  0.
        -12    1    1    2    0    0  0.92804008272E+00 -0.66693265479E+00 -0.29474856335E+00  0.11802263667E+01  0.00000000000E+00 0.  1.
         11    1    3    3    0    0  0.19573898140E+02  0.18269898113E+02 -0.26404688266E+02  0.37604976108E+02  0.51100000000E-03 0. -1.
        -11    1    3    3    0    0  0.80281661150E+01  0.32756115401E+01  0.10700511598E+01  0.87364805201E+01  0.51100000000E-03 0.  1.
        -12    1    3    3    0    0 -0.28530104338E+02 -0.20878576998E+02  0.25629385669E+02  0.43666317005E+02  0.00000000000E+00 0.  1.
</event>
<event>
 7    1  0.3925070E-015  0.9000781E+02  0.7816164E-02  0.1186339E+00
        -11   -1    0    0    0    0  0.00000000000E+00  0.00000000000E+00  0.45593999997E+02  0.45594000000E+02  0.51100000000E-03 0.  1.
         11   -1    0    0    0    0 -0.00000000000E+00 -0.00000000000E+00 -0.45593999997E+02  0.45594000000E+02  0.51100000000E-03 0. -1.
    9900012    2    1    2    0    0 -0.18245318578E-01 -0.10643075987E+01  0.50967491221E+00  0.90007808459E+02  0.90000070731E+02 0.  0.
        -12    1    1    2    0    0  0.18245318578E-01  0.10643075987E+01 -0.50967491221E+00  0.11801915405E+01  0.00000000000E+00 0.  1.
         11    1    3    3    0    0  0.64892813126E+01  0.51956158981E+00 -0.72847865188E+01  0.97697917626E+01  0.51100000000E-03 0. -1.
        -11    1    3    3    0    0  0.25541048267E+02  0.26480111334E+02 -0.71357474466E+00  0.36797426975E+02  0.51100000000E-03 0.  1.
         12    1    3    3    0    0 -0.32048574899E+02 -0.28063980522E+02  0.85080361756E+01  0.43440589721E+02  0.00000000000E+00 0. -1.
</event>
<event>
 7    1  0.3925070E-015  0.9000779E+02  0.7816164E-02  0.1186339E+00
        -11   -1    0    0    0    0  0.00000000000E+00  0.00000000000E+00  0.45593999997E+02  0.45594000000E+02  0.51100000000E-03 0.  1.
         11   -1    0    0    0    0 -0.00000000000E+00 -0.00000000000E+00 -0.45593999997E+02  0.45594000000E+02  0.51100000000E-03 0. -1.
    9900012    2    1    2    0    0 -0.81254551171E+00  0.53551374321E+00 -0.66775268545E+00  0.90007788652E+02  0.90000050662E+02 0.  0.
        -12    1    1    2    0    0  0.81254551171E+00 -0.53551374321E+00  0.66775268545E+00  0.11802113483E+01  0.00000000000E+00 0.  1.
         11    1    3    3    0    0  0.39291170363E+01  0.72546221343E+01  0.23604478883E+01  0.85813295876E+01  0.51100000000E-03 0. -1.
        -11    1    3    3    0    0  0.26531642108E+02 -0.29350158891E+02 -0.12840264889E+02  0.41596060661E+02  0.51100000000E-03 0.  1.
         12    1    3    3    0    0 -0.31273304656E+02  0.22631050499E+02  0.98120643153E+01  0.39830398403E+02  0.00000000000E+00 0. -1.
</event>
<event>
 7    1  0.3925070E-015  0.9000773E+02  0.7816164E-02  0.1186339E+00
        -11   -1    0    0    0    0  0.00000000000E+00  0.00000000000E+00  0.45593999997E+02  0.45594000000E+02  0.51100000000E-03 0. -1.
         11   -1    0    0    0    0 -0.00000000000E+00 -0.00000000000E+00 -0.45593999997E+02  0.45594000000E+02  0.51100000000E-03 0.  1.
    9900012    2    1    2    0    0  0.87431617341E+00 -0.56278704693E+00  0.55845165160E+00  0.90007734658E+02  0.89999995955E+02 0.  0.
        -12    1    1    2    0    0 -0.87431617341E+00  0.56278704693E+00 -0.55845165160E+00  0.11802653424E+01  0.00000000000E+00 0.  1.
         11    1    3    3    0    0  0.19254783310E+01 -0.29998809985E+01  0.78712952869E+01  0.86408357560E+01  0.51100000000E-03 0. -1.
        -11    1    3    3    0    0 -0.18420929435E+02 -0.30700252788E+02  0.13843245343E+02  0.38385825566E+02  0.51100000000E-03 0.  1.
         12    1    3    3    0    0  0.17369767278E+02  0.33137346739E+02 -0.21156088979E+02  0.42981073336E+02  0.00000000000E+00 0. -1.
</event>
<event>
 7    1  0.3925070E-015  0.9000761E+02  0.7816164E-02  0.1186339E+00
        -11   -1    0    0    0    0  0.00000000000E+00  0.00000000000E+00  0.45593999997E+02  0.45594000000E+02  0.51100000000E-03 0.  1.
         11   -1    0    0    0    0 -0.00000000000E+00 -0.00000000000E+00 -0.45593999997E+02  0.45594000000E+02  0.51100000000E-03 0. -1.
    9900012    2    1    2    0    0  0.54406181869E-01 -0.11716879448E+01 -0.13231219035E+00  0.90007610578E+02  0.89999870237E+02 0.  0.
        -12    1    1    2    0    0 -0.54406181869E-01  0.11716879448E+01  0.13231219035E+00  0.11803894223E+01  0.00000000000E+00 0.  1.
         11    1    3    3    0    0 -0.11394215961E+02  0.12430747843E+01 -0.50038284338E+01  0.12506465989E+02  0.51100000000E-03 0. -1.
        -11    1    3    3    0    0 -0.21067807131E+02 -0.27585237753E+00  0.29783627804E+02  0.36482777817E+02  0.51100000000E-03 0.  1.
         12    1    3    3    0    0  0.32516429273E+02 -0.21389103516E+01 -0.24912111560E+02  0.41018366771E+02  0.00000000000E+00 0. -1.
</event>
<event>
 7    1  0.3925070E-015  0.9000769E+02  0.7816164E-02  0.1186339E+00
        -11   -1    0    0    0    0  0.00000000000E+00  0.00000000000E+00  0.45593999997E+02  0.45594000000E+02  0.51100000000E-03 0. -1.
         11   -1    0    0    0    0 -0.00000000000E+00 -0.00000000000E+00 -0.45593999997E+02  0.45594000000E+02  0.51100000000E-03 0.  1.
    9900012    2    1    2    0    0  0.11575657365E+01 -0.21528162820E+00  0.82622167569E-01  0.90007690280E+02  0.89999950991E+02 0.  0.
        -12    1    1    2    0    0 -0.11575657365E+01  0.21528162820E+00 -0.82622167569E-01  0.11803097205E+01  0.00000000000E+00 0.  1.
         11    1    3    3    0    0 -0.38996737323E+02 -0.99738072722E+00 -0.12439731408E+02  0.40944928965E+02  0.51100000000E-03 0. -1.
        -11    1    3    3    0    0  0.37114706605E+01 -0.78909328962E+01 -0.18945785238E+01  0.89236351606E+01  0.51100000000E-03 0.  1.
        -12    1    3    3    0    0  0.36442832399E+02  0.86730319952E+01  0.14416932099E+02  0.40139126154E+02  0.00000000000E+00 0.  1.
</event>
<event>
 7    1  0.3925070E-015  0.9000771E+02  0.7816164E-02  0.1186339E+00
        -11   -1    0    0    0    0  0.00000000000E+00  0.00000000000E+00  0.45593999997E+02  0.45594000000E+02  0.51100000000E-03 0. -1.
         11   -1    0    0    0    0 -0.00000000000E+00 -0.00000000000E+00 -0.45593999997E+02  0.45594000000E+02  0.51100000000E-03 0.  1.
    9900012    2    1    2    0    0  0.92548743771E-01 -0.73263244516E+00  0.92074794628E+00  0.90007706668E+02  0.89999967596E+02 0.  0.
        -12    1    1    2    0    0 -0.92548743771E-01  0.73263244516E+00 -0.92074794628E+00  0.11802933323E+01  0.00000000000E+00 0.  1.
         11    1    3    3    0    0  0.80388209303E+01  0.34098419666E+02  0.20677494104E+02  0.40680260918E+02  0.51100000000E-03 0. -1.
        -11    1    3    3    0    0 -0.82177184793E+01  0.19148363178E+01 -0.32258849797E+01  0.90334837849E+01  0.51100000000E-03 0.  1.
        -12    1    3    3    0    0  0.27144629271E+00 -0.36745888429E+02 -0.16530861178E+02  0.40293961965E+02  0.00000000000E+00 0.  1.
</event>
<event>
 7    1  0.3925070E-015  0.9000749E+02  0.7816164E-02  0.1186340E+00
        -11   -1    0    0    0    0  0.00000000000E+00  0.00000000000E+00  0.45593999997E+02  0.45594000000E+02  0.51100000000E-03 0.  1.
         11   -1    0    0    0    0 -0.00000000000E+00 -0.00000000000E+00 -0.45593999997E+02  0.45594000000E+02  0.51100000000E-03 0. -1.
    9900012    2    1    2    0    0 -0.71756776127E-01 -0.18585746856E+00 -0.11635769178E+01  0.90007490247E+02  0.89999748318E+02 0.  0.
        -12    1    1    2    0    0  0.71756776127E-01  0.18585746856E+00  0.11635769178E+01  0.11805097531E+01  0.00000000000E+00 0.  1.
         11    1    3    3    0    0 -0.20202244631E+02  0.32203363190E+02  0.64253454892E+01  0.38554796768E+02  0.51100000000E-03 0. -1.
        -11    1    3    3    0    0  0.10629220300E+01  0.69395657888E+01 -0.24900652172E+01  0.74490134666E+01  0.51100000000E-03 0.  1.
        -12    1    3    3    0    0  0.19067565825E+02 -0.39328786448E+02 -0.50988571898E+01  0.44003680012E+02  0.00000000000E+00 0.  1.
</event>
<event>
 7    1  0.3925070E-015  0.9000774E+02  0.7816164E-02  0.1186339E+00
        -11   -1    0    0    0    0  0.00000000000E+00  0.00000000000E+00  0.45593999997E+02  0.45594000000E+02  0.51100000000E-03 0.  1.
         11   -1    0    0    0    0 -0.00000000000E+00 -0.00000000000E+00 -0.45593999997E+02  0.45594000000E+02  0.51100000000E-03 0. -1.
    9900012    2    1    2    0    0  0.60852883203E+00  0.73759099421E+00 -0.69185071184E+00  0.90007743578E+02  0.90000004993E+02 0.  0.
        -12    1    1    2    0    0 -0.60852883203E+00 -0.73759099421E+00  0.69185071184E+00  0.11802564220E+01  0.00000000000E+00 0.  1.
         11    1    3    3    0    0 -0.10336296427E+02 -0.12164781975E+02  0.23993965133E+01  0.16142430059E+02  0.51100000000E-03 0. -1.
        -11    1    3    3    0    0  0.11144028547E+02 -0.28546174273E+02  0.64883837700E+01  0.31323674147E+02  0.51100000000E-03 0.  1.
         12    1    3    3    0    0 -0.19920328780E+00  0.41448547242E+02 -0.95796309951E+01  0.42541639372E+02  0.00000000000E+00 0. -1.
</event>
<event>
 7    1  0.3925070E-015  0.9000785E+02  0.7816164E-02  0.1186339E+00
        -11   -1    0    0    0    0  0.00000000000E+00  0.00000000000E+00  0.45593999997E+02  0.45594000000E+02  0.51100000000E-03 0.  1.
         11   -1    0    0    0    0 -0.00000000000E+00 -0.00000000000E+00 -0.45593999997E+02  0.45594000000E+02  0.51100000000E-03 0. -1.
    9900012    2    1    2    0    0 -0.17399963647E-01 -0.85463697277E+00 -0.81365953602E+00  0.90007852147E+02  0.90000114995E+02 0.  0.
        -12    1    1    2    0    0  0.17399963647E-01  0.85463697277E+00  0.81365953602E+00  0.11801478528E+01  0.00000000000E+00 0.  1.
         11    1    3    3    0    0  0.27227935818E+01 -0.47833234317E+01  0.91012881008E+01  0.10636128680E+02  0.51100000000E-03 0. -1.
        -11    1    3    3    0    0 -0.11675221063E+02  0.15309674643E+01  0.33225570488E+02  0.35250435213E+02  0.51100000000E-03 0.  1.
         12    1    3    3    0    0  0.89350275178E+01  0.23977189946E+01 -0.43140518124E+02  0.44121288254E+02  0.00000000000E+00 0. -1.
</event>
<event>
 7    1  0.3925070E-015  0.9000778E+02  0.7816164E-02  0.1186339E+00
        -11   -1    0    0    0    0  0.00000000000E+00  0.00000000000E+00  0.45593999997E+02  0.45594000000E+02  0.51100000000E-03 0.  1.
         11   -1    0    0    0    0 -0.00000000000E+00 -0.00000000000E+00 -0.45593999997E+02  0.45594000000E+02  0.51100000000E-03 0. -1.
    9900012    2    1    2    0    0 -0.42668042916E+00  0.49100613615E+00 -0.98477004573E+00  0.90007781691E+02  0.90000043609E+02 0.  0.
        -12    1    1    2    0    0  0.42668042916E+00 -0.49100613615E+00  0.98477004573E+00  0.11802183092E+01  0.00000000000E+00 0.  1.
         11    1    3    3    0    0 -0.33447677896E+02  0.15371252420E+02 -0.95277693655E+01  0.38023689286E+02  0.51100000000E-03 0. -1.
        -11    1    3    3    0    0 -0.68687383717E+01 -0.30039751439E+01  0.71207378134E+01  0.10339648967E+02  0.51100000000E-03 0.  1.
        -12    1    3    3    0    0  0.39889735839E+02 -0.11876271140E+02  0.14222615064E+01  0.41644443438E+02  0.00000000000E+00 0.  1.
</event>
<event>
 7    1  0.3925070E-015  0.9000784E+02  0.7816164E-02  0.1186339E+00
        -11   -1    0    0    0    0  0.00000000000E+00  0.00000000000E+00  0.45593999997E+02  0.45594000000E+02  0.51100000000E-03 0.  1.
         11   -1    0    0    0    0 -0.00000000000E+00 -0.00000000000E+00 -0.45593999997E+02  0.45594000000E+02  0.51100000000E-03 0. -1.
    9900012    2    1    2    0    0 -0.84312306962E+00  0.77095759704E+00 -0.29588417072E+00  0.90007839176E+02  0.90000101854E+02 0.  0.
        -12    1    1    2    0    0  0.84312306962E+00 -0.77095759704E+00  0.29588417072E+00  0.11801608236E+01  0.00000000000E+00 0.  1.
         11    1    3    3    0    0  0.68798597757E+01  0.13314569358E+02 -0.12935060936E+02  0.19797121746E+02  0.51100000000E-03 0. -1.
        -11    1    3    3    0    0  0.31588315295E+01  0.20953411104E+01  0.38432757145E+02  0.38619237344E+02  0.51100000000E-03 0.  1.
         12    1    3    3    0    0 -0.10881814375E+02 -0.14638952872E+02 -0.25793580379E+02  0.31591480087E+02  0.00000000000E+00 0. -1.
</event>
<event>
 7    1  0.3925070E-015  0.9000776E+02  0.7816164E-02  0.1186339E+00
        -11   -1    0    0    0    0  0.00000000000E+00  0.00000000000E+00  0.45593999997E+02  0.45594000000E+02  0.51100000000E-03 0.  1.
         11   -1    0    0    0    0 -0.00000000000E+00 -0.00000000000E+00 -0.45593999997E+02  0.45594000000E+02  0.51100000000E-03 0. -1.
    9900012    2    1    2    0    0  0.11642550258E+01  0.11913461321E+00 -0.15259286001E+00  0.90007759600E+02  0.90000021227E+02 0.  0.
        -12    1    1    2    0    0 -0.11642550258E+01 -0.11913461321E+00  0.15259286001E+00  0.11802404001E+01  0.00000000000E+00 0.  1.
         11    1    3    3    0    0  0.12289839465E+02  0.21660039091E+02  0.27294255124E+01  0.25052888285E+02  0.51100000000E-03 0. -1.
        -11    1    3    3    0    0 -0.13564929346E+02  0.13019901784E+02  0.16708066878E+02  0.25153223445E+02  0.51100000000E-03 0.  1.
         12    1    3    3    0    0  0.24393449070E+01 -0.34560806262E+02 -0.19590085250E+02  0.39801647870E+02  0.00000000000E+00 0. -1.
</event>
<event>
 7    1  0.3925070E-015  0.9000773E+02  0.7816164E-02  0.1186339E+00
        -11   -1    0    0    0    0  0.00000000000E+00  0.00000000000E+00  0.45593999997E+02  0.45594000000E+02  0.51100000000E-03 0.  1.
         11   -1    0    0    0    0 -0.00000000000E+00 -0.00000000000E+00 -0.45593999997E+02  0.45594000000E+02  0.51100000000E-03 0. -1.
    9900012    2    1    2    0    0 -0.10524382869E+01  0.47655920987E+00  0.24146509996E+00  0.90007728666E+02  0.89999989884E+02 0.  0.
        -12    1    1    2    0    0  0.10524382869E+01 -0.47655920987E+00 -0.24146509996E+00  0.11802713343E+01  0.00000000000E+00 0.  1.
         11    1    3    3    0    0  0.13226027440E+02 -0.60808818686E+01 -0.12230518519E+02  0.19012903767E+02  0.51100000000E-03 0. -1.
        -11    1    3    3    0    0 -0.26710247418E+02 -0.20778520255E+02  0.20937941814E+02  0.39794241151E+02  0.51100000000E-03 0.  1.
         12    1    3    3    0    0  0.12431781691E+02  0.27335961334E+02 -0.84659581950E+01  0.31200583748E+02  0.00000000000E+00 0. -1.
</event>
<event>
 7    1  0.3925070E-015  0.9000772E+02  0.7816164E-02  0.1186339E+00
        -11   -1    0    0    0    0  0.00000000000E+00  0.00000000000E+00  0.45593999997E+02  0.45594000000E+02  0.51100000000E-03 0.  1.
         11   -1    0    0    0    0 -0.00000000000E+00 -0.00000000000E+00 -0.45593999997E+02  0.45594000000E+02  0.51100000000E-03 0. -1.
    9900012    2    1    2    0    0  0.22901975100E+00  0.37750509284E+00 -0.10945776670E+01  0.90007720198E+02  0.89999981305E+02 0.  0.
        -12    1    1    2    0    0 -0.22901975100E+00 -0.37750509284E+00  0.10945776670E+01  0.11802798018E+01  0.00000000000E+00 0.  1.
         11    1    3    3    0    0  0.10742190680E+02 -0.10999117211E+02  0.25688475070E+01  0.15587630282E+02  0.51100000000E-03 0. -1.
        -11    1    3    3    0    0 -0.23919514900E+02  0.18701159847E+02  0.26698645916E+02  0.40431352521E+02  0.51100000000E-03 0.  1.
         12    1    3    3    0    0  0.13406343970E+02 -0.73245375429E+01 -0.30362071090E+02  0.33988737395E+02  0.00000000000E+00 0. -1.
</event>
<event>
 7    1  0.3925070E-015  0.9000777E+02  0.7816164E-02  0.1186339E+00
        -11   -1    0    0    0    0  0.00000000000E+00  0.00000000000E+00  0.45593999997E+02  0.45594000000E+02  0.51100000000E-03 0.  1.
         11   -1    0    0    0    0 -0.00000000000E+00 -0.00000000000E+00 -0.45593999997E+02  0.45594000000E+02  0.51100000000E-03 0. -1.
    9900012    2    1    2    0    0  0.69581500398E+00  0.90276741600E+00  0.30626247476E+00  0.90007769416E+02  0.90000031173E+02 0.  0.
        -12    1    1    2    0    0 -0.69581500398E+00 -0.90276741600E+00 -0.30626247476E+00  0.11802305837E+01  0.00000000000E+00 0.  1.
         11    1    3    3    0    0 -0.21138747709E+02 -0.14299871520E+02 -0.28867333682E+02  0.38531233232E+02  0.51100000000E-03 0. -1.
        -11    1    3    3    0    0 -0.85068907034E+01  0.62100550113E+01  0.50280874461E+01  0.11671059777E+02  0.51100000000E-03 0.  1.
        -12    1    3    3    0    0  0.30341453417E+02  0.89925839252E+01  0.24145508711E+02  0.39805476407E+02  0.00000000000E+00 0.  1.
</event>
<event>
 7    1  0.3925070E-015  0.9000736E+02  0.7816164E-02  0.1186340E+00
        -11   -1    0    0    0    0  0.00000000000E+00  0.00000000000E+00  0.45593999997E+02  0.45594000000E+02  0.51100000000E-03 0.  1.
         11   -1    0    0    0    0 -0.00000000000E+00 -0.00000000000E+00 -0.45593999997E+02  0.45594000000E+02  0.51100000000E-03 0. -1.
    9900012    2    1    2    0    0  0.11280220852E+01 -0.34852964336E+00  0.23805830452E-02  0.90007359325E+02  0.89999615667E+02 0.  0.
        -12    1    1    2    0    0 -0.11280220852E+01  0.34852964336E+00 -0.23805830452E-02  0.11806406753E+01  0.00000000000E+00 0.  1.
         11    1    3    3    0    0  0.56449561221E+01  0.35088267240E+01 -0.75974640057E+01  0.10094496232E+02  0.51100000000E-03 0. -1.
        -11    1    3    3    0    0 -0.28088698606E+02  0.21948932157E+02  0.22243485389E+02  0.42017892078E+02  0.51100000000E-03 0.  1.
         12    1    3    3    0    0  0.23571764569E+02 -0.25806288524E+02 -0.14643640800E+02  0.37894971014E+02  0.00000000000E+00 0. -1.
</event>
<event>
 7    1  0.3925070E-015  0.9000779E+02  0.7816164E-02  0.1186339E+00
        -11   -1    0    0    0    0  0.00000000000E+00  0.00000000000E+00  0.45593999997E+02  0.45594000000E+02  0.51100000000E-03 0. -1.
         11   -1    0    0    0    0 -0.00000000000E+00 -0.00000000000E+00 -0.45593999997E+02  0.45594000000E+02  0.51100000000E-03 0.  1.
    9900012    2    1    2    0    0  0.16528629391E-02 -0.67016490817E+00 -0.97147463390E+00  0.90007793789E+02  0.90000055867E+02 0.  0.
        -12    1    1    2    0    0 -0.16528629391E-02  0.67016490817E+00  0.97147463390E+00  0.11802062110E+01  0.00000000000E+00 0.  1.
         11    1    3    3    0    0  0.49323764796E+01  0.37511610163E+01  0.61471864271E+01  0.87285421427E+01  0.51100000000E-03 0. -1.
        -11    1    3    3    0    0  0.74665777091E+01 -0.41251402249E+02 -0.64344028349E+01  0.42412610274E+02  0.51100000000E-03 0.  1.
         12    1    3    3    0    0 -0.12397301326E+02  0.36830076324E+02 -0.68425822611E+00  0.38866641372E+02  0.00000000000E+00 0. -1.
</event>
<event>
 7    1  0.3925070E-015  0.9000778E+02  0.7816164E-02  0.1186339E+00
        -11   -1    0    0    0    0  0.00000000000E+00  0.00000000000E+00  0.45593999997E+02  0.45594000000E+02  0.51100000000E-03 0.  1.
         11   -1    0    0    0    0 -0.00000000000E+00 -0.00000000000E+00 -0.45593999997E+02  0.45594000000E+02  0.51100000000E-03 0. -1.
    9900012    2    1    2    0    0  0.36871072703E+00  0.70087753177E+00 -0.87506056940E+00  0.90007784801E+02  0.90000046761E+02 0.  0.
        -12    1    1    2    0    0 -0.36871072703E+00 -0.70087753177E+00  0.87506056940E+00  0.11802151986E+01  0.00000000000E+00 0.  1.
         11    1    3    3    0    0 -0.46137621360E+00 -0.88234523627E+01  0.24721947261E+01  0.91748529488E+01  0.51100000000E-03 0. -1.
        -11    1    3    3    0    0 -0.34317108781E+02 -0.31664741418E+01  0.16843594143E+02  0.38358795308E+02  0.51100000000E-03 0.  1.
         12    1    3    3    0    0  0.35147195722E+02  0.12690804036E+02 -0.20190849438E+02  0.42474136545E+02  0.00000000000E+00 0. -1.
</event>
<event>
 7    1  0.3925070E-015  0.9000779E+02  0.7816164E-02  0.1186339E+00
        -11   -1    0    0    0    0  0.00000000000E+00  0.00000000000E+00  0.45593999997E+02  0.45594000000E+02  0.51100000000E-03 0. -1.
         11   -1    0    0    0    0 -0.00000000000E+00 -0.00000000000E+00 -0.45593999997E+02  0.45594000000E+02  0.51100000000E-03 0.  1.
    9900012    2    1    2    0    0  0.32650704670E+00 -0.10748297272E+01  0.36196879862E+00  0.90007793575E+02  0.90000055650E+02 0.  0.
        -12    1    1    2    0    0 -0.32650704670E+00  0.10748297272E+01 -0.36196879862E+00  0.11802064248E+01  0.00000000000E+00 0.  1.
         11    1    3    3    0    0 -0.76765454274E+01  0.70393724874E+01 -0.76832475407E+00  0.10443775079E+02  0.51100000000E-03 0. -1.
        -11    1    3    3    0    0 -0.34752418144E+02  0.29295597915E+01  0.50164207640E+01  0.35234604652E+02  0.51100000000E-03 0.  1.
         12    1    3    3    0    0  0.42755470618E+02 -0.11043762006E+02 -0.38861272113E+01  0.44329413844E+02  0.00000000000E+00 0. -1.
</event>
<event>
 7    1  0.3925070E-015  0.9000779E+02  0.7816164E-02  0.1186339E+00
        -11   -1    0    0    0    0  0.00000000000E+00  0.00000000000E+00  0.45593999997E+02  0.45594000000E+02  0.51100000000E-03 0.  1.
         11   -1    0    0    0    0 -0.00000000000E+00 -0.00000000000E+00 -0.45593999997E+02  0.45594000000E+02  0.51100000000E-03 0. -1.
    9900012    2    1    2    0    0 -0.98263385691E+00  0.65332228511E+00  0.22081365841E-01  0.90007793708E+02  0.90000055785E+02 0.  0.
        -12    1    1    2    0    0  0.98263385691E+00 -0.65332228511E+00 -0.22081365841E-01  0.11802062920E+01  0.00000000000E+00 0.  1.
         11    1    3    3    0    0 -0.80257089322E+01  0.62165341822E+01 -0.46299520358E+01  0.11157677053E+02  0.51100000000E-03 0. -1.
        -11    1    3    3    0    0 -0.30152047437E+02 -0.11269634377E+02 -0.15977015560E+02  0.35936272067E+02  0.51100000000E-03 0.  1.
         12    1    3    3    0    0  0.37195122512E+02  0.57064224800E+01  0.20629048961E+02  0.42913844588E+02  0.00000000000E+00 0. -1.
</event>
<event>
 7    1  0.3925070E-015  0.9000750E+02  0.7816164E-02  0.1186340E+00
        -11   -1    0    0    0    0  0.00000000000E+00  0.00000000000E+00  0.45593999997E+02  0.45594000000E+02  0.51100000000E-03 0.  1.
         11   -1    0    0    0    0 -0.00000000000E+00 -0.00000000000E+00 -0.45593999997E+02  0.45594000000E+02  0.51100000000E-03 0. -1.
    9900012    2    1    2    0    0  0.25933464581E+00 -0.90687971928E+00 -0.70986073738E+00  0.90007496908E+02  0.89999755067E+02 0.  0.
        -12    1    1    2    0    0 -0.25933464581E+00  0.90687971928E+00  0.70986073738E+00  0.11805030920E+01  0.00000000000E+00 0.  1.
         11    1    3    3    0    0  0.10484063439E+02 -0.49199484426E+01  0.41728145297E+01  0.12309909026E+02  0.51100000000E-03 0. -1.
        -11    1    3    3    0    0 -0.18205741861E+02  0.86480851178E+00  0.33624282885E+02  0.38246428987E+02  0.51100000000E-03 0.  1.
         12    1    3    3    0    0  0.79810130672E+01  0.31482602116E+01 -0.38506958153E+02  0.39451158894E+02  0.00000000000E+00 0. -1.
</event>
<event>
 7    1  0.3925070E-015  0.9000765E+02  0.7816164E-02  0.1186339E+00
        -11   -1    0    0    0    0  0.00000000000E+00  0.00000000000E+00  0.45593999997E+02  0.45594000000E+02  0.51100000000E-03 0.  1.
         11   -1    0    0    0    0 -0.00000000000E+00 -0.00000000000E+00 -0.45593999997E+02  0.45594000000E+02  0.51100000000E-03 0. -1.
    9900012    2    1    2    0    0 -0.63233682364E+00  0.84873830624E+00  0.52251049682E+00  0.90007650988E+02  0.89999911181E+02 0.  0.
        -12    1    1    2    0    0  0.63233682364E+00 -0.84873830624E+00 -0.52251049682E+00  0.11803490121E+01  0.00000000000E+00 0.  1.
         11    1    3    3    0    0 -0.15430090182E+02 -0.80327027369E+01 -0.15112614757E+02  0.23043504971E+02  0.51100000000E-03 0. -1.
        -11    1    3    3    0    0 -0.20623930036E+02  0.14708901181E+02  0.17864107372E+02  0.30997170783E+02  0.51100000000E-03 0.  1.
        -12    1    3    3    0    0  0.35421683395E+02 -0.58274601379E+01 -0.22289821181E+01  0.35966975234E+02  0.00000000000E+00 0.  1.
</event>
<event>
 7    1  0.3925070E-015  0.9000777E+02  0.7816164E-02  0.1186339E+00
        -11   -1    0    0    0    0  0.00000000000E+00  0.00000000000E+00  0.45593999997E+02  0.45594000000E+02  0.51100000000E-03 0. -1.
         11   -1    0    0    0    0 -0.00000000000E+00 -0.00000000000E+00 -0.45593999997E+02  0.45594000000E+02  0.51100000000E-03 0.  1.
    9900012    2    1    2    0    0  0.78103635204E+00  0.88235343890E+00 -0.66153099203E-01  0.90007770528E+02  0.90000032299E+02 0.  0.
        -12    1    1    2    0    0 -0.78103635204E+00 -0.88235343890E+00  0.66153099203E-01  0.11802294721E+01  0.00000000000E+00 0.  1.
         11    1    3    3    0    0  0.32376653640E+02  0.18730063386E+02  0.15063329661E+02  0.40323279581E+02  0.51100000000E-03 0. -1.
        -11    1    3    3    0    0 -0.40495834367E+01  0.81421832012E+01 -0.54264217503E+01  0.10589632976E+02  0.51100000000E-03 0.  1.
        -12    1    3    3    0    0 -0.27546033852E+02 -0.25989893149E+02 -0.97030610102E+01  0.39094857971E+02  0.00000000000E+00 0.  1.
</event>
<event>
 7    1  0.3925070E-015  0.9000762E+02  0.7816164E-02  0.1186339E+00
        -11   -1    0    0    0    0  0.00000000000E+00  0.00000000000E+00  0.45593999997E+02  0.45594000000E+02  0.51100000000E-03 0. -1.
         11   -1    0    0    0    0 -0.00000000000E+00 -0.00000000000E+00 -0.45593999997E+02  0.45594000000E+02  0.51100000000E-03 0.  1.
    9900012    2    1    2    0    0 -0.11632239003E+01  0.29751510254E-01 -0.19832155476E+00  0.90007615980E+02  0.89999875711E+02 0.  0.
        -12    1    1    2    0    0  0.11632239003E+01 -0.29751510254E-01  0.19832155476E+00  0.11803840196E+01  0.00000000000E+00 0.  1.
         11    1    3    3    0    0  0.54526750728E+01  0.81878084073E+01  0.10682845162E+01  0.98951050542E+01  0.51100000000E-03 0. -1.
        -11    1    3    3    0    0  0.27177876118E+02  0.17412876542E+02 -0.14961636196E+02  0.35576618413E+02  0.51100000000E-03 0.  1.
         12    1    3    3    0    0 -0.33793775091E+02 -0.25570933439E+02  0.13695030125E+02  0.44535892514E+02  0.00000000000E+00 0. -1.
</event>
<event>
 7    1  0.3925070E-015  0.9000794E+02  0.7816164E-02  0.1186339E+00
        -11   -1    0    0    0    0  0.00000000000E+00  0.00000000000E+00  0.45593999997E+02  0.45594000000E+02  0.51100000000E-03 0.  1.
         11   -1    0    0    0    0 -0.00000000000E+00 -0.00000000000E+00 -0.45593999997E+02  0.45594000000E+02  0.51100000000E-03 0. -1.
    9900012    2    1    2    0    0 -0.42579505114E+00  0.33861525770E+00 -0.10471804920E+01  0.90007936993E+02  0.90000200961E+02 0.  0.
        -12    1    1    2    0    0  0.42579505114E+00 -0.33861525770E+00  0.10471804920E+01  0.11800630073E+01  0.00000000000E+00 0.  1.
         11    1    3    3    0    0 -0.29733607411E+02 -0.25263009970E+02 -0.10762313171E+02  0.40473873888E+02  0.51100000000E-03 0. -1.
        -11    1    3    3    0    0 -0.55428818034E+01  0.64037433252E+01  0.38947453077E+01  0.93220442251E+01  0.51100000000E-03 0.  1.
        -12    1    3    3    0    0  0.34850694164E+02  0.19197881903E+02  0.58203873709E+01  0.40212018880E+02  0.00000000000E+00 0.  1.
</event>
<event>
 7    1  0.3925070E-015  0.9000775E+02  0.7816164E-02  0.1186339E+00
        -11   -1    0    0    0    0  0.00000000000E+00  0.00000000000E+00  0.45593999997E+02  0.45594000000E+02  0.51100000000E-03 0.  1.
         11   -1    0    0    0    0 -0.00000000000E+00 -0.00000000000E+00 -0.45593999997E+02  0.45594000000E+02  0.51100000000E-03 0. -1.
    9900012    2    1    2    0    0  0.11200166821E+01 -0.14588918381E+00 -0.34244057897E+00  0.90007751479E+02  0.90000012998E+02 0.  0.
        -12    1    1    2    0    0 -0.11200166821E+01  0.14588918381E+00  0.34244057897E+00  0.11802485214E+01  0.00000000000E+00 0.  1.
         11    1    3    3    0    0 -0.32112370069E+01  0.29869059049E+02 -0.23039984294E+02  0.37859128465E+02  0.51100000000E-03 0. -1.
        -11    1    3    3    0    0 -0.61576926781E+01  0.51098030736E+01 -0.16129418487E+01  0.81626495844E+01  0.51100000000E-03 0.  1.
        -12    1    3    3    0    0  0.10488946367E+02 -0.35124751306E+02  0.24310485564E+02  0.43985973430E+02  0.00000000000E+00 0.  1.
</event>
<event>
 7    1  0.3925070E-015  0.9000780E+02  0.7816164E-02  0.1186339E+00
        -11   -1    0    0    0    0  0.00000000000E+00  0.00000000000E+00  0.45593999997E+02  0.45594000000E+02  0.51100000000E-03 0. -1.
         11   -1    0    0    0    0 -0.00000000000E+00 -0.00000000000E+00 -0.45593999997E+02  0.45594000000E+02  0.51100000000E-03 0.  1.
    9900012    2    1    2    0    0  0.73814465690E+00 -0.79473194079E+00  0.46519805894E+00  0.90007802717E+02  0.90000064913E+02 0.  0.
        -12    1    1    2    0    0 -0.73814465690E+00  0.79473194079E+00 -0.46519805894E+00  0.11801972828E+01  0.00000000000E+00 0.  1.
         11    1    3    3    0    0  0.59592696405E+01 -0.18133430165E+01 -0.92929305203E+01  0.11187478065E+02  0.51100000000E-03 0. -1.
        -11    1    3    3    0    0 -0.59232156210E-01  0.39439608141E+02  0.54882947254E+01  0.39819688321E+02  0.51100000000E-03 0.  1.
         12    1    3    3    0    0 -0.51618928274E+01 -0.38420997065E+02  0.42698338539E+01  0.39000636331E+02  0.00000000000E+00 0. -1.
</event>
<event>
 7    1  0.3925070E-015  0.9000762E+02  0.7816164E-02  0.1186339E+00
        -11   -1    0    0    0    0  0.00000000000E+00  0.00000000000E+00  0.45593999997E+02  0.45594000000E+02  0.51100000000E-03 0.  1.
         11   -1    0    0    0    0 -0.00000000000E+00 -0.00000000000E+00 -0.45593999997E+02  0.45594000000E+02  0.51100000000E-03 0. -1.
    9900012    2    1    2    0    0  0.81146826220E+00 -0.79609485735E+00 -0.31786450570E+00  0.90007624803E+02  0.89999884650E+02 0.  0.
        -12    1    1    2    0    0 -0.81146826220E+00  0.79609485735E+00  0.31786450570E+00  0.11803751973E+01  0.00000000000E+00 0.  1.
         11    1    3    3    0    0 -0.34465908947E+01  0.44841045188E+01  0.96038463818E+01  0.11145404780E+02  0.51100000000E-03 0. -1.
        -11    1    3    3    0    0  0.35448585841E+02  0.14744549250E+02  0.53697962048E+01  0.38766463370E+02  0.51100000000E-03 0.  1.
         12    1    3    3    0    0 -0.31190526684E+02 -0.20024748626E+02 -0.15291507092E+02  0.40095756652E+02  0.00000000000E+00 0. -1.
</event>
<event>
 7    1  0.3925070E-015  0.9000780E+02  0.7816164E-02  0.1186339E+00
        -11   -1    0    0    0    0  0.00000000000E+00  0.00000000000E+00  0.45593999997E+02  0.45594000000E+02  0.51100000000E-03 0.  1.
         11   -1    0    0    0    0 -0.00000000000E+00 -0.00000000000E+00 -0.45593999997E+02  0.45594000000E+02  0.51100000000E-03 0. -1.
    9900012    2    1    2    0    0  0.88196782925E+00  0.15107490163E+00 -0.76953467178E+00  0.90007798963E+02  0.90000061109E+02 0.  0.
        -12    1    1    2    0    0 -0.88196782925E+00 -0.15107490163E+00  0.76953467178E+00  0.11802010375E+01  0.00000000000E+00 0.  1.
         11    1    3    3    0    0 -0.50801902954E+01 -0.47554100347E+01  0.49447962804E+01  0.85365841267E+01  0.51100000000E-03 0. -1.
        -11    1    3    3    0    0 -0.64968327523E+01  0.20509108351E+02  0.32138876173E+02  0.38674794416E+02  0.51100000000E-03 0.  1.
         12    1    3    3    0    0  0.12458990877E+02 -0.15602623414E+02 -0.37853207126E+02  0.42796420420E+02  0.00000000000E+00 0. -1.
</event>
<event>
 7    1  0.3925070E-015  0.9000770E+02  0.7816164E-02  0.1186339E+00
        -11   -1    0    0    0    0  0.00000000000E+00  0.00000000000E+00  0.45593999997E+02  0.45594000000E+02  0.51100000000E-03 0.  1.
         11   -1    0    0    0    0 -0.00000000000E+00 -0.00000000000E+00 -0.45593999997E+02  0.45594000000E+02  0.51100000000E-03 0. -1.
    9900012    2    1    2    0    0 -0.90110791884E-01  0.97868479129E+00 -0.65356980400E+00  0.90007704544E+02  0.89999965444E+02 0.  0.
        -12    1    1    2    0    0  0.90110791884E-01 -0.97868479129E+00  0.65356980400E+00  0.11802954563E+01  0.00000000000E+00 0.  1.
         11    1    3    3    0    0  0.65261617248E+00 -0.87261396301E+01  0.13077406973E+00  0.87514868925E+01  0.51100000000E-03 0. -1.
        -11    1    3    3    0    0  0.27057545242E+02 -0.24950353990E+02 -0.12356105048E+01  0.36826045842E+02  0.51100000000E-03 0.  1.
         12    1    3    3    0    0 -0.27800272207E+02  0.34655178411E+02  0.45126663103E+00  0.44430171810E+02  0.00000000000E+00 0. -1.
</event>
<event>
 7    1  0.3925070E-015  0.9000759E+02  0.7816164E-02  0.1186339E+00
        -11   -1    0    0    0    0  0.00000000000E+00  0.00000000000E+00  0.45593999997E+02  0.45594000000E+02  0.51100000000E-03 0.  1.
         11   -1    0    0    0    0 -0.00000000000E+00 -0.00000000000E+00 -0.45593999997E+02  0.45594000000E+02  0.51100000000E-03 0. -1.
    9900012    2    1    2    0    0 -0.13410512057E-02  0.11928316349E+00 -0.11743717015E+01  0.90007585173E+02  0.89999844497E+02 0.  0.
        -12    1    1    2    0    0  0.13410512057E-02 -0.11928316349E+00  0.11743717015E+01  0.11804148275E+01  0.00000000000E+00 0.  1.
         11    1    3    3    0    0  0.10015837913E+01 -0.79903996756E+01 -0.54092432960E+01  0.97010087292E+01  0.51100000000E-03 0. -1.
        -11    1    3    3    0    0 -0.10650484277E+02 -0.25481070314E+02  0.26979527532E+02  0.38608453294E+02  0.51100000000E-03 0.  1.
         12    1    3    3    0    0  0.96475594345E+01  0.33590753153E+02 -0.22744655938E+02  0.41698123149E+02  0.00000000000E+00 0. -1.
</event>
<event>
 7    1  0.3925070E-015  0.9000775E+02  0.7816164E-02  0.1186339E+00
        -11   -1    0    0    0    0  0.00000000000E+00  0.00000000000E+00  0.45593999997E+02  0.45594000000E+02  0.51100000000E-03 0.  1.
         11   -1    0    0    0    0 -0.00000000000E+00 -0.00000000000E+00 -0.45593999997E+02  0.45594000000E+02  0.51100000000E-03 0. -1.
    9900012    2    1    2    0    0 -0.73873733709E+00  0.27986058865E+00 -0.87689355737E+00  0.90007747013E+02  0.90000008474E+02 0.  0.
        -12    1    1    2    0    0  0.73873733709E+00 -0.27986058865E+00  0.87689355737E+00  0.11802529870E+01  0.00000000000E+00 0.  1.
         11    1    3    3    0    0 -0.10054921846E+02 -0.20656276113E+01 -0.20297065739E+02  0.22745090649E+02  0.51100000000E-03 0. -1.
        -11    1    3    3    0    0 -0.93548875371E+01  0.29685220214E+02  0.69937779986E+01  0.31900456908E+02  0.51100000000E-03 0.  1.
         12    1    3    3    0    0  0.18671072046E+02 -0.27339732014E+02  0.12426394183E+02  0.35362199456E+02  0.00000000000E+00 0. -1.
</event>
<event>
 7    1  0.3925070E-015  0.9000772E+02  0.7816164E-02  0.1186339E+00
        -11   -1    0    0    0    0  0.00000000000E+00  0.00000000000E+00  0.45593999997E+02  0.45594000000E+02  0.51100000000E-03 0.  1.
         11   -1    0    0    0    0 -0.00000000000E+00 -0.00000000000E+00 -0.45593999997E+02  0.45594000000E+02  0.51100000000E-03 0. -1.
    9900012    2    1    2    0    0  0.49190865023E+00 -0.10007859890E+01  0.38668515128E+00  0.90007715237E+02  0.89999976278E+02 0.  0.
        -12    1    1    2    0    0 -0.49190865023E+00  0.10007859890E+01 -0.38668515128E+00  0.11802847631E+01  0.00000000000E+00 0.  1.
         11    1    3    3    0    0  0.41577023679E+01  0.30689487627E+01  0.70391647694E+01  0.87323980899E+01  0.51100000000E-03 0. -1.
        -11    1    3    3    0    0  0.14044424126E+02 -0.32880719437E+02  0.17411513909E+02  0.39768685880E+02  0.51100000000E-03 0.  1.
         12    1    3    3    0    0 -0.17710217844E+02  0.28810984686E+02 -0.24063993527E+02  0.41506631267E+02  0.00000000000E+00 0. -1.
</event>
<event>
 7    1  0.3925070E-015  0.9000773E+02  0.7816164E-02  0.1186339E+00
        -11   -1    0    0    0    0  0.00000000000E+00  0.00000000000E+00  0.45593999997E+02  0.45594000000E+02  0.51100000000E-03 0.  1.
         11   -1    0    0    0    0 -0.00000000000E+00 -0.00000000000E+00 -0.45593999997E+02  0.45594000000E+02  0.51100000000E-03 0. -1.
    9900012    2    1    2    0    0 -0.69758475344E+00  0.94786412383E+00 -0.89262852136E-01  0.90007729378E+02  0.89999990605E+02 0.  0.
        -12    1    1    2    0    0  0.69758475344E+00 -0.94786412383E+00  0.89262852136E-01  0.11802706225E+01  0.00000000000E+00 0.  1.
         11    1    3    3    0    0  0.57316688607E+01 -0.45171648140E+01  0.74682124363E+01  0.10441791185E+02  0.51100000000E-03 0. -1.
        -11    1    3    3    0    0 -0.30602156759E+02 -0.11971836599E+02  0.20418581771E+02  0.38687664076E+02  0.51100000000E-03 0.  1.
         12    1    3    3    0    0  0.24172903144E+02  0.17436865537E+02 -0.27976057060E+02  0.40878274117E+02  0.00000000000E+00 0. -1.
</event>
<event>
 7    1  0.3925070E-015  0.9000787E+02  0.7816164E-02  0.1186339E+00
        -11   -1    0    0    0    0  0.00000000000E+00  0.00000000000E+00  0.45593999997E+02  0.45594000000E+02  0.51100000000E-03 0. -1.
         11   -1    0    0    0    0 -0.00000000000E+00 -0.00000000000E+00 -0.45593999997E+02  0.45594000000E+02  0.51100000000E-03 0.  1.
    9900012    2    1    2    0    0 -0.62913009099E+00 -0.28025672071E+00  0.95830816357E+00  0.90007871601E+02  0.90000134706E+02 0.  0.
        -12    1    1    2    0    0  0.62913009099E+00  0.28025672071E+00 -0.95830816357E+00  0.11801283986E+01  0.00000000000E+00 0.  1.
         11    1    3    3    0    0  0.70439209611E+01 -0.34624672026E+02  0.48958204434E+01  0.35671470302E+02  0.51100000000E-03 0. -1.
        -11    1    3    3    0    0  0.13073592433E+02  0.56335523630E+00 -0.64986333059E+01  0.14610558625E+02  0.51100000000E-03 0.  1.
        -12    1    3    3    0    0 -0.20746643485E+02  0.33781060069E+02  0.25611210261E+01  0.39725842675E+02  0.00000000000E+00 0.  1.
</event>
<event>
 7    1  0.3925070E-015  0.9000765E+02  0.7816164E-02  0.1186339E+00
        -11   -1    0    0    0    0  0.00000000000E+00  0.00000000000E+00  0.45593999997E+02  0.45594000000E+02  0.51100000000E-03 0. -1.
         11   -1    0    0    0    0 -0.00000000000E+00 -0.00000000000E+00 -0.45593999997E+02  0.45594000000E+02  0.51100000000E-03 0.  1.
    9900012    2    1    2    0    0  0.99591856678E+00  0.63123015957E+00  0.53981387381E-01  0.90007652892E+02  0.89999913110E+02 0.  0.
        -12    1    1    2    0    0 -0.99591856678E+00 -0.63123015957E+00 -0.53981387381E-01  0.11803471084E+01  0.00000000000E+00 0.  1.
         11    1    3    3    0    0 -0.13397144672E+02 -0.21451214665E+02  0.25271265896E+02  0.35752971572E+02  0.51100000000E-03 0. -1.
        -11    1    3    3    0    0  0.56960526507E+01 -0.36328542810E+00  0.10048656783E+02  0.11556491488E+02  0.51100000000E-03 0.  1.
        -12    1    3    3    0    0  0.86970105878E+01  0.22445730253E+02 -0.35265941291E+02  0.42698189832E+02  0.00000000000E+00 0.  1.
</event>
<event>
 7    1  0.3925070E-015  0.9000773E+02  0.7816164E-02  0.1186339E+00
        -11   -1    0    0    0    0  0.00000000000E+00  0.00000000000E+00  0.45593999997E+02  0.45594000000E+02  0.51100000000E-03 0.  1.
         11   -1    0    0    0    0 -0.00000000000E+00 -0.00000000000E+00 -0.45593999997E+02  0.45594000000E+02  0.51100000000E-03 0. -1.
    9900012    2    1    2    0    0 -0.57011850891E+00 -0.55585929249E+00 -0.87121800407E+00  0.90007730760E+02  0.89999992006E+02 0.  0.
        -12    1    1    2    0    0  0.57011850891E+00  0.55585929249E+00  0.87121800407E+00  0.11802692396E+01  0.00000000000E+00 0.  1.
         11    1    3    3    0    0 -0.19453575097E+02 -0.10009242510E+02 -0.35047872020E+02  0.41315612703E+02  0.51100000000E-03 0. -1.
        -11    1    3    3    0    0 -0.62420606810E+01  0.32679802225E+00  0.14156552785E+01  0.64089155574E+01  0.51100000000E-03 0.  1.
        -12    1    3    3    0    0  0.25125517269E+02  0.91265851948E+01  0.32760998737E+02  0.42283202500E+02  0.00000000000E+00 0.  1.
</event>
<event>
 7    1  0.3925070E-015  0.9000771E+02  0.7816164E-02  0.1186339E+00
        -11   -1    0    0    0    0  0.00000000000E+00  0.00000000000E+00  0.45593999997E+02  0.45594000000E+02  0.51100000000E-03 0.  1.
         11   -1    0    0    0    0 -0.00000000000E+00 -0.00000000000E+00 -0.45593999997E+02  0.45594000000E+02  0.51100000000E-03 0. -1.
    9900012    2    1    2    0    0  0.84586828862E+00  0.80792355578E+00 -0.15763962987E+00  0.90007710253E+02  0.89999971228E+02 0.  0.
        -12    1    1    2    0    0 -0.84586828862E+00 -0.80792355578E+00  0.15763962987E+00  0.11802897469E+01  0.00000000000E+00 0.  1.
         11    1    3    3    0    0 -0.20081367194E+02 -0.95000014607E+01 -0.34589986488E+02  0.41109348105E+02  0.51100000000E-03 0. -1.
        -11    1    3    3    0    0  0.19338301225E+01  0.47514871389E+01 -0.34336253651E+01  0.61730148536E+01  0.51100000000E-03 0.  1.
        -12    1    3    3    0    0  0.18993405360E+02  0.55564378776E+01  0.37865972223E+02  0.42725347295E+02  0.00000000000E+00 0.  1.
</event>
<event>
 7    1  0.3925070E-015  0.9000777E+02  0.7816164E-02  0.1186339E+00
        -11   -1    0    0    0    0  0.00000000000E+00  0.00000000000E+00  0.45593999997E+02  0.45594000000E+02  0.51100000000E-03 0.  1.
         11   -1    0    0    0    0 -0.00000000000E+00 -0.00000000000E+00 -0.45593999997E+02  0.45594000000E+02  0.51100000000E-03 0. -1.
    9900012    2    1    2    0    0  0.60859842954E+00 -0.62269775049E+00 -0.79674511570E+00  0.90007768109E+02  0.90000029848E+02 0.  0.
        -12    1    1    2    0    0 -0.60859842954E+00  0.62269775049E+00  0.79674511570E+00  0.11802318909E+01  0.00000000000E+00 0.  1.
         11    1    3    3    0    0  0.68200981091E+01 -0.11229619920E+01 -0.61833849531E+01  0.92741054336E+01  0.51100000000E-03 0. -1.
        -11    1    3    3    0    0  0.31603062375E+02 -0.20047613036E+02  0.44265717633E+01  0.37686269088E+02  0.51100000000E-03 0.  1.
         12    1    3    3    0    0 -0.37814562055E+02  0.20547877277E+02  0.96006807416E+00  0.43047393588E+02  0.00000000000E+00 0. -1.
</event>
<event>
 7    1  0.3925070E-015  0.9000776E+02  0.7816164E-02  0.1186339E+00
        -11   -1    0    0    0    0  0.00000000000E+00  0.00000000000E+00  0.45593999997E+02  0.45594000000E+02  0.51100000000E-03 0.  1.
         11   -1    0    0    0    0 -0.00000000000E+00 -0.00000000000E+00 -0.45593999997E+02  0.45594000000E+02  0.51100000000E-03 0. -1.
    9900012    2    1    2    0    0 -0.11601942046E+01 -0.75929608984E-01 -0.20284612577E+00  0.90007761698E+02  0.90000023353E+02 0.  0.
        -12    1    1    2    0    0  0.11601942046E+01  0.75929608984E-01  0.20284612577E+00  0.11802383016E+01  0.00000000000E+00 0.  1.
         11    1    3    3    0    0 -0.12157250037E+02  0.53666286750E+01 -0.18546930713E+01  0.13417873097E+02  0.51100000000E-03 0. -1.
        -11    1    3    3    0    0 -0.19549729683E+02  0.24069532590E+02  0.11353309468E+02  0.33021689326E+02  0.51100000000E-03 0.  1.
         12    1    3    3    0    0  0.30546785515E+02 -0.29512090874E+02 -0.97014625226E+01  0.43568199276E+02  0.00000000000E+00 0. -1.
</event>
<event>
 7    1  0.3925070E-015  0.9000787E+02  0.7816164E-02  0.1186339E+00
        -11   -1    0    0    0    0  0.00000000000E+00  0.00000000000E+00  0.45593999997E+02  0.45594000000E+02  0.51100000000E-03 0.  1.
         11   -1    0    0    0    0 -0.00000000000E+00 -0.00000000000E+00 -0.45593999997E+02  0.45594000000E+02  0.51100000000E-03 0. -1.
    9900012    2    1    2    0    0 -0.10338211678E+01  0.30015206639E-01 -0.56833910994E+00  0.90007874387E+02  0.90000137528E+02 0.  0.
        -12    1    1    2    0    0  0.10338211678E+01 -0.30015206639E-01  0.56833910994E+00  0.11801256135E+01  0.00000000000E+00 0.  1.
         11    1    3    3    0    0 -0.17645753310E+02 -0.15497226333E+02 -0.27942197471E+02  0.36500726481E+02  0.51100000000E-03 0. -1.
        -11    1    3    3    0    0 -0.56992374510E+01 -0.91618270861E+00 -0.71789726194E+01  0.92118590095E+01  0.51100000000E-03 0.  1.
        -12    1    3    3    0    0  0.22311169593E+02  0.16443424248E+02  0.34552830980E+02  0.44295288896E+02  0.00000000000E+00 0.  1.
</event>
<event>
 7    1  0.3925070E-015  0.9000768E+02  0.7816164E-02  0.1186339E+00
        -11   -1    0    0    0    0  0.00000000000E+00  0.00000000000E+00  0.45593999997E+02  0.45594000000E+02  0.51100000000E-03 0. -1.
         11   -1    0    0    0    0 -0.00000000000E+00 -0.00000000000E+00 -0.45593999997E+02  0.45594000000E+02  0.51100000000E-03 0.  1.
    9900012    2    1    2    0    0 -0.29112486044E+00 -0.84263246342E+00 -0.77354482318E+00  0.90007680236E+02  0.89999940815E+02 0.  0.
        -12    1    1    2    0    0  0.29112486044E+00  0.84263246342E+00  0.77354482318E+00  0.11803197644E+01  0.00000000000E+00 0.  1.
         11    1    3    3    0    0 -0.34666463330E+02 -0.63575606417E+01 -0.24345944767E+02  0.42835817770E+02  0.51100000000E-03 0. -1.
        -11    1    3    3    0    0  0.80463321667E+01 -0.61482115590E+01  0.27330717129E+00  0.10130087057E+02  0.51100000000E-03 0.  1.
        -12    1    3    3    0    0  0.26329006303E+02  0.11663139737E+02  0.23299092773E+02  0.37041775409E+02  0.00000000000E+00 0.  1.
</event>
<event>
 7    1  0.3925070E-015  0.9000784E+02  0.7816164E-02  0.1186339E+00
        -11   -1    0    0    0    0  0.00000000000E+00  0.00000000000E+00  0.45593999997E+02  0.45594000000E+02  0.51100000000E-03 0.  1.
         11   -1    0    0    0    0 -0.00000000000E+00 -0.00000000000E+00 -0.45593999997E+02  0.45594000000E+02  0.51100000000E-03 0. -1.
    9900012    2    1    2    0    0 -0.80876683703E+00 -0.62601433572E+00  0.58887782273E+00  0.90007841182E+02  0.90000103886E+02 0.  0.
        -12    1    1    2    0    0  0.80876683703E+00  0.62601433572E+00 -0.58887782273E+00  0.11801588178E+01  0.00000000000E+00 0.  1.
         11    1    3    3    0    0  0.19241649932E+01  0.29805084507E+01 -0.34158372239E+02  0.34342105873E+02  0.51100000000E-03 0. -1.
        -11    1    3    3    0    0  0.78097656285E+01  0.20445957675E+01 -0.79465689261E+01  0.11327875749E+02  0.51100000000E-03 0.  1.
        -12    1    3    3    0    0 -0.10542697459E+02 -0.56511185539E+01  0.42693818988E+02  0.44337859560E+02  0.00000000000E+00 0.  1.
</event>
<event>
 7    1  0.3925070E-015  0.9000777E+02  0.7816164E-02  0.1186339E+00
        -11   -1    0    0    0    0  0.00000000000E+00  0.00000000000E+00  0.45593999997E+02  0.45594000000E+02  0.51100000000E-03 0. -1.
         11   -1    0    0    0    0 -0.00000000000E+00 -0.00000000000E+00 -0.45593999997E+02  0.45594000000E+02  0.51100000000E-03 0.  1.
    9900012    2    1    2    0    0 -0.35546509098E+00 -0.54377537267E+00  0.98534393181E+00  0.90007767078E+02  0.90000028803E+02 0.  0.
        -12    1    1    2    0    0  0.35546509098E+00  0.54377537267E+00 -0.98534393181E+00  0.11802329223E+01  0.00000000000E+00 0.  1.
         11    1    3    3    0    0  0.37137219484E+02 -0.25896642816E+01 -0.53575899219E+01  0.37610945244E+02  0.51100000000E-03 0. -1.
        -11    1    3    3    0    0  0.60987493978E+01  0.39231795882E+01  0.48794813301E+01  0.87404473919E+01  0.51100000000E-03 0.  1.
        -12    1    3    3    0    0 -0.43591433973E+02 -0.18772906794E+01  0.14634525236E+01  0.43656374442E+02  0.00000000000E+00 0.  1.
</event>
<event>
 7    1  0.3925070E-015  0.9000773E+02  0.7816164E-02  0.1186339E+00
        -11   -1    0    0    0    0  0.00000000000E+00  0.00000000000E+00  0.45593999997E+02  0.45594000000E+02  0.51100000000E-03 0. -1.
         11   -1    0    0    0    0 -0.00000000000E+00 -0.00000000000E+00 -0.45593999997E+02  0.45594000000E+02  0.51100000000E-03 0.  1.
    9900012    2    1    2    0    0  0.56438364939E+00 -0.32007343077E+00  0.98593660436E+00  0.90007725925E+02  0.89999987107E+02 0.  0.
        -12    1    1    2    0    0 -0.56438364939E+00  0.32007343077E+00 -0.98593660436E+00  0.11802740752E+01  0.00000000000E+00 0.  1.
         11    1    3    3    0    0  0.26323404080E+01 -0.27620405805E+01  0.97857601502E+01  0.10503294063E+02  0.51100000000E-03 0. -1.
        -11    1    3    3    0    0  0.21465593311E+02  0.17362521913E+02  0.23918502257E+02  0.36528394624E+02  0.51100000000E-03 0.  1.
         12    1    3    3    0    0 -0.23533550069E+02 -0.14920554763E+02 -0.32718325803E+02  0.42976037238E+02  0.00000000000E+00 0. -1.
</event>
<event>
 7    1  0.3925070E-015  0.9000786E+02  0.7816164E-02  0.1186339E+00
        -11   -1    0    0    0    0  0.00000000000E+00  0.00000000000E+00  0.45593999997E+02  0.45594000000E+02  0.51100000000E-03 0.  1.
         11   -1    0    0    0    0 -0.00000000000E+00 -0.00000000000E+00 -0.45593999997E+02  0.45594000000E+02  0.51100000000E-03 0. -1.
    9900012    2    1    2    0    0 -0.47446503024E+00 -0.10631945202E+01 -0.19293252669E+00  0.90007863308E+02  0.90000126303E+02 0.  0.
        -12    1    1    2    0    0  0.47446503024E+00  0.10631945202E+01  0.19293252669E+00  0.11801366924E+01  0.00000000000E+00 0.  1.
         11    1    3    3    0    0  0.79947627462E+01  0.98307010411E+01 -0.27517966047E+01  0.12966545382E+02  0.51100000000E-03 0. -1.
        -11    1    3    3    0    0  0.33711994978E+02 -0.43373173511E+01  0.46277756449E+01  0.34303458060E+02  0.51100000000E-03 0.  1.
         12    1    3    3    0    0 -0.42181222754E+02 -0.65565782102E+01 -0.20689115669E+01  0.42737859866E+02  0.00000000000E+00 0. -1.
</event>
<event>
 7    1  0.4309354E-015  0.9000772E+02  0.7816164E-02  0.1186339E+00
        -11   -1    0    0    0    0  0.00000000000E+00  0.00000000000E+00  0.45593999997E+02  0.45594000000E+02  0.51100000000E-03 0.  1.
         11   -1    0    0    0    0 -0.00000000000E+00 -0.00000000000E+00 -0.45593999997E+02  0.45594000000E+02  0.51100000000E-03 0. -1.
    9900012    2    1    2    0    0 -0.29193382319E+00  0.11359266065E+01 -0.13229487735E+00  0.90007721835E+02  0.89999982963E+02 0.  0.
        -12    1    1    2    0    0  0.29193382319E+00 -0.11359266065E+01  0.13229487735E+00  0.11802781651E+01  0.00000000000E+00 0.  1.
         11    1    3    3    0    0  0.39440102444E+01 -0.29444720328E+02 -0.26513332822E+02  0.39818382559E+02  0.51100000000E-03 0. -1.
        -11    1    3    3    0    0  0.16078025980E+01  0.73374391779E+01 -0.62021244957E+01  0.97411185911E+01  0.51100000000E-03 0.  1.
        -12    1    3    3    0    0 -0.58437466656E+01  0.23243207757E+02  0.32583162441E+02  0.40448220685E+02  0.00000000000E+00 0.  1.
</event>
<event>
 7    1  0.3925070E-015  0.9000763E+02  0.7816164E-02  0.1186339E+00
        -11   -1    0    0    0    0  0.00000000000E+00  0.00000000000E+00  0.45593999997E+02  0.45594000000E+02  0.51100000000E-03 0. -1.
         11   -1    0    0    0    0 -0.00000000000E+00 -0.00000000000E+00 -0.45593999997E+02  0.45594000000E+02  0.51100000000E-03 0.  1.
    9900012    2    1    2    0    0  0.20042852556E+00 -0.11623109856E+01 -0.46193202162E-01  0.90007630468E+02  0.89999890390E+02 0.  0.
        -12    1    1    2    0    0 -0.20042852556E+00  0.11623109856E+01  0.46193202162E-01  0.11803695324E+01  0.00000000000E+00 0.  1.
         11    1    3    3    0    0  0.22817286886E+02 -0.50391030017E+01  0.29894091546E+02  0.37943086980E+02  0.51100000000E-03 0. -1.
        -11    1    3    3    0    0  0.32625161569E-01 -0.25383491326E+01  0.74557788802E+01  0.78760979991E+01  0.51100000000E-03 0.  1.
        -12    1    3    3    0    0 -0.22649483522E+02  0.64151411487E+01 -0.37396063629E+02  0.44188445489E+02  0.00000000000E+00 0.  1.
</event>
<event>
 7    1  0.3925070E-015  0.9000775E+02  0.7816164E-02  0.1186339E+00
        -11   -1    0    0    0    0  0.00000000000E+00  0.00000000000E+00  0.45593999997E+02  0.45594000000E+02  0.51100000000E-03 0.  1.
         11   -1    0    0    0    0 -0.00000000000E+00 -0.00000000000E+00 -0.45593999997E+02  0.45594000000E+02  0.51100000000E-03 0. -1.
    9900012    2    1    2    0    0  0.20261647614E+00  0.39549376705E-01 -0.11620525332E+01  0.90007752704E+02  0.90000014240E+02 0.  0.
        -12    1    1    2    0    0 -0.20261647614E+00 -0.39549376705E-01  0.11620525332E+01  0.11802472959E+01  0.00000000000E+00 0.  1.
         11    1    3    3    0    0  0.20454598252E+01 -0.55630543783E+01  0.74196022149E+01  0.94964191778E+01  0.51100000000E-03 0. -1.
        -11    1    3    3    0    0 -0.32766644108E+01  0.48194352852E+01  0.35713592685E+02  0.36185966739E+02  0.51100000000E-03 0.  1.
         12    1    3    3    0    0  0.14338210617E+01  0.78316846974E+00 -0.44295247433E+02  0.44325366787E+02  0.00000000000E+00 0. -1.
</event>
<event>
 7    1  0.3925070E-015  0.9000760E+02  0.7816164E-02  0.1186339E+00
        -11   -1    0    0    0    0  0.00000000000E+00  0.00000000000E+00  0.45593999997E+02  0.45594000000E+02  0.51100000000E-03 0. -1.
         11   -1    0    0    0    0 -0.00000000000E+00 -0.00000000000E+00 -0.45593999997E+02  0.45594000000E+02  0.51100000000E-03 0.  1.
    9900012    2    1    2    0    0 -0.68564681447E+00 -0.90969989221E+00  0.30933743426E+00  0.90007595368E+02  0.89999854826E+02 0.  0.
        -12    1    1    2    0    0  0.68564681447E+00  0.90969989221E+00 -0.30933743426E+00  0.11804046324E+01  0.00000000000E+00 0.  1.
         11    1    3    3    0    0  0.35225166102E+01  0.51567344311E+01  0.41328459630E+01  0.74886880878E+01  0.51100000000E-03 0. -1.
        -11    1    3    3    0    0  0.27783545891E+02 -0.10768570034E+02  0.25233275989E+02  0.39046200075E+02  0.51100000000E-03 0.  1.
         12    1    3    3    0    0 -0.31991709316E+02  0.47021357109E+01 -0.29056784518E+02  0.43472707205E+02  0.00000000000E+00 0. -1.
</event>
<event>
 7    1  0.3925070E-015  0.9000774E+02  0.7816164E-02  0.1186339E+00
        -11   -1    0    0    0    0  0.00000000000E+00  0.00000000000E+00  0.45593999997E+02  0.45594000000E+02  0.51100000000E-03 0. -1.
         11   -1    0    0    0    0 -0.00000000000E+00 -0.00000000000E+00 -0.45593999997E+02  0.45594000000E+02  0.51100000000E-03 0.  1.
    9900012    2    1    2    0    0 -0.22729893774E+00 -0.11581457404E+01 -0.61215460810E-02  0.90007744165E+02  0.90000005588E+02 0.  0.
        -12    1    1    2    0    0  0.22729893774E+00  0.11581457404E+01  0.61215460810E-02  0.11802558352E+01  0.00000000000E+00 0.  1.
         11    1    3    3    0    0  0.22859907857E+01  0.98726392033E+01 -0.43508009939E+01  0.11028337511E+02  0.51100000000E-03 0. -1.
        -11    1    3    3    0    0  0.30092296432E+02  0.18115811719E+02  0.21774591402E+01  0.35191906276E+02  0.51100000000E-03 0.  1.
         12    1    3    3    0    0 -0.32605586155E+02 -0.29146596662E+02  0.21672203076E+01  0.43787500378E+02  0.00000000000E+00 0. -1.
</event>
<event>
 7    1  0.3925070E-015  0.9000794E+02  0.7816164E-02  0.1186339E+00
        -11   -1    0    0    0    0  0.00000000000E+00  0.00000000000E+00  0.45593999997E+02  0.45594000000E+02  0.51100000000E-03 0.  1.
         11   -1    0    0    0    0 -0.00000000000E+00 -0.00000000000E+00 -0.45593999997E+02  0.45594000000E+02  0.51100000000E-03 0. -1.
    9900012    2    1    2    0    0  0.59958856003E+00  0.10001836555E+01  0.18072121256E+00  0.90007943246E+02  0.90000207297E+02 0.  0.
        -12    1    1    2    0    0 -0.59958856003E+00 -0.10001836555E+01 -0.18072121256E+00  0.11800567540E+01  0.00000000000E+00 0.  1.
         11    1    3    3    0    0 -0.41859897987E+01 -0.10832540707E+02 -0.51009820092E+01  0.12684102904E+02  0.51100000000E-03 0. -1.
        -11    1    3    3    0    0  0.24703355588E+01 -0.31842732607E+02  0.96629419920E+01  0.33368167853E+02  0.51100000000E-03 0.  1.
         12    1    3    3    0    0  0.23152427999E+01  0.43675456970E+02 -0.43812387702E+01  0.43955672489E+02  0.00000000000E+00 0. -1.
</event>
<event>
 7    1  0.3925070E-015  0.9000778E+02  0.7816164E-02  0.1186339E+00
        -11   -1    0    0    0    0  0.00000000000E+00  0.00000000000E+00  0.45593999997E+02  0.45594000000E+02  0.51100000000E-03 0.  1.
         11   -1    0    0    0    0 -0.00000000000E+00 -0.00000000000E+00 -0.45593999997E+02  0.45594000000E+02  0.51100000000E-03 0. -1.
    9900012    2    1    2    0    0 -0.34229437589E+00 -0.48009762851E+00 -0.10223796098E+01  0.90007780004E+02  0.90000041900E+02 0.  0.
        -12    1    1    2    0    0  0.34229437589E+00  0.48009762851E+00  0.10223796098E+01  0.11802199961E+01  0.00000000000E+00 0.  1.
         11    1    3    3    0    0  0.30435525505E+02  0.20001097049E+02 -0.72304051836E+01  0.37130093662E+02  0.51100000000E-03 0. -1.
        -11    1    3    3    0    0  0.76791377441E+01 -0.47455646339E+01 -0.43278799998E+01  0.10010998239E+02  0.51100000000E-03 0.  1.
        -12    1    3    3    0    0 -0.38456957625E+02 -0.15735630044E+02  0.10535905574E+02  0.42866688103E+02  0.00000000000E+00 0.  1.
</event>
<event>
 7    1  0.3925070E-015  0.9000787E+02  0.7816164E-02  0.1186339E+00
        -11   -1    0    0    0    0  0.00000000000E+00  0.00000000000E+00  0.45593999997E+02  0.45594000000E+02  0.51100000000E-03 0. -1.
         11   -1    0    0    0    0 -0.00000000000E+00 -0.00000000000E+00 -0.45593999997E+02  0.45594000000E+02  0.51100000000E-03 0.  1.
    9900012    2    1    2    0    0  0.11483796854E+01 -0.26554571013E+00  0.58532192310E-01  0.90007865921E+02  0.90000128951E+02 0.  0.
        -12    1    1    2    0    0 -0.11483796854E+01  0.26554571013E+00 -0.58532192310E-01  0.11801340786E+01  0.00000000000E+00 0.  1.
         11    1    3    3    0    0 -0.47225308522E+01 -0.67641807534E+01 -0.82686095932E+01  0.11680168825E+02  0.51100000000E-03 0. -1.
        -11    1    3    3    0    0 -0.27924175063E+02  0.96046546308E+01 -0.18691630366E+02  0.34948333143E+02  0.51100000000E-03 0.  1.
         12    1    3    3    0    0  0.33795085600E+02 -0.31060195875E+01  0.27018772151E+02  0.43379363953E+02  0.00000000000E+00 0. -1.
</event>
<event>
 7    1  0.3925070E-015  0.9000773E+02  0.7816164E-02  0.1186339E+00
        -11   -1    0    0    0    0  0.00000000000E+00  0.00000000000E+00  0.45593999997E+02  0.45594000000E+02  0.51100000000E-03 0.  1.
         11   -1    0    0    0    0 -0.00000000000E+00 -0.00000000000E+00 -0.45593999997E+02  0.45594000000E+02  0.51100000000E-03 0. -1.
    9900012    2    1    2    0    0 -0.24465986401E+00 -0.96977572710E+00  0.62667426791E+00  0.90007727130E+02  0.89999988328E+02 0.  0.
        -12    1    1    2    0    0  0.24465986401E+00  0.96977572710E+00 -0.62667426791E+00  0.11802728701E+01  0.00000000000E+00 0.  1.
         11    1    3    3    0    0  0.60680379342E+01  0.62523439767E+01 -0.28026239109E+02  0.29349326541E+02  0.51100000000E-03 0. -1.
        -11    1    3    3    0    0  0.92704616314E+01 -0.58447194089E+01 -0.12505034249E+02  0.16627630188E+02  0.51100000000E-03 0.  1.
        -12    1    3    3    0    0 -0.15583159430E+02 -0.13774002949E+01  0.41157947626E+02  0.44030770401E+02  0.00000000000E+00 0.  1.
</event>
<event>
 7    1  0.3925070E-015  0.9000776E+02  0.7816164E-02  0.1186339E+00
        -11   -1    0    0    0    0  0.00000000000E+00  0.00000000000E+00  0.45593999997E+02  0.45594000000E+02  0.51100000000E-03 0.  1.
         11   -1    0    0    0    0 -0.00000000000E+00 -0.00000000000E+00 -0.45593999997E+02  0.45594000000E+02  0.51100000000E-03 0. -1.
    9900012    2    1    2    0    0 -0.37476719671E+00 -0.82997589282E+00 -0.75076564450E+00  0.90007762953E+02  0.90000024624E+02 0.  0.
        -12    1    1    2    0    0  0.37476719671E+00  0.82997589282E+00  0.75076564450E+00  0.11802370471E+01  0.00000000000E+00 0.  1.
         11    1    3    3    0    0 -0.41119155392E+01  0.11089589044E+01 -0.95552773672E+01  0.10461403590E+02  0.51100000000E-03 0. -1.
        -11    1    3    3    0    0 -0.63888683882E+01 -0.32116668916E+02  0.27386152684E+02  0.42688399134E+02  0.51100000000E-03 0.  1.
         12    1    3    3    0    0  0.10126016731E+02  0.30177734119E+02 -0.18581640961E+02  0.36857960228E+02  0.00000000000E+00 0. -1.
</event>
<event>
 7    1  0.3925070E-015  0.9000785E+02  0.7816164E-02  0.1186339E+00
        -11   -1    0    0    0    0  0.00000000000E+00  0.00000000000E+00  0.45593999997E+02  0.45594000000E+02  0.51100000000E-03 0.  1.
         11   -1    0    0    0    0 -0.00000000000E+00 -0.00000000000E+00 -0.45593999997E+02  0.45594000000E+02  0.51100000000E-03 0. -1.
    9900012    2    1    2    0    0  0.11062935596E+00  0.24193633866E+00 -0.11497751966E+01  0.90007849565E+02  0.90000112379E+02 0.  0.
        -12    1    1    2    0    0 -0.11062935596E+00 -0.24193633866E+00  0.11497751966E+01  0.11801504349E+01  0.00000000000E+00 0.  1.
         11    1    3    3    0    0 -0.86538664903E+01 -0.20256749667E+02  0.28858505376E+02  0.36304801956E+02  0.51100000000E-03 0. -1.
        -11    1    3    3    0    0 -0.41350955384E+01 -0.76090629861E+01  0.23187483073E+01  0.89651240154E+01  0.51100000000E-03 0.  1.
        -12    1    3    3    0    0  0.12899591385E+02  0.28107748992E+02 -0.32327028880E+02  0.44737923593E+02  0.00000000000E+00 0.  1.
</event>
<event>
 7    1  0.3925070E-015  0.9000776E+02  0.7816164E-02  0.1186339E+00
        -11   -1    0    0    0    0  0.00000000000E+00  0.00000000000E+00  0.45593999997E+02  0.45594000000E+02  0.51100000000E-03 0.  1.
         11   -1    0    0    0    0 -0.00000000000E+00 -0.00000000000E+00 -0.45593999997E+02  0.45594000000E+02  0.51100000000E-03 0. -1.
    9900012    2    1    2    0    0 -0.27740126089E-01 -0.64246653516E+00 -0.98966123959E+00  0.90007761832E+02  0.90000023488E+02 0.  0.
        -12    1    1    2    0    0  0.27740126089E-01  0.64246653516E+00  0.98966123959E+00  0.11802381677E+01  0.00000000000E+00 0.  1.
         11    1    3    3    0    0  0.22198133396E+01 -0.19647020514E+02 -0.36719735507E+02  0.41704579633E+02  0.51100000000E-03 0. -1.
        -11    1    3    3    0    0  0.75476195430E+01 -0.22761188715E+01  0.39384206028E+01  0.88124023393E+01  0.51100000000E-03 0.  1.
        -12    1    3    3    0    0 -0.97951730087E+01  0.21280672850E+02  0.31791653665E+02  0.39490779860E+02  0.00000000000E+00 0.  1.
</event>
<event>
 7    1  0.3925070E-015  0.9000730E+02  0.7816164E-02  0.1186340E+00
        -11   -1    0    0    0    0  0.00000000000E+00  0.00000000000E+00  0.45593999997E+02  0.45594000000E+02  0.51100000000E-03 0.  1.
         11   -1    0    0    0    0 -0.00000000000E+00 -0.00000000000E+00 -0.45593999997E+02  0.45594000000E+02  0.51100000000E-03 0. -1.
    9900012    2    1    2    0    0  0.58263730289E+00  0.24902554530E+00 -0.99627602185E+00  0.90007302807E+02  0.89999558403E+02 0.  0.
        -12    1    1    2    0    0 -0.58263730289E+00 -0.24902554530E+00  0.99627602185E+00  0.11806971926E+01  0.00000000000E+00 0.  1.
         11    1    3    3    0    0  0.52974243816E+01  0.41255493128E+01  0.22930580436E+01  0.70951376072E+01  0.51100000000E-03 0. -1.
        -11    1    3    3    0    0  0.36284445352E+02  0.70631070592E+01 -0.13349810475E+02  0.39302237797E+02  0.51100000000E-03 0.  1.
         12    1    3    3    0    0 -0.40999232431E+02 -0.10939630827E+02  0.10060476409E+02  0.43609927404E+02  0.00000000000E+00 0. -1.
</event>
<event>
 7    1  0.3925070E-015  0.9000764E+02  0.7816164E-02  0.1186339E+00
        -11   -1    0    0    0    0  0.00000000000E+00  0.00000000000E+00  0.45593999997E+02  0.45594000000E+02  0.51100000000E-03 0.  1.
         11   -1    0    0    0    0 -0.00000000000E+00 -0.00000000000E+00 -0.45593999997E+02  0.45594000000E+02  0.51100000000E-03 0. -1.
    9900012    2    1    2    0    0  0.44475188460E+00  0.10519414276E+01  0.29808567163E+00  0.90007644090E+02  0.89999904192E+02 0.  0.
        -12    1    1    2    0    0 -0.44475188460E+00 -0.10519414276E+01 -0.29808567163E+00  0.11803559097E+01  0.00000000000E+00 0.  1.
         11    1    3    3    0    0  0.54926484098E+01  0.28199595645E+01 -0.70268865636E+01  0.93540629428E+01  0.51100000000E-03 0. -1.
        -11    1    3    3    0    0  0.23769973054E+02 -0.30150896430E+02 -0.41280970306E+01  0.38615144178E+02  0.51100000000E-03 0.  1.
         12    1    3    3    0    0 -0.28817869579E+02  0.28382878293E+02  0.11453069266E+02  0.42038436970E+02  0.00000000000E+00 0. -1.
</event>
<event>
 7    1  0.3925070E-015  0.9000777E+02  0.7816164E-02  0.1186339E+00
        -11   -1    0    0    0    0  0.00000000000E+00  0.00000000000E+00  0.45593999997E+02  0.45594000000E+02  0.51100000000E-03 0. -1.
         11   -1    0    0    0    0 -0.00000000000E+00 -0.00000000000E+00 -0.45593999997E+02  0.45594000000E+02  0.51100000000E-03 0.  1.
    9900012    2    1    2    0    0 -0.43878038361E+00  0.42541762200E-01 -0.10948066264E+01  0.90007771388E+02  0.90000033171E+02 0.  0.
        -12    1    1    2    0    0  0.43878038361E+00 -0.42541762200E-01  0.10948066264E+01  0.11802286117E+01  0.00000000000E+00 0.  1.
         11    1    3    3    0    0 -0.34510396315E+01  0.64285087161E+01 -0.27163235659E+01  0.77854873211E+01  0.51100000000E-03 0. -1.
        -11    1    3    3    0    0 -0.33678406667E+02  0.14200113173E+02 -0.11223025420E+02  0.38233945514E+02  0.51100000000E-03 0.  1.
         12    1    3    3    0    0  0.36690665915E+02 -0.20586080126E+02  0.12844542360E+02  0.43988338553E+02  0.00000000000E+00 0. -1.
</event>
<event>
 7    1  0.3925070E-015  0.9000776E+02  0.7816164E-02  0.1186339E+00
        -11   -1    0    0    0    0  0.00000000000E+00  0.00000000000E+00  0.45593999997E+02  0.45594000000E+02  0.51100000000E-03 0. -1.
         11   -1    0    0    0    0 -0.00000000000E+00 -0.00000000000E+00 -0.45593999997E+02  0.45594000000E+02  0.51100000000E-03 0.  1.
    9900012    2    1    2    0    0  0.25349809825E+00  0.11526585019E+01 -0.84734653055E-02  0.90007764978E+02  0.90000026676E+02 0.  0.
        -12    1    1    2    0    0 -0.25349809825E+00 -0.11526585019E+01  0.84734653055E-02  0.11802350221E+01  0.00000000000E+00 0.  1.
         11    1    3    3    0    0  0.24751571172E+01  0.35693640212E+02  0.96629851478E+01  0.37061241703E+02  0.51100000000E-03 0. -1.
        -11    1    3    3    0    0  0.31891980896E+01  0.43166622323E+01  0.82279608674E+01  0.98236397318E+01  0.51100000000E-03 0.  1.
        -12    1    3    3    0    0 -0.54108571085E+01 -0.38857643942E+02 -0.17899419481E+02  0.43122883544E+02  0.00000000000E+00 0.  1.
</event>
<event>
 7    1  0.3925070E-015  0.9000760E+02  0.7816164E-02  0.1186339E+00
        -11   -1    0    0    0    0  0.00000000000E+00  0.00000000000E+00  0.45593999997E+02  0.45594000000E+02  0.51100000000E-03 0.  1.
         11   -1    0    0    0    0 -0.00000000000E+00 -0.00000000000E+00 -0.45593999997E+02  0.45594000000E+02  0.51100000000E-03 0. -1.
    9900012    2    1    2    0    0 -0.61096478104E+00  0.17093128776E+00 -0.99541317919E+00  0.90007600548E+02  0.89999860075E+02 0.  0.
        -12    1    1    2    0    0  0.61096478104E+00 -0.17093128776E+00  0.99541317919E+00  0.11803994519E+01  0.00000000000E+00 0.  1.
         11    1    3    3    0    0 -0.42316807847E+00  0.26669992577E+02 -0.25586632935E+02  0.36961376604E+02  0.51100000000E-03 0. -1.
        -11    1    3    3    0    0  0.39869468831E+01  0.74105439087E+01 -0.32020040364E+01  0.90035957585E+01  0.51100000000E-03 0.  1.
        -12    1    3    3    0    0 -0.41747435857E+01 -0.33909605198E+02  0.27793223793E+02  0.44042628185E+02  0.00000000000E+00 0.  1.
</event>
<event>
 7    1  0.3925070E-015  0.9000769E+02  0.7816164E-02  0.1186339E+00
        -11   -1    0    0    0    0  0.00000000000E+00  0.00000000000E+00  0.45593999997E+02  0.45594000000E+02  0.51100000000E-03 0. -1.
         11   -1    0    0    0    0 -0.00000000000E+00 -0.00000000000E+00 -0.45593999997E+02  0.45594000000E+02  0.51100000000E-03 0.  1.
    9900012    2    1    2    0    0  0.30219793496E+00  0.95211483500E+00  0.62871374052E+00  0.90007691897E+02  0.89999952630E+02 0.  0.
        -12    1    1    2    0    0 -0.30219793496E+00 -0.95211483500E+00 -0.62871374052E+00  0.11803081032E+01  0.00000000000E+00 0.  1.
         11    1    3    3    0    0  0.18064183257E+01  0.38726239380E+02  0.70798512902E+01  0.39409504669E+02  0.51100000000E-03 0. -1.
        -11    1    3    3    0    0  0.58947373320E+01  0.31753692669E+01  0.38581169075E+01  0.77276105316E+01  0.51100000000E-03 0.  1.
        -12    1    3    3    0    0 -0.73989577227E+01 -0.40949493812E+02 -0.10309254457E+02  0.42870576697E+02  0.00000000000E+00 0.  1.
</event>
<event>
 7    1  0.3925070E-015  0.9000792E+02  0.7816164E-02  0.1186339E+00
        -11   -1    0    0    0    0  0.00000000000E+00  0.00000000000E+00  0.45593999997E+02  0.45594000000E+02  0.51100000000E-03 0. -1.
         11   -1    0    0    0    0 -0.00000000000E+00 -0.00000000000E+00 -0.45593999997E+02  0.45594000000E+02  0.51100000000E-03 0.  1.
    9900012    2    1    2    0    0  0.62833888574E+00  0.54345914996E+00  0.83811191279E+00  0.90007919841E+02  0.90000183583E+02 0.  0.
        -12    1    1    2    0    0 -0.62833888574E+00 -0.54345914996E+00 -0.83811191279E+00  0.11800801589E+01  0.00000000000E+00 0.  1.
         11    1    3    3    0    0 -0.85962749255E+01  0.23149112603E+00  0.33381227599E+01  0.92245647354E+01  0.51100000000E-03 0. -1.
        -11    1    3    3    0    0 -0.15881963558E+02 -0.46529560845E+01 -0.35414026499E+02  0.39090152723E+02  0.51100000000E-03 0.  1.
         12    1    3    3    0    0  0.25106577369E+02  0.49649241084E+01  0.32914015652E+02  0.41693202383E+02  0.00000000000E+00 0. -1.
</event>
<event>
 7    1  0.3925070E-015  0.9000774E+02  0.7816164E-02  0.1186339E+00
        -11   -1    0    0    0    0  0.00000000000E+00  0.00000000000E+00  0.45593999997E+02  0.45594000000E+02  0.51100000000E-03 0.  1.
         11   -1    0    0    0    0 -0.00000000000E+00 -0.00000000000E+00 -0.45593999997E+02  0.45594000000E+02  0.51100000000E-03 0. -1.
    9900012    2    1    2    0    0  0.11137515633E+01  0.78061131810E-01 -0.38273218338E+00  0.90007737313E+02  0.89999998646E+02 0.  0.
        -12    1    1    2    0    0 -0.11137515633E+01 -0.78061131810E-01  0.38273218338E+00  0.11802626866E+01  0.00000000000E+00 0.  1.
         11    1    3    3    0    0  0.82706120295E+00  0.30032107013E+01  0.86019569953E+01  0.91486047657E+01  0.51100000000E-03 0. -1.
        -11    1    3    3    0    0  0.14709702121E+02 -0.29811265112E+02  0.19983761297E+02  0.38787080064E+02  0.51100000000E-03 0.  1.
         12    1    3    3    0    0 -0.14423011761E+02  0.26886115542E+02 -0.28968450476E+02  0.42072052484E+02  0.00000000000E+00 0. -1.
</event>
<event>
 7    1  0.3925070E-015  0.9000782E+02  0.7816164E-02  0.1186339E+00
        -11   -1    0    0    0    0  0.00000000000E+00  0.00000000000E+00  0.45593999997E+02  0.45594000000E+02  0.51100000000E-03 0.  1.
         11   -1    0    0    0    0 -0.00000000000E+00 -0.00000000000E+00 -0.45593999997E+02  0.45594000000E+02  0.51100000000E-03 0. -1.
    9900012    2    1    2    0    0  0.10677989485E+01 -0.83226525584E-01 -0.49568289419E+00  0.90007820869E+02  0.90000083305E+02 0.  0.
        -12    1    1    2    0    0 -0.10677989485E+01  0.83226525584E-01  0.49568289419E+00  0.11801791307E+01  0.00000000000E+00 0.  1.
         11    1    3    3    0    0  0.29701256240E+01 -0.10129478360E+02 -0.21779347801E+01  0.10778282713E+02  0.51100000000E-03 0. -1.
        -11    1    3    3    0    0  0.17501256531E+01 -0.21370489363E+02  0.29933592182E+02  0.36820927427E+02  0.51100000000E-03 0.  1.
         12    1    3    3    0    0 -0.36524523286E+01  0.31416741198E+02 -0.28251340296E+02  0.42408610730E+02  0.00000000000E+00 0. -1.
</event>
<event>
 7    1  0.3925070E-015  0.9000761E+02  0.7816164E-02  0.1186339E+00
        -11   -1    0    0    0    0  0.00000000000E+00  0.00000000000E+00  0.45593999997E+02  0.45594000000E+02  0.51100000000E-03 0. -1.
         11   -1    0    0    0    0 -0.00000000000E+00 -0.00000000000E+00 -0.45593999997E+02  0.45594000000E+02  0.51100000000E-03 0.  1.
    9900012    2    1    2    0    0  0.81976811288E+00 -0.21236277726E+00  0.82231162719E+00  0.90007612724E+02  0.89999872412E+02 0.  0.
        -12    1    1    2    0    0 -0.81976811288E+00  0.21236277726E+00 -0.82231162719E+00  0.11803872756E+01  0.00000000000E+00 0.  1.
         11    1    3    3    0    0 -0.56684608367E+01  0.92136291051E+01 -0.12201498910E+01  0.10886283827E+02  0.51100000000E-03 0. -1.
        -11    1    3    3    0    0  0.89195738400E+00 -0.25417170470E+01 -0.38006301955E+02  0.38101639099E+02  0.51100000000E-03 0.  1.
         12    1    3    3    0    0  0.55962715656E+01 -0.68842748353E+01  0.40048763473E+02  0.41019689798E+02  0.00000000000E+00 0. -1.
</event>
<event>
 7    1  0.3925070E-015  0.9000773E+02  0.7816164E-02  0.1186339E+00
        -11   -1    0    0    0    0  0.00000000000E+00  0.00000000000E+00  0.45593999997E+02  0.45594000000E+02  0.51100000000E-03 0. -1.
         11   -1    0    0    0    0 -0.00000000000E+00 -0.00000000000E+00 -0.45593999997E+02  0.45594000000E+02  0.51100000000E-03 0.  1.
    9900012    2    1    2    0    0  0.57943951611E+00 -0.15456487001E+00  0.10165633692E+01  0.90007728194E+02  0.89999989406E+02 0.  0.
        -12    1    1    2    0    0 -0.57943951611E+00  0.15456487001E+00 -0.10165633692E+01  0.11802718058E+01  0.00000000000E+00 0.  1.
         11    1    3    3    0    0  0.76151661838E+01 -0.72471901985E+00  0.23511915415E+01  0.80027542503E+01  0.51100000000E-03 0. -1.
        -11    1    3    3    0    0  0.28160808094E+02 -0.16009433215E+02 -0.20804842636E+02  0.38499020010E+02  0.51100000000E-03 0.  1.
         12    1    3    3    0    0 -0.35196534762E+02  0.16579587365E+02  0.19470214463E+02  0.43505953934E+02  0.00000000000E+00 0. -1.
</event>
<event>
 7    1  0.3925070E-015  0.9000771E+02  0.7816164E-02  0.1186339E+00
        -11   -1    0    0    0    0  0.00000000000E+00  0.00000000000E+00  0.45593999997E+02  0.45594000000E+02  0.51100000000E-03 0. -1.
         11   -1    0    0    0    0 -0.00000000000E+00 -0.00000000000E+00 -0.45593999997E+02  0.45594000000E+02  0.51100000000E-03 0.  1.
    9900012    2    1    2    0    0 -0.79280924477E+00  0.79393876332E+00  0.36633165865E+00  0.90007710145E+02  0.89999971119E+02 0.  0.
        -12    1    1    2    0    0  0.79280924477E+00 -0.79393876332E+00 -0.36633165865E+00  0.11802898553E+01  0.00000000000E+00 0.  1.
         11    1    3    3    0    0  0.25076014212E+02  0.70120938883E+01 -0.27836915626E+02  0.38116529502E+02  0.51100000000E-03 0. -1.
        -11    1    3    3    0    0 -0.50483671808E+00 -0.10145707278E+02 -0.38189800824E+01  0.10852411963E+02  0.51100000000E-03 0.  1.
        -12    1    3    3    0    0 -0.25363986739E+02  0.39275521534E+01  0.32022227367E+02  0.41038768679E+02  0.00000000000E+00 0.  1.
</event>
<event>
 7    1  0.3925070E-015  0.9000786E+02  0.7816164E-02  0.1186339E+00
        -11   -1    0    0    0    0  0.00000000000E+00  0.00000000000E+00  0.45593999997E+02  0.45594000000E+02  0.51100000000E-03 0.  1.
         11   -1    0    0    0    0 -0.00000000000E+00 -0.00000000000E+00 -0.45593999997E+02  0.45594000000E+02  0.51100000000E-03 0. -1.
    9900012    2    1    2    0    0  0.51128793086E+00 -0.94018888745E+00 -0.49735130637E+00  0.90007860680E+02  0.90000123641E+02 0.  0.
        -12    1    1    2    0    0 -0.51128793086E+00  0.94018888745E+00  0.49735130637E+00  0.11801393199E+01  0.00000000000E+00 0.  1.
         11    1    3    3    0    0  0.55316023361E+01 -0.47678117048E+01  0.13105416708E+01  0.74194455716E+01  0.51100000000E-03 0. -1.
        -11    1    3    3    0    0  0.17617634319E+02 -0.16300916922E+02  0.30161735159E+02  0.38546481027E+02  0.51100000000E-03 0.  1.
         12    1    3    3    0    0 -0.22637948725E+02  0.20128539740E+02 -0.31969628136E+02  0.44041934082E+02  0.00000000000E+00 0. -1.
</event>
<event>
 7    1  0.3925070E-015  0.9000776E+02  0.7816164E-02  0.1186339E+00
        -11   -1    0    0    0    0  0.00000000000E+00  0.00000000000E+00  0.45593999997E+02  0.45594000000E+02  0.51100000000E-03 0.  1.
         11   -1    0    0    0    0 -0.00000000000E+00 -0.00000000000E+00 -0.45593999997E+02  0.45594000000E+02  0.51100000000E-03 0. -1.
    9900012    2    1    2    0    0 -0.60638231657E-01  0.83850629843E+00 -0.82837338925E+00  0.90007757534E+02  0.90000019133E+02 0.  0.
        -12    1    1    2    0    0  0.60638231657E-01 -0.83850629843E+00  0.82837338925E+00  0.11802424665E+01  0.00000000000E+00 0.  1.
         11    1    3    3    0    0 -0.22216339559E+02  0.22468308070E+02  0.15324847001E+02  0.35117539020E+02  0.51100000000E-03 0. -1.
        -11    1    3    3    0    0 -0.10326359529E+02  0.31359252587E+01  0.44271320980E+00  0.10801098259E+02  0.51100000000E-03 0.  1.
        -12    1    3    3    0    0  0.32482060856E+02 -0.24765727030E+02 -0.16595933600E+02  0.44089120255E+02  0.00000000000E+00 0.  1.
</event>
<event>
 7    1  0.3925070E-015  0.9000776E+02  0.7816164E-02  0.1186339E+00
        -11   -1    0    0    0    0  0.00000000000E+00  0.00000000000E+00  0.45593999997E+02  0.45594000000E+02  0.51100000000E-03 0.  1.
         11   -1    0    0    0    0 -0.00000000000E+00 -0.00000000000E+00 -0.45593999997E+02  0.45594000000E+02  0.51100000000E-03 0. -1.
    9900012    2    1    2    0    0 -0.11037910707E+01 -0.21996689437E+00  0.35528623094E+00  0.90007759148E+02  0.90000020769E+02 0.  0.
        -12    1    1    2    0    0  0.11037910707E+01  0.21996689437E+00 -0.35528623094E+00  0.11802408518E+01  0.00000000000E+00 0.  1.
         11    1    3    3    0    0 -0.17716978958E+02  0.30194433316E+02  0.22951450115E+02  0.41861249495E+02  0.51100000000E-03 0. -1.
        -11    1    3    3    0    0 -0.44365297914E+01  0.11078588805E+01 -0.18203267716E+01  0.49217616465E+01  0.51100000000E-03 0.  1.
        -12    1    3    3    0    0  0.21049717678E+02 -0.31522259091E+02 -0.20775837112E+02  0.43224748007E+02  0.00000000000E+00 0.  1.
</event>
<event>
 7    1  0.3925070E-015  0.9000771E+02  0.7816164E-02  0.1186339E+00
        -11   -1    0    0    0    0  0.00000000000E+00  0.00000000000E+00  0.45593999997E+02  0.45594000000E+02  0.51100000000E-03 0. -1.
         11   -1    0    0    0    0 -0.00000000000E+00 -0.00000000000E+00 -0.45593999997E+02  0.45594000000E+02  0.51100000000E-03 0.  1.
    9900012    2    1    2    0    0  0.87990668159E+00 -0.72681505289E+00 -0.30096606615E+00  0.90007713398E+02  0.89999974415E+02 0.  0.
        -12    1    1    2    0    0 -0.87990668159E+00  0.72681505289E+00  0.30096606615E+00  0.11802866018E+01  0.00000000000E+00 0.  1.
         11    1    3    3    0    0 -0.77524947643E+01  0.19254424044E+01  0.40474505039E+01  0.89549069993E+01  0.51100000000E-03 0. -1.
        -11    1    3    3    0    0 -0.13905848086E+02  0.33486906133E+02  0.71038871841E+01  0.36948757851E+02  0.51100000000E-03 0.  1.
         12    1    3    3    0    0  0.22538249532E+02 -0.36139163591E+02 -0.11452303754E+02  0.44104048548E+02  0.00000000000E+00 0. -1.
</event>
<event>
 7    1  0.3925070E-015  0.9000777E+02  0.7816164E-02  0.1186339E+00
        -11   -1    0    0    0    0  0.00000000000E+00  0.00000000000E+00  0.45593999997E+02  0.45594000000E+02  0.51100000000E-03 0. -1.
         11   -1    0    0    0    0 -0.00000000000E+00 -0.00000000000E+00 -0.45593999997E+02  0.45594000000E+02  0.51100000000E-03 0.  1.
    9900012    2    1    2    0    0 -0.97600690483E+00 -0.65610778074E+00 -0.99395005314E-01  0.90007768554E+02  0.90000030299E+02 0.  0.
        -12    1    1    2    0    0  0.97600690483E+00  0.65610778074E+00  0.99395005314E-01  0.11802314456E+01  0.00000000000E+00 0.  1.
         11    1    3    3    0    0  0.19194839400E+02 -0.22454818739E+02  0.16759591348E+02  0.33963872669E+02  0.51100000000E-03 0. -1.
        -11    1    3    3    0    0  0.60325260035E+00 -0.57487040822E+01  0.10516453340E+02  0.12000304306E+02  0.51100000000E-03 0.  1.
        -12    1    3    3    0    0 -0.20774098905E+02  0.27547415041E+02 -0.27375439694E+02  0.44043591579E+02  0.00000000000E+00 0.  1.
</event>
<event>
 7    1  0.3925070E-015  0.9000785E+02  0.7816164E-02  0.1186339E+00
        -11   -1    0    0    0    0  0.00000000000E+00  0.00000000000E+00  0.45593999997E+02  0.45594000000E+02  0.51100000000E-03 0.  1.
         11   -1    0    0    0    0 -0.00000000000E+00 -0.00000000000E+00 -0.45593999997E+02  0.45594000000E+02  0.51100000000E-03 0. -1.
    9900012    2    1    2    0    0  0.83138329250E+00  0.59803060468E+00 -0.58643540010E+00  0.90007853712E+02  0.90000116581E+02 0.  0.
        -12    1    1    2    0    0 -0.83138329250E+00 -0.59803060468E+00  0.58643540010E+00  0.11801462882E+01  0.00000000000E+00 0.  1.
         11    1    3    3    0    0 -0.67882278426E+01  0.53016930876E+01 -0.24765384723E+01  0.89622112173E+01  0.51100000000E-03 0. -1.
        -11    1    3    3    0    0 -0.31359462068E+02 -0.18484290850E+02 -0.10499636837E+02  0.37885712919E+02  0.51100000000E-03 0.  1.
         12    1    3    3    0    0  0.38979073203E+02  0.13780628367E+02  0.12389739909E+02  0.43159929575E+02  0.00000000000E+00 0. -1.
</event>
<event>
 7    1  0.3925070E-015  0.9000741E+02  0.7816164E-02  0.1186340E+00
        -11   -1    0    0    0    0  0.00000000000E+00  0.00000000000E+00  0.45593999997E+02  0.45594000000E+02  0.51100000000E-03 0.  1.
         11   -1    0    0    0    0 -0.00000000000E+00 -0.00000000000E+00 -0.45593999997E+02  0.45594000000E+02  0.51100000000E-03 0. -1.
    9900012    2    1    2    0    0 -0.82706860674E+00 -0.84160810867E+00 -0.38071405382E-01  0.90007408572E+02  0.89999665564E+02 0.  0.
        -12    1    1    2    0    0  0.82706860674E+00  0.84160810867E+00  0.38071405382E-01  0.11805914284E+01  0.00000000000E+00 0.  1.
         11    1    3    3    0    0 -0.93965004602E+01  0.36333686974E+02 -0.15718285953E+02  0.40687781256E+02  0.51100000000E-03 0. -1.
        -11    1    3    3    0    0  0.62377271659E+01 -0.58311070603E+01 -0.66006720877E+01  0.10792586438E+02  0.51100000000E-03 0.  1.
        -12    1    3    3    0    0  0.23317046876E+01 -0.31344188022E+02  0.22280886635E+02  0.38527040877E+02  0.00000000000E+00 0.  1.
</event>
<event>
 7    1  0.3925070E-015  0.9000765E+02  0.7816164E-02  0.1186339E+00
        -11   -1    0    0    0    0  0.00000000000E+00  0.00000000000E+00  0.45593999997E+02  0.45594000000E+02  0.51100000000E-03 0. -1.
         11   -1    0    0    0    0 -0.00000000000E+00 -0.00000000000E+00 -0.45593999997E+02  0.45594000000E+02  0.51100000000E-03 0.  1.
    9900012    2    1    2    0    0  0.99740198275E+00 -0.13774568037E+00  0.61597889071E+00  0.90007654889E+02  0.89999915133E+02 0.  0.
        -12    1    1    2    0    0 -0.99740198275E+00  0.13774568037E+00 -0.61597889071E+00  0.11803451112E+01  0.00000000000E+00 0.  1.
         11    1    3    3    0    0  0.17528489151E+02  0.32499768453E+02  0.10933688248E+02  0.38510108029E+02  0.51100000000E-03 0. -1.
        -11    1    3    3    0    0 -0.19105951101E+01  0.65398147056E+01  0.32315233097E+01  0.75407090662E+01  0.51100000000E-03 0.  1.
        -12    1    3    3    0    0 -0.14620492058E+02 -0.39177328839E+02 -0.13549232667E+02  0.43956837794E+02  0.00000000000E+00 0.  1.
</event>
<event>
 7    1  0.3925070E-015  0.9000789E+02  0.7816164E-02  0.1186339E+00
        -11   -1    0    0    0    0  0.00000000000E+00  0.00000000000E+00  0.45593999997E+02  0.45594000000E+02  0.51100000000E-03 0.  1.
         11   -1    0    0    0    0 -0.00000000000E+00 -0.00000000000E+00 -0.45593999997E+02  0.45594000000E+02  0.51100000000E-03 0. -1.
    9900012    2    1    2    0    0  0.76963502918E+00 -0.88984768586E+00 -0.92176112007E-01  0.90007888388E+02  0.90000151714E+02 0.  0.
        -12    1    1    2    0    0 -0.76963502918E+00  0.88984768586E+00  0.92176112007E-01  0.11801116124E+01  0.00000000000E+00 0.  1.
         11    1    3    3    0    0 -0.16200460655E+02  0.16018122582E+02 -0.26057805882E+02  0.34612778336E+02  0.51100000000E-03 0. -1.
        -11    1    3    3    0    0 -0.56290688709E+01  0.28290427836E+01 -0.79295146511E+01  0.10127541769E+02  0.51100000000E-03 0.  1.
        -12    1    3    3    0    0  0.22599164555E+02 -0.19737013052E+02  0.33895144421E+02  0.45267568282E+02  0.00000000000E+00 0.  1.
</event>
<event>
 7    1  0.3925070E-015  0.9000861E+02  0.7816164E-02  0.1186337E+00
        -11   -1    0    0    0    0  0.00000000000E+00  0.00000000000E+00  0.45593999997E+02  0.45594000000E+02  0.51100000000E-03 0.  1.
         11   -1    0    0    0    0 -0.00000000000E+00 -0.00000000000E+00 -0.45593999997E+02  0.45594000000E+02  0.51100000000E-03 0. -1.
    9900012    2    1    2    0    0  0.10439349066E+01 -0.16396350583E+00 -0.52370521721E+00  0.90008614026E+02  0.90000886927E+02 0.  0.
        -12    1    1    2    0    0 -0.10439349066E+01  0.16396350583E+00  0.52370521721E+00  0.11793859737E+01  0.00000000000E+00 0.  1.
         11    1    3    3    0    0 -0.27573843611E+01  0.81543085214E+01  0.17787225670E+01  0.87897537058E+01  0.51100000000E-03 0. -1.
        -11    1    3    3    0    0  0.15797987283E+02  0.26164343548E+02  0.21737118583E+02  0.37505354285E+02  0.51100000000E-03 0.  1.
         12    1    3    3    0    0 -0.11996668016E+02 -0.34482615575E+02 -0.24039546367E+02  0.43713506035E+02  0.00000000000E+00 0. -1.
</event>
<event>
 7    1  0.3925070E-015  0.9000783E+02  0.7816164E-02  0.1186339E+00
        -11   -1    0    0    0    0  0.00000000000E+00  0.00000000000E+00  0.45593999997E+02  0.45594000000E+02  0.51100000000E-03 0.  1.
         11   -1    0    0    0    0 -0.00000000000E+00 -0.00000000000E+00 -0.45593999997E+02  0.45594000000E+02  0.51100000000E-03 0. -1.
    9900012    2    1    2    0    0 -0.28802512039E+00 -0.11099135719E+01  0.27916259438E+00  0.90007831215E+02  0.90000093787E+02 0.  0.
        -12    1    1    2    0    0  0.28802512039E+00  0.11099135719E+01 -0.27916259438E+00  0.11801687850E+01  0.00000000000E+00 0.  1.
         11    1    3    3    0    0 -0.86265558241E+01 -0.18530808321E+01 -0.28601770567E+01  0.92753429593E+01  0.51100000000E-03 0. -1.
        -11    1    3    3    0    0 -0.28115302427E+02  0.23855497220E+02  0.64919187888E+01  0.37439284021E+02  0.51100000000E-03 0.  1.
         12    1    3    3    0    0  0.36453833131E+02 -0.23112329959E+02 -0.33525791377E+01  0.43293204235E+02  0.00000000000E+00 0. -1.
</event>
<event>
 7    1  0.3925070E-015  0.9000762E+02  0.7816164E-02  0.1186339E+00
        -11   -1    0    0    0    0  0.00000000000E+00  0.00000000000E+00  0.45593999997E+02  0.45594000000E+02  0.51100000000E-03 0.  1.
         11   -1    0    0    0    0 -0.00000000000E+00 -0.00000000000E+00 -0.45593999997E+02  0.45594000000E+02  0.51100000000E-03 0. -1.
    9900012    2    1    2    0    0 -0.63927744059E+00 -0.58838475510E+00 -0.79902134933E+00  0.90007615578E+02  0.89999875304E+02 0.  0.
        -12    1    1    2    0    0  0.63927744059E+00  0.58838475510E+00  0.79902134933E+00  0.11803844216E+01  0.00000000000E+00 0.  1.
         11    1    3    3    0    0 -0.48096278730E+01 -0.51056458327E+01 -0.71442636845E+01  0.10012024945E+02  0.51100000000E-03 0. -1.
        -11    1    3    3    0    0 -0.19486754157E+02  0.13925527894E+02 -0.28253431054E+02  0.37039307247E+02  0.51100000000E-03 0.  1.
         12    1    3    3    0    0  0.23657104590E+02 -0.94082668165E+01  0.34598673390E+02  0.42956283386E+02  0.00000000000E+00 0. -1.
</event>
<event>
 7    1  0.3925070E-015  0.9000786E+02  0.7816164E-02  0.1186339E+00
        -11   -1    0    0    0    0  0.00000000000E+00  0.00000000000E+00  0.45593999997E+02  0.45594000000E+02  0.51100000000E-03 0.  1.
         11   -1    0    0    0    0 -0.00000000000E+00 -0.00000000000E+00 -0.45593999997E+02  0.45594000000E+02  0.51100000000E-03 0. -1.
    9900012    2    1    2    0    0 -0.90522439360E+00  0.65215508673E+00  0.38468857153E+00  0.90007863246E+02  0.90000126241E+02 0.  0.
        -12    1    1    2    0    0  0.90522439360E+00 -0.65215508673E+00 -0.38468857153E+00  0.11801367535E+01  0.00000000000E+00 0.  1.
         11    1    3    3    0    0 -0.61685954281E+01  0.15110703033E+01 -0.78974886638E+01  0.10134358908E+02  0.51100000000E-03 0. -1.
        -11    1    3    3    0    0 -0.29593627777E+02  0.19127070901E+02 -0.86315158539E+01  0.36278515852E+02  0.51100000000E-03 0.  1.
         12    1    3    3    0    0  0.34856998811E+02 -0.19985986118E+02  0.16913693089E+02  0.43594988486E+02  0.00000000000E+00 0. -1.
</event>
<event>
 7    1  0.3925070E-015  0.9000766E+02  0.7816164E-02  0.1186339E+00
        -11   -1    0    0    0    0  0.00000000000E+00  0.00000000000E+00  0.45593999997E+02  0.45594000000E+02  0.51100000000E-03 0.  1.
         11   -1    0    0    0    0 -0.00000000000E+00 -0.00000000000E+00 -0.45593999997E+02  0.45594000000E+02  0.51100000000E-03 0. -1.
    9900012    2    1    2    0    0  0.59038600424E+00 -0.96837797689E+00  0.32693527155E+00  0.90007661823E+02  0.89999922159E+02 0.  0.
        -12    1    1    2    0    0 -0.59038600424E+00  0.96837797689E+00 -0.32693527155E+00  0.11803381769E+01  0.00000000000E+00 0.  1.
         11    1    3    3    0    0  0.77183819053E+01  0.33938063380E+02  0.37058901100E+01  0.35001416929E+02  0.51100000000E-03 0. -1.
        -11    1    3    3    0    0  0.42968181264E+00  0.96703257440E+01 -0.20429574436E+00  0.96820226951E+01  0.51100000000E-03 0.  1.
        -12    1    3    3    0    0 -0.75576777137E+01 -0.44576767101E+02 -0.31746590941E+01  0.45324222199E+02  0.00000000000E+00 0.  1.
</event>
<event>
 7    1  0.3925070E-015  0.9000771E+02  0.7816164E-02  0.1186339E+00
        -11   -1    0    0    0    0  0.00000000000E+00  0.00000000000E+00  0.45593999997E+02  0.45594000000E+02  0.51100000000E-03 0. -1.
         11   -1    0    0    0    0 -0.00000000000E+00 -0.00000000000E+00 -0.45593999997E+02  0.45594000000E+02  0.51100000000E-03 0.  1.
    9900012    2    1    2    0    0 -0.11692008622E+01  0.67682664539E-01  0.14657311031E+00  0.90007705428E+02  0.89999966340E+02 0.  0.
        -12    1    1    2    0    0  0.11692008622E+01 -0.67682664539E-01 -0.14657311031E+00  0.11802945717E+01  0.00000000000E+00 0.  1.
         11    1    3    3    0    0 -0.56202378927E+01  0.68216519835E+01 -0.48534011211E+01  0.10083526787E+02  0.51100000000E-03 0. -1.
        -11    1    3    3    0    0  0.11747993212E+02  0.35228152701E+02  0.32361045805E+01  0.37276137949E+02  0.51100000000E-03 0.  1.
         12    1    3    3    0    0 -0.72969561820E+01 -0.41982122020E+02  0.17638696509E+01  0.42648040693E+02  0.00000000000E+00 0. -1.
</event>
<event>
 7    1  0.3925070E-015  0.9000768E+02  0.7816164E-02  0.1186339E+00
        -11   -1    0    0    0    0  0.00000000000E+00  0.00000000000E+00  0.45593999997E+02  0.45594000000E+02  0.51100000000E-03 0.  1.
         11   -1    0    0    0    0 -0.00000000000E+00 -0.00000000000E+00 -0.45593999997E+02  0.45594000000E+02  0.51100000000E-03 0. -1.
    9900012    2    1    2    0    0  0.23586252644E+00  0.14396961094E+00 -0.11475127238E+01  0.90007684859E+02  0.89999945499E+02 0.  0.
        -12    1    1    2    0    0 -0.23586252644E+00 -0.14396961094E+00  0.11475127238E+01  0.11803151408E+01  0.00000000000E+00 0.  1.
         11    1    3    3    0    0 -0.64199511031E+01 -0.15917490280E+02  0.50473643723E+01  0.17890169266E+02  0.51100000000E-03 0. -1.
        -11    1    3    3    0    0  0.96800691383E+01 -0.25278810864E+02  0.81266323578E+01  0.28262416226E+02  0.51100000000E-03 0.  1.
         12    1    3    3    0    0 -0.30242555089E+01  0.41340270755E+02 -0.14321509454E+02  0.43855099367E+02  0.00000000000E+00 0. -1.
</event>
<event>
 7    1  0.3925070E-015  0.9000772E+02  0.7816164E-02  0.1186339E+00
        -11   -1    0    0    0    0  0.00000000000E+00  0.00000000000E+00  0.45593999997E+02  0.45594000000E+02  0.51100000000E-03 0.  1.
         11   -1    0    0    0    0 -0.00000000000E+00 -0.00000000000E+00 -0.45593999997E+02  0.45594000000E+02  0.51100000000E-03 0. -1.
    9900012    2    1    2    0    0  0.11659609004E+00 -0.11507091778E+01 -0.23522066597E+00  0.90007722481E+02  0.89999983618E+02 0.  0.
        -12    1    1    2    0    0 -0.11659609004E+00  0.11507091778E+01  0.23522066597E+00  0.11802775190E+01  0.00000000000E+00 0.  1.
         11    1    3    3    0    0  0.12805838064E+01  0.27246201689E+02  0.26856646814E+02  0.38278909072E+02  0.51100000000E-03 0. -1.
        -11    1    3    3    0    0 -0.12850880362E+02 -0.17755941925E+00 -0.40716694189E+01  0.13481659599E+02  0.51100000000E-03 0.  1.
        -12    1    3    3    0    0  0.11686892646E+02 -0.28219351447E+02 -0.23020198061E+02  0.38247153810E+02  0.00000000000E+00 0.  1.
</event>
<event>
 7    1  0.3925070E-015  0.9000768E+02  0.7816164E-02  0.1186339E+00
        -11   -1    0    0    0    0  0.00000000000E+00  0.00000000000E+00  0.45593999997E+02  0.45594000000E+02  0.51100000000E-03 0.  1.
         11   -1    0    0    0    0 -0.00000000000E+00 -0.00000000000E+00 -0.45593999997E+02  0.45594000000E+02  0.51100000000E-03 0. -1.
    9900012    2    1    2    0    0  0.88257006888E-01  0.27820162264E+00 -0.11436641323E+01  0.90007680937E+02  0.89999941526E+02 0.  0.
        -12    1    1    2    0    0 -0.88257006888E-01 -0.27820162264E+00  0.11436641323E+01  0.11803190626E+01  0.00000000000E+00 0.  1.
         11    1    3    3    0    0  0.49385972005E+01 -0.59920786137E+01  0.35203848512E+00  0.77729453734E+01  0.51100000000E-03 0. -1.
        -11    1    3    3    0    0  0.54905857763E+00  0.19740523566E+02  0.36534229582E+02  0.41529985159E+02  0.51100000000E-03 0.  1.
         12    1    3    3    0    0 -0.53993987713E+01 -0.13470243329E+02 -0.38029932199E+02  0.40704750405E+02  0.00000000000E+00 0. -1.
</event>
<event>
 7    1  0.3925070E-015  0.9000755E+02  0.7816164E-02  0.1186339E+00
        -11   -1    0    0    0    0  0.00000000000E+00  0.00000000000E+00  0.45593999997E+02  0.45594000000E+02  0.51100000000E-03 0. -1.
         11   -1    0    0    0    0 -0.00000000000E+00 -0.00000000000E+00 -0.45593999997E+02  0.45594000000E+02  0.51100000000E-03 0.  1.
    9900012    2    1    2    0    0  0.11395023546E+00  0.10172891794E+01  0.58787452898E+00  0.90007551614E+02  0.89999810495E+02 0.  0.
        -12    1    1    2    0    0 -0.11395023546E+00 -0.10172891794E+01 -0.58787452898E+00  0.11804483862E+01  0.00000000000E+00 0.  1.
         11    1    3    3    0    0 -0.13972840374E+00 -0.33307794074E+01 -0.81176039348E+01  0.87754834277E+01  0.51100000000E-03 0. -1.
        -11    1    3    3    0    0  0.30312128564E+01 -0.17582162749E+02 -0.31011652646E+02  0.35777692749E+02  0.51100000000E-03 0.  1.
         12    1    3    3    0    0 -0.27775342172E+01  0.21930231336E+02  0.39717131110E+02  0.45454375437E+02  0.00000000000E+00 0. -1.
</event>
<event>
 7    1  0.3925070E-015  0.9000776E+02  0.7816164E-02  0.1186339E+00
        -11   -1    0    0    0    0  0.00000000000E+00  0.00000000000E+00  0.45593999997E+02  0.45594000000E+02  0.51100000000E-03 0.  1.
         11   -1    0    0    0    0 -0.00000000000E+00 -0.00000000000E+00 -0.45593999997E+02  0.45594000000E+02  0.51100000000E-03 0. -1.
    9900012    2    1    2    0    0 -0.53348676403E+00 -0.12846716557E+00 -0.10449183491E+01  0.90007760068E+02  0.90000021701E+02 0.  0.
        -12    1    1    2    0    0  0.53348676403E+00  0.12846716557E+00  0.10449183491E+01  0.11802399317E+01  0.00000000000E+00 0.  1.
         11    1    3    3    0    0  0.30678396726E+02  0.19434783701E+02 -0.80369208799E+01  0.37194985423E+02  0.51100000000E-03 0. -1.
        -11    1    3    3    0    0 -0.21375802430E+00  0.75766497190E+01 -0.59408372197E+01  0.96304133135E+01  0.51100000000E-03 0.  1.
        -12    1    3    3    0    0 -0.30998125465E+02 -0.27139900585E+02  0.12932839750E+02  0.43182361331E+02  0.00000000000E+00 0.  1.
</event>
<event>
 7    1  0.3925070E-015  0.9000776E+02  0.7816164E-02  0.1186339E+00
        -11   -1    0    0    0    0  0.00000000000E+00  0.00000000000E+00  0.45593999997E+02  0.45594000000E+02  0.51100000000E-03 0. -1.
         11   -1    0    0    0    0 -0.00000000000E+00 -0.00000000000E+00 -0.45593999997E+02  0.45594000000E+02  0.51100000000E-03 0.  1.
    9900012    2    1    2    0    0  0.46283307294E+00 -0.10471876177E+01 -0.28661707402E+00  0.90007760318E+02  0.90000021954E+02 0.  0.
        -12    1    1    2    0    0 -0.46283307294E+00  0.10471876177E+01  0.28661707402E+00  0.11802396821E+01  0.00000000000E+00 0.  1.
         11    1    3    3    0    0 -0.84450597160E+01  0.74661136299E+01  0.49050479047E+01  0.12293143681E+02  0.51100000000E-03 0. -1.
        -11    1    3    3    0    0  0.39079505041E+02  0.11811581683E+01 -0.18609462391E+02  0.43300287985E+02  0.51100000000E-03 0.  1.
         12    1    3    3    0    0 -0.30171612252E+02 -0.96944594158E+01  0.13417797412E+02  0.34414328653E+02  0.00000000000E+00 0. -1.
</event>
<event>
 7    1  0.3925070E-015  0.9000769E+02  0.7816164E-02  0.1186339E+00
        -11   -1    0    0    0    0  0.00000000000E+00  0.00000000000E+00  0.45593999997E+02  0.45594000000E+02  0.51100000000E-03 0. -1.
         11   -1    0    0    0    0 -0.00000000000E+00 -0.00000000000E+00 -0.45593999997E+02  0.45594000000E+02  0.51100000000E-03 0.  1.
    9900012    2    1    2    0    0  0.58676321414E+00  0.10221129615E+01  0.64150755895E-01  0.90007694406E+02  0.89999955172E+02 0.  0.
        -12    1    1    2    0    0 -0.58676321414E+00 -0.10221129615E+01 -0.64150755895E-01  0.11803055939E+01  0.00000000000E+00 0.  1.
         11    1    3    3    0    0  0.10699767189E+02  0.51294419843E+00 -0.40073892265E+01  0.11437101832E+02  0.51100000000E-03 0. -1.
        -11    1    3    3    0    0 -0.63340867471E+01  0.37763517596E+02 -0.82121608513E+01  0.39161760714E+02  0.51100000000E-03 0.  1.
         12    1    3    3    0    0 -0.37789172273E+01 -0.37254348833E+02  0.12283700834E+02  0.39408831860E+02  0.00000000000E+00 0. -1.
</event>
<event>
 7    1  0.3925070E-015  0.9000773E+02  0.7816164E-02  0.1186339E+00
        -11   -1    0    0    0    0  0.00000000000E+00  0.00000000000E+00  0.45593999997E+02  0.45594000000E+02  0.51100000000E-03 0. -1.
         11   -1    0    0    0    0 -0.00000000000E+00 -0.00000000000E+00 -0.45593999997E+02  0.45594000000E+02  0.51100000000E-03 0.  1.
    9900012    2    1    2    0    0 -0.21206727931E+00  0.11398990227E+01 -0.22066534532E+00  0.90007730748E+02  0.89999991994E+02 0.  0.
        -12    1    1    2    0    0  0.21206727931E+00 -0.11398990227E+01  0.22066534532E+00  0.11802692522E+01  0.00000000000E+00 0.  1.
         11    1    3    3    0    0  0.12896314039E+01  0.93351124654E+01  0.31082655493E+01  0.99231441028E+01  0.51100000000E-03 0. -1.
        -11    1    3    3    0    0 -0.14313929230E+02  0.31561295376E+02 -0.13335450493E+02  0.37132710323E+02  0.51100000000E-03 0.  1.
         12    1    3    3    0    0  0.12812230547E+02 -0.39756508819E+02  0.10006519599E+02  0.42951876322E+02  0.00000000000E+00 0. -1.
</event>
<event>
 7    1  0.3925070E-015  0.9000770E+02  0.7816164E-02  0.1186339E+00
        -11   -1    0    0    0    0  0.00000000000E+00  0.00000000000E+00  0.45593999997E+02  0.45594000000E+02  0.51100000000E-03 0. -1.
         11   -1    0    0    0    0 -0.00000000000E+00 -0.00000000000E+00 -0.45593999997E+02  0.45594000000E+02  0.51100000000E-03 0.  1.
    9900012    2    1    2    0    0 -0.65675651000E+00 -0.96318829670E+00  0.18448731745E+00  0.90007704961E+02  0.89999965867E+02 0.  0.
        -12    1    1    2    0    0  0.65675651000E+00  0.96318829670E+00 -0.18448731745E+00  0.11802950388E+01  0.00000000000E+00 0.  1.
         11    1    3    3    0    0 -0.29125620833E+02  0.13202998650E+02  0.14905364658E+02  0.35281593758E+02  0.51100000000E-03 0. -1.
        -11    1    3    3    0    0 -0.89841245807E+01  0.30704549245E+01  0.28444815743E+01  0.99112695258E+01  0.51100000000E-03 0.  1.
        -12    1    3    3    0    0  0.37452988903E+02 -0.17236641871E+02 -0.17565358914E+02  0.44814841678E+02  0.00000000000E+00 0.  1.
</event>
<event>
 7    1  0.3925070E-015  0.9000764E+02  0.7816164E-02  0.1186339E+00
        -11   -1    0    0    0    0  0.00000000000E+00  0.00000000000E+00  0.45593999997E+02  0.45594000000E+02  0.51100000000E-03 0.  1.
         11   -1    0    0    0    0 -0.00000000000E+00 -0.00000000000E+00 -0.45593999997E+02  0.45594000000E+02  0.51100000000E-03 0. -1.
    9900012    2    1    2    0    0  0.78210474603E+00  0.88254220426E+00 -0.51713845931E-01  0.90007642894E+02  0.89999902980E+02 0.  0.
        -12    1    1    2    0    0 -0.78210474603E+00 -0.88254220426E+00  0.51713845931E-01  0.11803571061E+01  0.00000000000E+00 0.  1.
         11    1    3    3    0    0 -0.38475520875E+01 -0.14870529741E+02 -0.80262980566E+01  0.17330833004E+02  0.51100000000E-03 0. -1.
        -11    1    3    3    0    0 -0.26300546249E+02  0.14383691167E+02 -0.15571496238E+02  0.33779887506E+02  0.51100000000E-03 0.  1.
        -12    1    3    3    0    0  0.30930203082E+02  0.13693807782E+01  0.23546080449E+02  0.38896922384E+02  0.00000000000E+00 0.  1.
</event>
<event>
 7    1  0.3925070E-015  0.9000783E+02  0.7816164E-02  0.1186339E+00
        -11   -1    0    0    0    0  0.00000000000E+00  0.00000000000E+00  0.45593999997E+02  0.45594000000E+02  0.51100000000E-03 0.  1.
         11   -1    0    0    0    0 -0.00000000000E+00 -0.00000000000E+00 -0.45593999997E+02  0.45594000000E+02  0.51100000000E-03 0. -1.
    9900012    2    1    2    0    0 -0.93308796189E+00  0.58710535449E+00 -0.42124947794E+00  0.90007831807E+02  0.90000094386E+02 0.  0.
        -12    1    1    2    0    0  0.93308796189E+00 -0.58710535449E+00  0.42124947794E+00  0.11801681933E+01  0.00000000000E+00 0.  1.
         11    1    3    3    0    0  0.13401405212E+01 -0.37108220063E+01  0.91756654804E+01  0.99879434244E+01  0.51100000000E-03 0. -1.
        -11    1    3    3    0    0 -0.27379549379E+02 -0.16616233122E+02 -0.27979820219E+02  0.42527747026E+02  0.51100000000E-03 0.  1.
         12    1    3    3    0    0  0.25106320896E+02  0.20914160483E+02  0.18382905261E+02  0.37492141356E+02  0.00000000000E+00 0. -1.
</event>
<event>
 7    1  0.3925070E-015  0.9000776E+02  0.7816164E-02  0.1186339E+00
        -11   -1    0    0    0    0  0.00000000000E+00  0.00000000000E+00  0.45593999997E+02  0.45594000000E+02  0.51100000000E-03 0. -1.
         11   -1    0    0    0    0 -0.00000000000E+00 -0.00000000000E+00 -0.45593999997E+02  0.45594000000E+02  0.51100000000E-03 0.  1.
    9900012    2    1    2    0    0  0.44746292629E+00 -0.65570062849E+00  0.87338843350E+00  0.90007756915E+02  0.90000018506E+02 0.  0.
        -12    1    1    2    0    0 -0.44746292629E+00  0.65570062849E+00 -0.87338843350E+00  0.11802430853E+01  0.00000000000E+00 0.  1.
         11    1    3    3    0    0  0.31393061050E+02  0.24394763744E+02  0.44666422801E+01  0.40007245265E+02  0.51100000000E-03 0. -1.
        -11    1    3    3    0    0  0.34636405351E+01 -0.46928821278E+01 -0.78659657854E+01  0.97925158371E+01  0.51100000000E-03 0.  1.
        -12    1    3    3    0    0 -0.34409238659E+02 -0.20357582245E+02  0.42727119388E+01  0.40207995812E+02  0.00000000000E+00 0.  1.
</event>
<event>
 7    1  0.3925070E-015  0.9000780E+02  0.7816164E-02  0.1186339E+00
        -11   -1    0    0    0    0  0.00000000000E+00  0.00000000000E+00  0.45593999997E+02  0.45594000000E+02  0.51100000000E-03 0. -1.
         11   -1    0    0    0    0 -0.00000000000E+00 -0.00000000000E+00 -0.45593999997E+02  0.45594000000E+02  0.51100000000E-03 0.  1.
    9900012    2    1    2    0    0 -0.78821011517E+00  0.84498639533E+00  0.23999560258E+00  0.90007798711E+02  0.90000060854E+02 0.  0.
        -12    1    1    2    0    0  0.78821011517E+00 -0.84498639533E+00 -0.23999560258E+00  0.11802012893E+01  0.00000000000E+00 0.  1.
         11    1    3    3    0    0 -0.51093142745E+01 -0.78710598397E+01  0.84529818706E+01  0.12629789314E+02  0.51100000000E-03 0. -1.
        -11    1    3    3    0    0 -0.18244794824E+02 -0.24734600570E+02 -0.18319616975E+02  0.35781019688E+02  0.51100000000E-03 0.  1.
         12    1    3    3    0    0  0.22565898983E+02  0.33450646805E+02  0.10106630707E+02  0.41596989709E+02  0.00000000000E+00 0. -1.
</event>
<event>
 7    1  0.3925070E-015  0.9000780E+02  0.7816164E-02  0.1186339E+00
        -11   -1    0    0    0    0  0.00000000000E+00  0.00000000000E+00  0.45593999997E+02  0.45594000000E+02  0.51100000000E-03 0. -1.
         11   -1    0    0    0    0 -0.00000000000E+00 -0.00000000000E+00 -0.45593999997E+02  0.45594000000E+02  0.51100000000E-03 0.  1.
    9900012    2    1    2    0    0  0.92697666670E+00  0.62227250683E+00 -0.38257443050E+00  0.90007800013E+02  0.90000062174E+02 0.  0.
        -12    1    1    2    0    0 -0.92697666670E+00 -0.62227250683E+00  0.38257443050E+00  0.11801999865E+01  0.00000000000E+00 0.  1.
         11    1    3    3    0    0 -0.84182871258E+01 -0.18298514178E+01  0.19747357664E+01  0.88382971183E+01  0.51100000000E-03 0. -1.
        -11    1    3    3    0    0  0.94756642601E+01  0.27178874782E+02 -0.31686363966E+02  0.42807769263E+02  0.51100000000E-03 0.  1.
         12    1    3    3    0    0 -0.13040046758E+00 -0.24726750858E+02  0.29329053769E+02  0.38361733632E+02  0.00000000000E+00 0. -1.
</event>
<event>
 7    1  0.3925070E-015  0.9000769E+02  0.7816164E-02  0.1186339E+00
        -11   -1    0    0    0    0  0.00000000000E+00  0.00000000000E+00  0.45593999997E+02  0.45594000000E+02  0.51100000000E-03 0.  1.
         11   -1    0    0    0    0 -0.00000000000E+00 -0.00000000000E+00 -0.45593999997E+02  0.45594000000E+02  0.51100000000E-03 0. -1.
    9900012    2    1    2    0    0 -0.11800702960E+01 -0.18774080817E-01  0.14964533142E-01  0.90007685505E+02  0.89999946154E+02 0.  0.
        -12    1    1    2    0    0  0.11800702960E+01  0.18774080817E-01 -0.14964533142E-01  0.11803144949E+01  0.00000000000E+00 0.  1.
         11    1    3    3    0    0 -0.12226364434E+02  0.36331814458E+02 -0.17022725052E+02  0.41943508408E+02  0.51100000000E-03 0. -1.
        -11    1    3    3    0    0  0.11962798259E+02 -0.44941430993E+01  0.24380436345E+01  0.13009608811E+02  0.51100000000E-03 0.  1.
        -12    1    3    3    0    0 -0.91650412068E+00 -0.31856445440E+02  0.14599645951E+02  0.35054568286E+02  0.00000000000E+00 0.  1.
</event>
<event>
 7    1  0.4957303E-015  0.9000756E+02  0.7816164E-02  0.1186339E+00
        -11   -1    0    0    0    0  0.00000000000E+00  0.00000000000E+00  0.45593999997E+02  0.45594000000E+02  0.51100000000E-03 0.  1.
         11   -1    0    0    0    0 -0.00000000000E+00 -0.00000000000E+00 -0.45593999997E+02  0.45594000000E+02  0.51100000000E-03 0. -1.
    9900012    2    1    2    0    0 -0.33795351722E+00  0.99831662502E+00 -0.53159204551E+00  0.90007559927E+02  0.89999818918E+02 0.  0.
        -12    1    1    2    0    0  0.33795351722E+00 -0.99831662502E+00  0.53159204551E+00  0.11804400732E+01  0.00000000000E+00 0.  1.
         11    1    3    3    0    0 -0.11890973709E+02  0.16488037882E+02 -0.30750753784E+02  0.36862711614E+02  0.51100000000E-03 0. -1.
        -11    1    3    3    0    0  0.24467029980E+01 -0.25683724842E+01 -0.96365559239E+01  0.10268695297E+02  0.51100000000E-03 0.  1.
        -12    1    3    3    0    0  0.91063171942E+01 -0.12921348773E+02  0.39855717663E+02  0.42876153015E+02  0.00000000000E+00 0.  1.
</event>
<event>
 7    1  0.3925070E-015  0.9000764E+02  0.7816164E-02  0.1186339E+00
        -11   -1    0    0    0    0  0.00000000000E+00  0.00000000000E+00  0.45593999997E+02  0.45594000000E+02  0.51100000000E-03 0. -1.
         11   -1    0    0    0    0 -0.00000000000E+00 -0.00000000000E+00 -0.45593999997E+02  0.45594000000E+02  0.51100000000E-03 0.  1.
    9900012    2    1    2    0    0  0.81131947297E+00 -0.73393887398E+00  0.44310358443E+00  0.90007641434E+02  0.89999901501E+02 0.  0.
        -12    1    1    2    0    0 -0.81131947297E+00  0.73393887398E+00 -0.44310358443E+00  0.11803585661E+01  0.00000000000E+00 0.  1.
         11    1    3    3    0    0  0.67649795363E+01 -0.21679297806E+01 -0.61222464260E+01  0.93779938805E+01  0.51100000000E-03 0. -1.
        -11    1    3    3    0    0  0.38409020328E+01 -0.33357787416E+02 -0.16844781411E+02  0.37566489998E+02  0.51100000000E-03 0.  1.
         12    1    3    3    0    0 -0.97945620962E+01  0.34791778323E+02  0.23410131421E+02  0.43063157556E+02  0.00000000000E+00 0. -1.
</event>
<event>
 7    1  0.3925070E-015  0.9000772E+02  0.7816164E-02  0.1186339E+00
        -11   -1    0    0    0    0  0.00000000000E+00  0.00000000000E+00  0.45593999997E+02  0.45594000000E+02  0.51100000000E-03 0. -1.
         11   -1    0    0    0    0 -0.00000000000E+00 -0.00000000000E+00 -0.45593999997E+02  0.45594000000E+02  0.51100000000E-03 0.  1.
    9900012    2    1    2    0    0  0.11106549019E+01 -0.37766990517E+00  0.12992465349E+00  0.90007716439E+02  0.89999977496E+02 0.  0.
        -12    1    1    2    0    0 -0.11106549019E+01  0.37766990517E+00 -0.12992465349E+00  0.11802835608E+01  0.00000000000E+00 0.  1.
         11    1    3    3    0    0 -0.32359184179E+02 -0.23048508793E+02  0.81185386869E+01  0.40549491107E+02  0.51100000000E-03 0. -1.
        -11    1    3    3    0    0 -0.16436435316E+01  0.90027441605E+01  0.38991267579E+01  0.99475703674E+01  0.51100000000E-03 0.  1.
        -12    1    3    3    0    0  0.35113482613E+02  0.13668094728E+02 -0.11887740791E+02  0.39510654965E+02  0.00000000000E+00 0.  1.
</event>
<event>
 7    1  0.3925070E-015  0.9000776E+02  0.7816164E-02  0.1186339E+00
        -11   -1    0    0    0    0  0.00000000000E+00  0.00000000000E+00  0.45593999997E+02  0.45594000000E+02  0.51100000000E-03 0.  1.
         11   -1    0    0    0    0 -0.00000000000E+00 -0.00000000000E+00 -0.45593999997E+02  0.45594000000E+02  0.51100000000E-03 0. -1.
    9900012    2    1    2    0    0 -0.85748573872E+00  0.27608852013E+00 -0.76253915546E+00  0.90007757387E+02  0.90000018984E+02 0.  0.
        -12    1    1    2    0    0  0.85748573872E+00 -0.27608852013E+00  0.76253915546E+00  0.11802426135E+01  0.00000000000E+00 0.  1.
         11    1    3    3    0    0  0.55699246100E+01  0.57596188798E+00  0.60643836957E+01  0.82542438859E+01  0.51100000000E-03 0. -1.
        -11    1    3    3    0    0 -0.22431014383E+01 -0.17027569352E+02  0.33637485027E+02  0.37768373295E+02  0.51100000000E-03 0.  1.
         12    1    3    3    0    0 -0.41843089104E+01  0.16727695984E+02 -0.40464407879E+02  0.43985140206E+02  0.00000000000E+00 0. -1.
</event>
<event>
 7    1  0.3925070E-015  0.9000765E+02  0.7816164E-02  0.1186339E+00
        -11   -1    0    0    0    0  0.00000000000E+00  0.00000000000E+00  0.45593999997E+02  0.45594000000E+02  0.51100000000E-03 0.  1.
         11   -1    0    0    0    0 -0.00000000000E+00 -0.00000000000E+00 -0.45593999997E+02  0.45594000000E+02  0.51100000000E-03 0. -1.
    9900012    2    1    2    0    0  0.11296670827E+01  0.32437206439E+00 -0.10891894821E+00  0.90007649081E+02  0.89999909249E+02 0.  0.
        -12    1    1    2    0    0 -0.11296670827E+01 -0.32437206439E+00  0.10891894821E+00  0.11803509187E+01  0.00000000000E+00 0.  1.
         11    1    3    3    0    0  0.59565630116E+01  0.48094605810E+01  0.53573077316E+01  0.93441051141E+01  0.51100000000E-03 0. -1.
        -11    1    3    3    0    0  0.99421700448E+01  0.35419469424E+02 -0.92866334625E+01  0.37942418489E+02  0.51100000000E-03 0.  1.
         12    1    3    3    0    0 -0.14769065974E+02 -0.39904557940E+02  0.38204067828E+01  0.42721125478E+02  0.00000000000E+00 0. -1.
</event>
<event>
 7    1  0.3925070E-015  0.9000774E+02  0.7816164E-02  0.1186339E+00
        -11   -1    0    0    0    0  0.00000000000E+00  0.00000000000E+00  0.45593999997E+02  0.45594000000E+02  0.51100000000E-03 0.  1.
         11   -1    0    0    0    0 -0.00000000000E+00 -0.00000000000E+00 -0.45593999997E+02  0.45594000000E+02  0.51100000000E-03 0. -1.
    9900012    2    1    2    0    0 -0.13897270068E+00  0.73240824956E+00 -0.91502965824E+00  0.90007739634E+02  0.90000000997E+02 0.  0.
        -12    1    1    2    0    0  0.13897270068E+00 -0.73240824956E+00  0.91502965824E+00  0.11802603658E+01  0.00000000000E+00 0.  1.
         11    1    3    3    0    0 -0.98081233173E+01 -0.12047587687E+02 -0.47387266529E+01  0.16241895906E+02  0.51100000000E-03 0. -1.
        -11    1    3    3    0    0 -0.50213163505E+01 -0.12337307864E+02  0.31131197842E+02  0.33861102500E+02  0.51100000000E-03 0.  1.
         12    1    3    3    0    0  0.14690466967E+02  0.25117303800E+02 -0.27307500847E+02  0.39904741227E+02  0.00000000000E+00 0. -1.
</event>
<event>
 7    1  0.3925070E-015  0.9000755E+02  0.7816164E-02  0.1186339E+00
        -11   -1    0    0    0    0  0.00000000000E+00  0.00000000000E+00  0.45593999997E+02  0.45594000000E+02  0.51100000000E-03 0.  1.
         11   -1    0    0    0    0 -0.00000000000E+00 -0.00000000000E+00 -0.45593999997E+02  0.45594000000E+02  0.51100000000E-03 0. -1.
    9900012    2    1    2    0    0 -0.12728792706E+00  0.10872373830E+01  0.44177329269E+00  0.90007554751E+02  0.89999813674E+02 0.  0.
        -12    1    1    2    0    0  0.12728792706E+00 -0.10872373830E+01 -0.44177329269E+00  0.11804452488E+01  0.00000000000E+00 0.  1.
         11    1    3    3    0    0  0.21576656638E+01 -0.73434709230E+01  0.64566107899E+01  0.10013486379E+02  0.51100000000E-03 0. -1.
        -11    1    3    3    0    0 -0.31193319862E+02 -0.21593507590E+02 -0.41456206263E+00  0.37940409012E+02  0.51100000000E-03 0.  1.
         12    1    3    3    0    0  0.28908366271E+02  0.30024215896E+02 -0.56002754346E+01  0.42053659360E+02  0.00000000000E+00 0. -1.
</event>
<event>
 7    1  0.3925070E-015  0.9000778E+02  0.7816164E-02  0.1186339E+00
        -11   -1    0    0    0    0  0.00000000000E+00  0.00000000000E+00  0.45593999997E+02  0.45594000000E+02  0.51100000000E-03 0. -1.
         11   -1    0    0    0    0 -0.00000000000E+00 -0.00000000000E+00 -0.45593999997E+02  0.45594000000E+02  0.51100000000E-03 0.  1.
    9900012    2    1    2    0    0 -0.85044958501E+00  0.71735941372E+00  0.39376815022E+00  0.90007778673E+02  0.90000040551E+02 0.  0.
        -12    1    1    2    0    0  0.85044958501E+00 -0.71735941372E+00 -0.39376815022E+00  0.11802213272E+01  0.00000000000E+00 0.  1.
         11    1    3    3    0    0 -0.20369283161E+02 -0.30954443027E+02  0.14182120011E+02  0.39676413243E+02  0.51100000000E-03 0. -1.
        -11    1    3    3    0    0 -0.57906396088E+01  0.13721888723E+01 -0.86779550504E+01  0.10522419565E+02  0.51100000000E-03 0.  1.
        -12    1    3    3    0    0  0.25309473184E+02  0.30299613569E+02 -0.51103968101E+01  0.39808945864E+02  0.00000000000E+00 0.  1.
</event>
<event>
 7    1  0.3925070E-015  0.9000765E+02  0.7816164E-02  0.1186339E+00
        -11   -1    0    0    0    0  0.00000000000E+00  0.00000000000E+00  0.45593999997E+02  0.45594000000E+02  0.51100000000E-03 0. -1.
         11   -1    0    0    0    0 -0.00000000000E+00 -0.00000000000E+00 -0.45593999997E+02  0.45594000000E+02  0.51100000000E-03 0.  1.
    9900012    2    1    2    0    0 -0.43348563984E+00  0.10960835621E+01  0.62512126169E-01  0.90007653974E+02  0.89999914206E+02 0.  0.
        -12    1    1    2    0    0  0.43348563984E+00 -0.10960835621E+01 -0.62512126169E-01  0.11803460260E+01  0.00000000000E+00 0.  1.
         11    1    3    3    0    0 -0.31713581235E+02  0.14490095252E+01 -0.25960926535E+02  0.41010005732E+02  0.51100000000E-03 0. -1.
        -11    1    3    3    0    0  0.18392534687E+01 -0.96626532720E+01  0.24137582325E+01  0.10127978606E+02  0.51100000000E-03 0.  1.
        -12    1    3    3    0    0  0.29440842126E+02  0.93097273088E+01  0.23609680429E+02  0.38869669636E+02  0.00000000000E+00 0.  1.
</event>
<event>
 7    1  0.3925070E-015  0.9000775E+02  0.7816164E-02  0.1186339E+00
        -11   -1    0    0    0    0  0.00000000000E+00  0.00000000000E+00  0.45593999997E+02  0.45594000000E+02  0.51100000000E-03 0. -1.
         11   -1    0    0    0    0 -0.00000000000E+00 -0.00000000000E+00 -0.45593999997E+02  0.45594000000E+02  0.51100000000E-03 0.  1.
    9900012    2    1    2    0    0 -0.24513608138E+00 -0.10066465083E+01  0.56530194353E+00  0.90007747833E+02  0.90000009304E+02 0.  0.
        -12    1    1    2    0    0  0.24513608138E+00  0.10066465083E+01 -0.56530194353E+00  0.11802521673E+01  0.00000000000E+00 0.  1.
         11    1    3    3    0    0 -0.27269064550E+01  0.58003968756E+01 -0.79802801475E+01  0.10235501660E+02  0.51100000000E-03 0. -1.
        -11    1    3    3    0    0  0.28363155996E+02  0.20987231527E+02 -0.11132903778E+02  0.36998297961E+02  0.51100000000E-03 0.  1.
         12    1    3    3    0    0 -0.25881385622E+02 -0.27794274911E+02  0.19678485869E+02  0.42773948212E+02  0.00000000000E+00 0. -1.
</event>
<event>
 7    1  0.3925070E-015  0.9000770E+02  0.7816164E-02  0.1186339E+00
        -11   -1    0    0    0    0  0.00000000000E+00  0.00000000000E+00  0.45593999997E+02  0.45594000000E+02  0.51100000000E-03 0.  1.
         11   -1    0    0    0    0 -0.00000000000E+00 -0.00000000000E+00 -0.45593999997E+02  0.45594000000E+02  0.51100000000E-03 0. -1.
    9900012    2    1    2    0    0 -0.42910319393E+00  0.10293966413E+01  0.38643452587E+00  0.90007695531E+02  0.89999956312E+02 0.  0.
        -12    1    1    2    0    0  0.42910319393E+00 -0.10293966413E+01 -0.38643452587E+00  0.11803044687E+01  0.00000000000E+00 0.  1.
         11    1    3    3    0    0 -0.10439032614E+02 -0.23714718564E+02 -0.23636647565E+02  0.35072102686E+02  0.51100000000E-03 0. -1.
        -11    1    3    3    0    0  0.64022557999E+01 -0.12437097828E+01 -0.10019764422E+02  0.11955390947E+02  0.51100000000E-03 0.  1.
        -12    1    3    3    0    0  0.36076736198E+01  0.25987824988E+02  0.34042846513E+02  0.42980201899E+02  0.00000000000E+00 0.  1.
</event>
<event>
 7    1  0.3925070E-015  0.9000777E+02  0.7816164E-02  0.1186339E+00
        -11   -1    0    0    0    0  0.00000000000E+00  0.00000000000E+00  0.45593999997E+02  0.45594000000E+02  0.51100000000E-03 0. -1.
         11   -1    0    0    0    0 -0.00000000000E+00 -0.00000000000E+00 -0.45593999997E+02  0.45594000000E+02  0.51100000000E-03 0.  1.
    9900012    2    1    2    0    0  0.10115061444E+01 -0.59543696167E+00  0.12352822404E+00  0.90007767363E+02  0.90000029092E+02 0.  0.
        -12    1    1    2    0    0 -0.10115061444E+01  0.59543696167E+00 -0.12352822404E+00  0.11802326371E+01  0.00000000000E+00 0.  1.
         11    1    3    3    0    0  0.17403388340E+01  0.97184546457E+01  0.11708946728E+01  0.99422399163E+01  0.51100000000E-03 0. -1.
        -11    1    3    3    0    0  0.33968877196E+02  0.50369314095E+01 -0.17696155501E+02  0.38631712566E+02  0.51100000000E-03 0.  1.
         12    1    3    3    0    0 -0.34697709886E+02 -0.15350823017E+02  0.16648789052E+02  0.41433814880E+02  0.00000000000E+00 0. -1.
</event>
<event>
 7    1  0.4582963E-015  0.9000774E+02  0.7816164E-02  0.1186339E+00
        -11   -1    0    0    0    0  0.00000000000E+00  0.00000000000E+00  0.45593999997E+02  0.45594000000E+02  0.51100000000E-03 0.  1.
         11   -1    0    0    0    0 -0.00000000000E+00 -0.00000000000E+00 -0.45593999997E+02  0.45594000000E+02  0.51100000000E-03 0. -1.
    9900012    2    1    2    0    0 -0.18892479943E+00  0.78021439020E+00 -0.86521408541E+00  0.90007736263E+02  0.89999997582E+02 0.  0.
        -12    1    1    2    0    0  0.18892479943E+00 -0.78021439020E+00  0.86521408541E+00  0.11802637367E+01  0.00000000000E+00 0.  1.
         11    1    3    3    0    0  0.84374360007E+01 -0.16018855594E+02 -0.34815168315E+02  0.39241432260E+02  0.51100000000E-03 0. -1.
        -11    1    3    3    0    0  0.92822987042E+01  0.33078706647E+01 -0.26672954346E+00  0.98576986401E+01  0.51100000000E-03 0.  1.
        -12    1    3    3    0    0 -0.17908659504E+02  0.13491199319E+02  0.34216683773E+02  0.40908605363E+02  0.00000000000E+00 0.  1.
</event>
<event>
 7    1  0.3925070E-015  0.9000768E+02  0.7816164E-02  0.1186339E+00
        -11   -1    0    0    0    0  0.00000000000E+00  0.00000000000E+00  0.45593999997E+02  0.45594000000E+02  0.51100000000E-03 0.  1.
         11   -1    0    0    0    0 -0.00000000000E+00 -0.00000000000E+00 -0.45593999997E+02  0.45594000000E+02  0.51100000000E-03 0. -1.
    9900012    2    1    2    0    0  0.88560212392E+00  0.69490610187E+00 -0.35492801782E+00  0.90007678218E+02  0.89999938770E+02 0.  0.
        -12    1    1    2    0    0 -0.88560212392E+00 -0.69490610187E+00  0.35492801782E+00  0.11803217825E+01  0.00000000000E+00 0.  1.
         11    1    3    3    0    0  0.43511174785E+01  0.30833281057E+01  0.78266991380E+01  0.94708159721E+01  0.51100000000E-03 0. -1.
        -11    1    3    3    0    0  0.49866208985E+01 -0.76465117168E+01  0.35026695657E+02  0.36196753146E+02  0.51100000000E-03 0.  1.
         12    1    3    3    0    0 -0.84521362530E+01  0.52580897129E+01 -0.43208322813E+02  0.44340109099E+02  0.00000000000E+00 0. -1.
</event>
<event>
 7    1  0.3925070E-015  0.9000736E+02  0.7816164E-02  0.1186340E+00
        -11   -1    0    0    0    0  0.00000000000E+00  0.00000000000E+00  0.45593999997E+02  0.45594000000E+02  0.51100000000E-03 0. -1.
         11   -1    0    0    0    0 -0.00000000000E+00 -0.00000000000E+00 -0.45593999997E+02  0.45594000000E+02  0.51100000000E-03 0.  1.
    9900012    2    1    2    0    0 -0.45368276812E+00  0.10562185860E+01 -0.26924042869E+00  0.90007357732E+02  0.89999614054E+02 0.  0.
        -12    1    1    2    0    0  0.45368276812E+00 -0.10562185860E+01  0.26924042869E+00  0.11806422675E+01  0.00000000000E+00 0.  1.
         11    1    3    3    0    0 -0.35925851900E+01  0.23828301510E+01  0.11403900495E+02  0.12191533728E+02  0.51100000000E-03 0. -1.
        -11    1    3    3    0    0 -0.35802201950E+02  0.74427286195E+01 -0.13796134772E+01  0.36593649823E+02  0.51100000000E-03 0.  1.
         12    1    3    3    0    0  0.38941104372E+02 -0.87693401846E+01 -0.10293527446E+02  0.41222174182E+02  0.00000000000E+00 0. -1.
</event>
<event>
 7    1  0.3925070E-015  0.9000775E+02  0.7816164E-02  0.1186339E+00
        -11   -1    0    0    0    0  0.00000000000E+00  0.00000000000E+00  0.45593999997E+02  0.45594000000E+02  0.51100000000E-03 0. -1.
         11   -1    0    0    0    0 -0.00000000000E+00 -0.00000000000E+00 -0.45593999997E+02  0.45594000000E+02  0.51100000000E-03 0.  1.
    9900012    2    1    2    0    0  0.24526212841E-01 -0.11783455531E+01 -0.62349844934E-01  0.90007751178E+02  0.90000012694E+02 0.  0.
        -12    1    1    2    0    0 -0.24526212841E-01  0.11783455531E+01  0.62349844934E-01  0.11802488216E+01  0.00000000000E+00 0.  1.
         11    1    3    3    0    0 -0.69659816267E+01 -0.45850648411E+01 -0.41157539399E+01  0.92998467931E+01  0.51100000000E-03 0. -1.
        -11    1    3    3    0    0  0.48644697461E+01  0.18183385854E+02 -0.34535495098E+02  0.39331908280E+02  0.51100000000E-03 0.  1.
         12    1    3    3    0    0  0.21260380934E+01 -0.14776666566E+02  0.38588899193E+02  0.41375996105E+02  0.00000000000E+00 0. -1.
</event>
<event>
 7    1  0.3925070E-015  0.9000774E+02  0.7816164E-02  0.1186339E+00
        -11   -1    0    0    0    0  0.00000000000E+00  0.00000000000E+00  0.45593999997E+02  0.45594000000E+02  0.51100000000E-03 0.  1.
         11   -1    0    0    0    0 -0.00000000000E+00 -0.00000000000E+00 -0.45593999997E+02  0.45594000000E+02  0.51100000000E-03 0. -1.
    9900012    2    1    2    0    0  0.11519536561E+01 -0.17942595784E+00 -0.18390143351E+00  0.90007741284E+02  0.90000002669E+02 0.  0.
        -12    1    1    2    0    0 -0.11519536561E+01  0.17942595784E+00  0.18390143351E+00  0.11802587163E+01  0.00000000000E+00 0.  1.
         11    1    3    3    0    0 -0.15461783781E+02 -0.23554492722E-02 -0.17650755667E+02  0.23465206990E+02  0.51100000000E-03 0. -1.
        -11    1    3    3    0    0 -0.11428748208E+02 -0.37666468208E+01  0.32405120994E+02  0.34567264583E+02  0.51100000000E-03 0.  1.
         12    1    3    3    0    0  0.28042485645E+02  0.35895763123E+01 -0.14938266761E+02  0.31975269710E+02  0.00000000000E+00 0. -1.
</event>
<event>
 7    1  0.3925070E-015  0.9000775E+02  0.7816164E-02  0.1186339E+00
        -11   -1    0    0    0    0  0.00000000000E+00  0.00000000000E+00  0.45593999997E+02  0.45594000000E+02  0.51100000000E-03 0.  1.
         11   -1    0    0    0    0 -0.00000000000E+00 -0.00000000000E+00 -0.45593999997E+02  0.45594000000E+02  0.51100000000E-03 0. -1.
    9900012    2    1    2    0    0 -0.91142269650E+00 -0.63238316688E+00 -0.40296341226E+00  0.90007754554E+02  0.90000016114E+02 0.  0.
        -12    1    1    2    0    0  0.91142269650E+00  0.63238316688E+00  0.40296341226E+00  0.11802454461E+01  0.00000000000E+00 0.  1.
         11    1    3    3    0    0  0.90310344802E+00 -0.82445707840E+01 -0.30949698063E+01  0.88525353212E+01  0.51100000000E-03 0. -1.
        -11    1    3    3    0    0 -0.30159063227E+02 -0.23916217125E+02 -0.17234413578E+01  0.38529531358E+02  0.51100000000E-03 0.  1.
         12    1    3    3    0    0  0.28344537082E+02  0.31528404742E+02  0.44154477519E+01  0.42625687875E+02  0.00000000000E+00 0. -1.
</event>
<event>
 7    1  0.3925070E-015  0.9000769E+02  0.7816164E-02  0.1186339E+00
        -11   -1    0    0    0    0  0.00000000000E+00  0.00000000000E+00  0.45593999997E+02  0.45594000000E+02  0.51100000000E-03 0. -1.
         11   -1    0    0    0    0 -0.00000000000E+00 -0.00000000000E+00 -0.45593999997E+02  0.45594000000E+02  0.51100000000E-03 0.  1.
    9900012    2    1    2    0    0  0.57590860447E+00 -0.10070869531E+01  0.21731481014E+00  0.90007694710E+02  0.89999955480E+02 0.  0.
        -12    1    1    2    0    0 -0.57590860447E+00  0.10070869531E+01 -0.21731481014E+00  0.11803052904E+01  0.00000000000E+00 0.  1.
         11    1    3    3    0    0 -0.28119082590E+01 -0.61645437420E+00 -0.91616394353E+01  0.96032536911E+01  0.51100000000E-03 0. -1.
        -11    1    3    3    0    0  0.15859815924E+02 -0.61731595647E+01 -0.32304077446E+02  0.36512944007E+02  0.51100000000E-03 0.  1.
         12    1    3    3    0    0 -0.12471999061E+02  0.57825269858E+01  0.41683031691E+02  0.43891497011E+02  0.00000000000E+00 0. -1.
</event>
<event>
 7    1  0.3925070E-015  0.9000773E+02  0.7816164E-02  0.1186339E+00
        -11   -1    0    0    0    0  0.00000000000E+00  0.00000000000E+00  0.45593999997E+02  0.45594000000E+02  0.51100000000E-03 0.  1.
         11   -1    0    0    0    0 -0.00000000000E+00 -0.00000000000E+00 -0.45593999997E+02  0.45594000000E+02  0.51100000000E-03 0. -1.
    9900012    2    1    2    0    0  0.40592116319E+00  0.11037995114E+01  0.99473630318E-01  0.90007728694E+02  0.89999989913E+02 0.  0.
        -12    1    1    2    0    0 -0.40592116319E+00 -0.11037995114E+01 -0.99473630318E-01  0.11802713058E+01  0.00000000000E+00 0.  1.
         11    1    3    3    0    0 -0.84832949376E+01 -0.73010501462E+00 -0.50329290185E+01  0.98908908141E+01  0.51100000000E-03 0. -1.
        -11    1    3    3    0    0 -0.26823906573E+02  0.25174761870E+02  0.68445676458E+01  0.37418427352E+02  0.51100000000E-03 0.  1.
         12    1    3    3    0    0  0.35713122673E+02 -0.23340857343E+02 -0.17121649970E+01  0.42698410528E+02  0.00000000000E+00 0. -1.
</event>
<event>
 7    1  0.3925070E-015  0.9000773E+02  0.7816164E-02  0.1186339E+00
        -11   -1    0    0    0    0  0.00000000000E+00  0.00000000000E+00  0.45593999997E+02  0.45594000000E+02  0.51100000000E-03 0. -1.
         11   -1    0    0    0    0 -0.00000000000E+00 -0.00000000000E+00 -0.45593999997E+02  0.45594000000E+02  0.51100000000E-03 0.  1.
    9900012    2    1    2    0    0  0.57221010821E+00 -0.10235498460E+01  0.13399242891E+00  0.90007731952E+02  0.89999993213E+02 0.  0.
        -12    1    1    2    0    0 -0.57221010821E+00  0.10235498460E+01 -0.13399242891E+00  0.11802680485E+01  0.00000000000E+00 0.  1.
         11    1    3    3    0    0  0.66372337766E+01 -0.43540405155E+01  0.35576842771E+02  0.36451643075E+02  0.51100000000E-03 0. -1.
        -11    1    3    3    0    0  0.63365399217E+00  0.57651135033E+01  0.78054860018E+01  0.97243849714E+01  0.51100000000E-03 0.  1.
        -12    1    3    3    0    0 -0.66986776605E+01 -0.24346228338E+01 -0.43248336344E+02  0.43831703906E+02  0.00000000000E+00 0.  1.
</event>
<event>
 7    1  0.3925070E-015  0.9000775E+02  0.7816164E-02  0.1186339E+00
        -11   -1    0    0    0    0  0.00000000000E+00  0.00000000000E+00  0.45593999997E+02  0.45594000000E+02  0.51100000000E-03 0. -1.
         11   -1    0    0    0    0 -0.00000000000E+00 -0.00000000000E+00 -0.45593999997E+02  0.45594000000E+02  0.51100000000E-03 0.  1.
    9900012    2    1    2    0    0  0.54410939587E+00 -0.50157908017E+00 -0.91943690448E+00  0.90007745439E+02  0.90000006878E+02 0.  0.
        -12    1    1    2    0    0 -0.54410939587E+00  0.50157908017E+00  0.91943690448E+00  0.11802545614E+01  0.00000000000E+00 0.  1.
         11    1    3    3    0    0  0.37969689052E+02  0.85930929739E+01  0.55746871811E+01  0.39327034861E+02  0.51100000000E-03 0. -1.
        -11    1    3    3    0    0 -0.11832375922E+01 -0.63049518538E+01 -0.12298131206E+02  0.13870706561E+02  0.51100000000E-03 0.  1.
        -12    1    3    3    0    0 -0.36242342063E+02 -0.27897202003E+01  0.58040071205E+01  0.36810004017E+02  0.00000000000E+00 0.  1.
</event>
<event>
 7    1  0.5702616E-015  0.9000779E+02  0.7816164E-02  0.1186339E+00
        -11   -1    0    0    0    0  0.00000000000E+00  0.00000000000E+00  0.45593999997E+02  0.45594000000E+02  0.51100000000E-03 0.  1.
         11   -1    0    0    0    0 -0.00000000000E+00 -0.00000000000E+00 -0.45593999997E+02  0.45594000000E+02  0.51100000000E-03 0. -1.
    9900012    2    1    2    0    0 -0.81377390695E+00 -0.66918441666E+00 -0.53183599071E+00  0.90007794392E+02  0.90000056478E+02 0.  0.
        -12    1    1    2    0    0  0.81377390695E+00  0.66918441666E+00  0.53183599071E+00  0.11802056076E+01  0.00000000000E+00 0.  1.
         11    1    3    3    0    0 -0.13185612442E+02  0.23307359158E+01 -0.35311643352E+02  0.37765127589E+02  0.51100000000E-03 0. -1.
        -11    1    3    3    0    0  0.45280330877E+01  0.49043247303E+01 -0.66022278093E+01  0.93885513797E+01  0.51100000000E-03 0.  1.
        -12    1    3    3    0    0  0.78438054473E+01 -0.79042450627E+01  0.41382035170E+02  0.42854115424E+02  0.00000000000E+00 0.  1.
</event>
<event>
 7    1  0.3925070E-015  0.9000772E+02  0.7816164E-02  0.1186339E+00
        -11   -1    0    0    0    0  0.00000000000E+00  0.00000000000E+00  0.45593999997E+02  0.45594000000E+02  0.51100000000E-03 0. -1.
         11   -1    0    0    0    0 -0.00000000000E+00 -0.00000000000E+00 -0.45593999997E+02  0.45594000000E+02  0.51100000000E-03 0.  1.
    9900012    2    1    2    0    0 -0.73912463927E+00  0.85017935351E+00  0.35205207670E+00  0.90007724257E+02  0.89999985417E+02 0.  0.
        -12    1    1    2    0    0  0.73912463927E+00 -0.85017935351E+00 -0.35205207670E+00  0.11802757433E+01  0.00000000000E+00 0.  1.
         11    1    3    3    0    0 -0.14690314427E+02  0.67293226871E+01 -0.50371475849E+01  0.16925187675E+02  0.51100000000E-03 0. -1.
        -11    1    3    3    0    0 -0.21835949744E+02 -0.19591662728E+02 -0.11093416616E+02  0.31364085228E+02  0.51100000000E-03 0.  1.
         12    1    3    3    0    0  0.35787139532E+02  0.13712519394E+02  0.16482616278E+02  0.41718451354E+02  0.00000000000E+00 0. -1.
</event>
<event>
 7    1  0.3925070E-015  0.9000767E+02  0.7816164E-02  0.1186339E+00
        -11   -1    0    0    0    0  0.00000000000E+00  0.00000000000E+00  0.45593999997E+02  0.45594000000E+02  0.51100000000E-03 0.  1.
         11   -1    0    0    0    0 -0.00000000000E+00 -0.00000000000E+00 -0.45593999997E+02  0.45594000000E+02  0.51100000000E-03 0. -1.
    9900012    2    1    2    0    0 -0.10010145548E+01 -0.16894957442E+00 -0.60215784132E+00  0.90007674552E+02  0.89999935056E+02 0.  0.
        -12    1    1    2    0    0  0.10010145548E+01  0.16894957442E+00  0.60215784132E+00  0.11803254481E+01  0.00000000000E+00 0.  1.
         11    1    3    3    0    0 -0.35987732178E+02 -0.34697624556E+01 -0.85455418003E+01  0.37150806232E+02  0.51100000000E-03 0. -1.
        -11    1    3    3    0    0  0.54156262044E+01  0.24052110537E+01 -0.14538193003E+02  0.15699461884E+02  0.51100000000E-03 0.  1.
        -12    1    3    3    0    0  0.29571091418E+02  0.89560182754E+00  0.22481576962E+02  0.37157406435E+02  0.00000000000E+00 0.  1.
</event>
<event>
 7    1  0.3925070E-015  0.9000760E+02  0.7816164E-02  0.1186339E+00
        -11   -1    0    0    0    0  0.00000000000E+00  0.00000000000E+00  0.45593999997E+02  0.45594000000E+02  0.51100000000E-03 0.  1.
         11   -1    0    0    0    0 -0.00000000000E+00 -0.00000000000E+00 -0.45593999997E+02  0.45594000000E+02  0.51100000000E-03 0. -1.
    9900012    2    1    2    0    0 -0.15018220328E+00 -0.56884112437E+00 -0.10233305279E+01  0.90007601640E+02  0.89999861182E+02 0.  0.
        -12    1    1    2    0    0  0.15018220328E+00  0.56884112437E+00  0.10233305279E+01  0.11803983600E+01  0.00000000000E+00 0.  1.
         11    1    3    3    0    0 -0.58946432294E+01  0.44100457613E+01  0.35653358933E+01  0.81796664181E+01  0.51100000000E-03 0. -1.
        -11    1    3    3    0    0  0.11760571447E+02 -0.13331676961E+02  0.35894945845E+02  0.40056108009E+02  0.51100000000E-03 0.  1.
         12    1    3    3    0    0 -0.60161104207E+01  0.83527900758E+01 -0.40483612266E+02  0.41771827213E+02  0.00000000000E+00 0. -1.
</event>
<event>
 7    1  0.3925070E-015  0.9000880E+02  0.7816164E-02  0.1186337E+00
        -11   -1    0    0    0    0  0.00000000000E+00  0.00000000000E+00  0.45593999997E+02  0.45594000000E+02  0.51100000000E-03 0. -1.
         11   -1    0    0    0    0 -0.00000000000E+00 -0.00000000000E+00 -0.45593999997E+02  0.45594000000E+02  0.51100000000E-03 0.  1.
    9900012    2    1    2    0    0  0.11399636041E+01 -0.66917681890E-01 -0.29415603644E+00  0.90008795705E+02  0.90001071002E+02 0.  0.
        -12    1    1    2    0    0 -0.11399636041E+01  0.66917681890E-01  0.29415603644E+00  0.11792042946E+01  0.00000000000E+00 0.  1.
         11    1    3    3    0    0  0.13634833036E+02  0.20315639378E+02  0.25624643432E+02  0.35429595348E+02  0.51100000000E-03 0. -1.
        -11    1    3    3    0    0 -0.29492339903E+01  0.89411431491E+01  0.52108301244E+01  0.10760797962E+02  0.51100000000E-03 0.  1.
        -12    1    3    3    0    0 -0.95456354412E+01 -0.29323700209E+02 -0.31129629593E+02  0.43818402395E+02  0.00000000000E+00 0.  1.
</event>
<event>
 7    1  0.3925070E-015  0.9000773E+02  0.7816164E-02  0.1186339E+00
        -11   -1    0    0    0    0  0.00000000000E+00  0.00000000000E+00  0.45593999997E+02  0.45594000000E+02  0.51100000000E-03 0.  1.
         11   -1    0    0    0    0 -0.00000000000E+00 -0.00000000000E+00 -0.45593999997E+02  0.45594000000E+02  0.51100000000E-03 0. -1.
    9900012    2    1    2    0    0 -0.69869998093E+00 -0.94246858470E+00  0.12889706266E+00  0.90007727511E+02  0.89999988714E+02 0.  0.
        -12    1    1    2    0    0  0.69869998093E+00  0.94246858470E+00 -0.12889706266E+00  0.11802724894E+01  0.00000000000E+00 0.  1.
         11    1    3    3    0    0 -0.92840719868E+00 -0.79201531315E+01  0.68913121989E+01  0.10539494752E+02  0.51100000000E-03 0. -1.
        -11    1    3    3    0    0 -0.37689140037E+02 -0.10497655700E+01  0.69808477069E+01  0.38344563101E+02  0.51100000000E-03 0.  1.
         12    1    3    3    0    0  0.37918847254E+02  0.80274501168E+01 -0.13743262843E+02  0.41123669657E+02  0.00000000000E+00 0. -1.
</event>
<event>
 7    1  0.3925070E-015  0.9000779E+02  0.7816164E-02  0.1186339E+00
        -11   -1    0    0    0    0  0.00000000000E+00  0.00000000000E+00  0.45593999997E+02  0.45594000000E+02  0.51100000000E-03 0.  1.
         11   -1    0    0    0    0 -0.00000000000E+00 -0.00000000000E+00 -0.45593999997E+02  0.45594000000E+02  0.51100000000E-03 0. -1.
    9900012    2    1    2    0    0 -0.42637513786E+00  0.91921566350E+00 -0.60509456534E+00  0.90007791278E+02  0.90000053323E+02 0.  0.
        -12    1    1    2    0    0  0.42637513786E+00 -0.91921566350E+00  0.60509456534E+00  0.11802087219E+01  0.00000000000E+00 0.  1.
         11    1    3    3    0    0  0.22737470055E+02 -0.18352009921E+02 -0.24308901657E+02  0.38009360856E+02  0.51100000000E-03 0. -1.
        -11    1    3    3    0    0 -0.14902091013E+01 -0.93807270894E+01  0.11211913867E+01  0.95642999889E+01  0.51100000000E-03 0.  1.
        -12    1    3    3    0    0 -0.21673636092E+02  0.28651952674E+02  0.22582615705E+02  0.42434130433E+02  0.00000000000E+00 0.  1.
</event>
<event>
 7    1  0.3925070E-015  0.9000781E+02  0.7816164E-02  0.1186339E+00
        -11   -1    0    0    0    0  0.00000000000E+00  0.00000000000E+00  0.45593999997E+02  0.45594000000E+02  0.51100000000E-03 0. -1.
         11   -1    0    0    0    0 -0.00000000000E+00 -0.00000000000E+00 -0.45593999997E+02  0.45594000000E+02  0.51100000000E-03 0.  1.
    9900012    2    1    2    0    0  0.52250591684E+00  0.11286325301E+00  0.10521896566E+01  0.90007807804E+02  0.90000070067E+02 0.  0.
        -12    1    1    2    0    0 -0.52250591684E+00 -0.11286325301E+00 -0.10521896566E+01  0.11801921964E+01  0.00000000000E+00 0.  1.
         11    1    3    3    0    0 -0.35369109802E+01 -0.68868711211E+01 -0.55995529797E+01  0.95547750866E+01  0.51100000000E-03 0. -1.
        -11    1    3    3    0    0 -0.12334004011E+02 -0.52947966779E+01 -0.33106933465E+02  0.35724383417E+02  0.51100000000E-03 0.  1.
         12    1    3    3    0    0  0.16393420908E+02  0.12294531052E+02  0.39758676101E+02  0.44728649300E+02  0.00000000000E+00 0. -1.
</event>
<event>
 7    1  0.3925070E-015  0.9000774E+02  0.7816164E-02  0.1186339E+00
        -11   -1    0    0    0    0  0.00000000000E+00  0.00000000000E+00  0.45593999997E+02  0.45594000000E+02  0.51100000000E-03 0.  1.
         11   -1    0    0    0    0 -0.00000000000E+00 -0.00000000000E+00 -0.45593999997E+02  0.45594000000E+02  0.51100000000E-03 0. -1.
    9900012    2    1    2    0    0  0.55459198413E+00  0.14382608139E+00 -0.10318717536E+01  0.90007738365E+02  0.89999999712E+02 0.  0.
        -12    1    1    2    0    0 -0.55459198413E+00 -0.14382608139E+00  0.10318717536E+01  0.11802616347E+01  0.00000000000E+00 0.  1.
         11    1    3    3    0    0 -0.27252649682E+02 -0.26402978127E+02  0.19687960590E+02  0.42748566773E+02  0.51100000000E-03 0. -1.
        -11    1    3    3    0    0 -0.10509201840E+01  0.82053327674E+01 -0.44228798262E+01  0.93805002679E+01  0.51100000000E-03 0.  1.
        -12    1    3    3    0    0  0.28858161850E+02  0.18341471441E+02 -0.16296952518E+02  0.37878671325E+02  0.00000000000E+00 0.  1.
</event>
<event>
 7    1  0.3925070E-015  0.9000790E+02  0.7816164E-02  0.1186339E+00
        -11   -1    0    0    0    0  0.00000000000E+00  0.00000000000E+00  0.45593999997E+02  0.45594000000E+02  0.51100000000E-03 0.  1.
         11   -1    0    0    0    0 -0.00000000000E+00 -0.00000000000E+00 -0.45593999997E+02  0.45594000000E+02  0.51100000000E-03 0. -1.
    9900012    2    1    2    0    0 -0.15265632361E+00 -0.11624387828E+01 -0.13441287753E+00  0.90007900556E+02  0.90000164043E+02 0.  0.
        -12    1    1    2    0    0  0.15265632361E+00  0.11624387828E+01  0.13441287753E+00  0.11800994443E+01  0.00000000000E+00 0.  1.
         11    1    3    3    0    0 -0.12690236510E+02 -0.14423906948E+02 -0.96209039328E+01  0.21486111493E+02  0.51100000000E-03 0. -1.
        -11    1    3    3    0    0  0.18824578158E+02 -0.23498714708E+02  0.81999824703E+01  0.31205673339E+02  0.51100000000E-03 0.  1.
         12    1    3    3    0    0 -0.62869979718E+01  0.36760182873E+02  0.12865085849E+01  0.37316115724E+02  0.00000000000E+00 0. -1.
</event>
<event>
 7    1  0.3925070E-015  0.9000775E+02  0.7816164E-02  0.1186339E+00
        -11   -1    0    0    0    0  0.00000000000E+00  0.00000000000E+00  0.45593999997E+02  0.45594000000E+02  0.51100000000E-03 0.  1.
         11   -1    0    0    0    0 -0.00000000000E+00 -0.00000000000E+00 -0.45593999997E+02  0.45594000000E+02  0.51100000000E-03 0. -1.
    9900012    2    1    2    0    0 -0.50723923572E+00 -0.10652586208E+01  0.30505498037E-01  0.90007746571E+02  0.90000008026E+02 0.  0.
        -12    1    1    2    0    0  0.50723923572E+00  0.10652586208E+01 -0.30505498037E-01  0.11802534291E+01  0.00000000000E+00 0.  1.
         11    1    3    3    0    0 -0.89211596418E+01 -0.57875067489E+00  0.16542123405E+01  0.90916698371E+01  0.51100000000E-03 0. -1.
        -11    1    3    3    0    0 -0.21622034580E+02  0.68325453611E+01  0.29393289533E+02  0.37123597958E+02  0.51100000000E-03 0.  1.
         12    1    3    3    0    0  0.30035954986E+02 -0.73190533071E+01 -0.31016996376E+02  0.43792478776E+02  0.00000000000E+00 0. -1.
</event>
<event>
 7    1  0.3925070E-015  0.9000769E+02  0.7816164E-02  0.1186339E+00
        -11   -1    0    0    0    0  0.00000000000E+00  0.00000000000E+00  0.45593999997E+02  0.45594000000E+02  0.51100000000E-03 0.  1.
         11   -1    0    0    0    0 -0.00000000000E+00 -0.00000000000E+00 -0.45593999997E+02  0.45594000000E+02  0.51100000000E-03 0. -1.
    9900012    2    1    2    0    0  0.49763800988E+00  0.62498622866E-01 -0.10684456163E+01  0.90007692539E+02  0.89999953281E+02 0.  0.
        -12    1    1    2    0    0 -0.49763800988E+00 -0.62498622866E-01  0.10684456163E+01  0.11803074607E+01  0.00000000000E+00 0.  1.
         11    1    3    3    0    0 -0.45552908015E+01  0.74195679604E+01 -0.25989874006E+01  0.90860001527E+01  0.51100000000E-03 0. -1.
        -11    1    3    3    0    0 -0.31269876285E+02 -0.28449287385E+01 -0.21154031408E+02  0.37860161483E+02  0.51100000000E-03 0.  1.
         12    1    3    3    0    0  0.36322805097E+02 -0.45121405990E+01  0.22684573192E+02  0.43061530904E+02  0.00000000000E+00 0. -1.
</event>
<event>
 7    1  0.3925070E-015  0.9000776E+02  0.7816164E-02  0.1186339E+00
        -11   -1    0    0    0    0  0.00000000000E+00  0.00000000000E+00  0.45593999997E+02  0.45594000000E+02  0.51100000000E-03 0. -1.
         11   -1    0    0    0    0 -0.00000000000E+00 -0.00000000000E+00 -0.45593999997E+02  0.45594000000E+02  0.51100000000E-03 0.  1.
    9900012    2    1    2    0    0  0.25302257244E+00  0.14647356380E+00 -0.11434521233E+01  0.90007763716E+02  0.90000025397E+02 0.  0.
        -12    1    1    2    0    0 -0.25302257244E+00 -0.14647356380E+00  0.11434521233E+01  0.11802362837E+01  0.00000000000E+00 0.  1.
         11    1    3    3    0    0  0.16391661279E+02  0.36916650889E+02  0.40177832360E+01  0.40591480076E+02  0.51100000000E-03 0. -1.
        -11    1    3    3    0    0  0.82025945762E+01 -0.99423749032E+01 -0.57062756546E+00  0.12901898797E+02  0.51100000000E-03 0.  1.
        -12    1    3    3    0    0 -0.24341233283E+02 -0.26827802422E+02 -0.45906077938E+01  0.36514384843E+02  0.00000000000E+00 0.  1.
</event>
<event>
 7    1  0.3925070E-015  0.9000774E+02  0.7816164E-02  0.1186339E+00
        -11   -1    0    0    0    0  0.00000000000E+00  0.00000000000E+00  0.45593999997E+02  0.45594000000E+02  0.51100000000E-03 0. -1.
         11   -1    0    0    0    0 -0.00000000000E+00 -0.00000000000E+00 -0.45593999997E+02  0.45594000000E+02  0.51100000000E-03 0.  1.
    9900012    2    1    2    0    0  0.62480985612E+00  0.63426701984E-01  0.99930702354E+00  0.90007735271E+02  0.89999996577E+02 0.  0.
        -12    1    1    2    0    0 -0.62480985612E+00 -0.63426701984E-01 -0.99930702354E+00  0.11802647288E+01  0.00000000000E+00 0.  1.
         11    1    3    3    0    0 -0.13407630171E+02 -0.38701210952E+01  0.31163929224E+01  0.14298751316E+02  0.51100000000E-03 0. -1.
        -11    1    3    3    0    0  0.32384627991E+02 -0.24682200027E+02  0.48539841255E+01  0.41006539605E+02  0.51100000000E-03 0.  1.
         12    1    3    3    0    0 -0.18352187964E+02  0.28615747824E+02 -0.69710700244E+01  0.34702444350E+02  0.00000000000E+00 0. -1.
</event>
<event>
 7    1  0.3925070E-015  0.9000773E+02  0.7816164E-02  0.1186339E+00
        -11   -1    0    0    0    0  0.00000000000E+00  0.00000000000E+00  0.45593999997E+02  0.45594000000E+02  0.51100000000E-03 0. -1.
         11   -1    0    0    0    0 -0.00000000000E+00 -0.00000000000E+00 -0.45593999997E+02  0.45594000000E+02  0.51100000000E-03 0.  1.
    9900012    2    1    2    0    0  0.97914187969E-01 -0.54899045858E+00  0.10402214508E+01  0.90007729532E+02  0.89999990761E+02 0.  0.
        -12    1    1    2    0    0 -0.97914187969E-01  0.54899045858E+00 -0.10402214508E+01  0.11802704684E+01  0.00000000000E+00 0.  1.
         11    1    3    3    0    0  0.55028346448E+01  0.35007070848E+02 -0.25606009169E+01  0.35529324167E+02  0.51100000000E-03 0. -1.
        -11    1    3    3    0    0  0.78143191310E+01  0.55569335264E+01  0.58527489150E+01  0.11233777807E+02  0.51100000000E-03 0.  1.
        -12    1    3    3    0    0 -0.13219239588E+02 -0.41112994833E+02 -0.22519265473E+01  0.43244627557E+02  0.00000000000E+00 0.  1.
</event>
<event>
 7    1  0.3925070E-015  0.9000785E+02  0.7816164E-02  0.1186339E+00
        -11   -1    0    0    0    0  0.00000000000E+00  0.00000000000E+00  0.45593999997E+02  0.45594000000E+02  0.51100000000E-03 0. -1.
         11   -1    0    0    0    0 -0.00000000000E+00 -0.00000000000E+00 -0.45593999997E+02  0.45594000000E+02  0.51100000000E-03 0.  1.
    9900012    2    1    2    0    0 -0.10714927556E+01  0.46365069486E+00 -0.17229132998E+00  0.90007850435E+02  0.90000113261E+02 0.  0.
        -12    1    1    2    0    0  0.10714927556E+01 -0.46365069486E+00  0.17229132998E+00  0.11801495645E+01  0.00000000000E+00 0.  1.
         11    1    3    3    0    0 -0.24064732039E+01  0.12302088889E+02 -0.58278510522E+01  0.13823760432E+02  0.51100000000E-03 0. -1.
        -11    1    3    3    0    0 -0.96277246673E+01  0.14593890837E+02 -0.27375186155E+02  0.32481926503E+02  0.51100000000E-03 0.  1.
         12    1    3    3    0    0  0.10962705116E+02 -0.26432329031E+02  0.33030745877E+02  0.43702163501E+02  0.00000000000E+00 0. -1.
</event>
<event>
 7    1  0.3925070E-015  0.9000782E+02  0.7816164E-02  0.1186339E+00
        -11   -1    0    0    0    0  0.00000000000E+00  0.00000000000E+00  0.45593999997E+02  0.45594000000E+02  0.51100000000E-03 0. -1.
         11   -1    0    0    0    0 -0.00000000000E+00 -0.00000000000E+00 -0.45593999997E+02  0.45594000000E+02  0.51100000000E-03 0.  1.
    9900012    2    1    2    0    0 -0.14473773170E+00  0.10909307776E+01 -0.42632660282E+00  0.90007816394E+02  0.90000078770E+02 0.  0.
        -12    1    1    2    0    0  0.14473773170E+00 -0.10909307776E+01  0.42632660282E+00  0.11801836064E+01  0.00000000000E+00 0.  1.
         11    1    3    3    0    0  0.20877457228E+01  0.53324885080E+01  0.36736651119E+01  0.68036704437E+01  0.51100000000E-03 0. -1.
        -11    1    3    3    0    0  0.35090361108E+02 -0.73187404605E+01 -0.21618231314E+02  0.41859829551E+02  0.51100000000E-03 0.  1.
         12    1    3    3    0    0 -0.37322844563E+02  0.30771827301E+01  0.17518239599E+02  0.41344316399E+02  0.00000000000E+00 0. -1.
</event>
<event>
 7    1  0.3925070E-015  0.9000773E+02  0.7816164E-02  0.1186339E+00
        -11   -1    0    0    0    0  0.00000000000E+00  0.00000000000E+00  0.45593999997E+02  0.45594000000E+02  0.51100000000E-03 0.  1.
         11   -1    0    0    0    0 -0.00000000000E+00 -0.00000000000E+00 -0.45593999997E+02  0.45594000000E+02  0.51100000000E-03 0. -1.
    9900012    2    1    2    0    0 -0.11795578199E+01  0.38566161362E-01 -0.13825587271E-01  0.90007730901E+02  0.89999992149E+02 0.  0.
        -12    1    1    2    0    0  0.11795578199E+01 -0.38566161362E-01  0.13825587271E-01  0.11802690990E+01  0.00000000000E+00 0.  1.
         11    1    3    3    0    0 -0.10597980814E+02 -0.27693718570E+01 -0.13016965030E+01  0.11030912558E+02  0.51100000000E-03 0. -1.
        -11    1    3    3    0    0 -0.21555823422E+02  0.29822493392E+02  0.70763202687E+01  0.37471441716E+02  0.51100000000E-03 0.  1.
         12    1    3    3    0    0  0.30974246415E+02 -0.27014555374E+02 -0.57884493530E+01  0.41505376627E+02  0.00000000000E+00 0. -1.
</event>
<event>
 7    1  0.3925070E-015  0.9000786E+02  0.7816164E-02  0.1186339E+00
        -11   -1    0    0    0    0  0.00000000000E+00  0.00000000000E+00  0.45593999997E+02  0.45594000000E+02  0.51100000000E-03 0.  1.
         11   -1    0    0    0    0 -0.00000000000E+00 -0.00000000000E+00 -0.45593999997E+02  0.45594000000E+02  0.51100000000E-03 0. -1.
    9900012    2    1    2    0    0 -0.67809048855E+00 -0.18800472619E+00  0.94741033449E+00  0.90007856437E+02  0.90000119342E+02 0.  0.
        -12    1    1    2    0    0  0.67809048855E+00  0.18800472619E+00 -0.94741033449E+00  0.11801435631E+01  0.00000000000E+00 0.  1.
         11    1    3    3    0    0  0.11949365337E+02  0.62606880094E+01 -0.12460208851E+02  0.18364104966E+02  0.51100000000E-03 0. -1.
        -11    1    3    3    0    0  0.10497895547E+02  0.22650751409E+02 -0.10890300733E+02  0.27237125411E+02  0.51100000000E-03 0.  1.
         12    1    3    3    0    0 -0.23125351373E+02 -0.29099444145E+02  0.24297919919E+02  0.44406626060E+02  0.00000000000E+00 0. -1.
</event>
<event>
 7    1  0.3925070E-015  0.9000771E+02  0.7816164E-02  0.1186339E+00
        -11   -1    0    0    0    0  0.00000000000E+00  0.00000000000E+00  0.45593999997E+02  0.45594000000E+02  0.51100000000E-03 0.  1.
         11   -1    0    0    0    0 -0.00000000000E+00 -0.00000000000E+00 -0.45593999997E+02  0.45594000000E+02  0.51100000000E-03 0. -1.
    9900012    2    1    2    0    0 -0.91845425006E+00  0.50041451343E-01 -0.73960197129E+00  0.90007714682E+02  0.89999975716E+02 0.  0.
        -12    1    1    2    0    0  0.91845425006E+00 -0.50041451343E-01  0.73960197129E+00  0.11802853181E+01  0.00000000000E+00 0.  1.
         11    1    3    3    0    0  0.67335316885E+01 -0.79709239804E+01 -0.12242449689E+01  0.10505943751E+02  0.51100000000E-03 0. -1.
        -11    1    3    3    0    0 -0.34576847972E+02 -0.14287552817E+02  0.16685931963E+02  0.40964776417E+02  0.51100000000E-03 0.  1.
         12    1    3    3    0    0  0.26924862033E+02  0.22308518249E+02 -0.16201288966E+02  0.38536994513E+02  0.00000000000E+00 0. -1.
</event>
<event>
 7    1  0.3925070E-015  0.9000793E+02  0.7816164E-02  0.1186339E+00
        -11   -1    0    0    0    0  0.00000000000E+00  0.00000000000E+00  0.45593999997E+02  0.45594000000E+02  0.51100000000E-03 0. -1.
         11   -1    0    0    0    0 -0.00000000000E+00 -0.00000000000E+00 -0.45593999997E+02  0.45594000000E+02  0.51100000000E-03 0.  1.
    9900012    2    1    2    0    0 -0.54259552740E+00 -0.17305134414E-01 -0.10477914680E+01  0.90007925284E+02  0.90000189098E+02 0.  0.
        -12    1    1    2    0    0  0.54259552740E+00  0.17305134414E-01  0.10477914680E+01  0.11800747156E+01  0.00000000000E+00 0.  1.
         11    1    3    3    0    0  0.17795711973E+01  0.17087741251E+01 -0.89355078578E+01  0.92698480891E+01  0.51100000000E-03 0. -1.
        -11    1    3    3    0    0 -0.18308858928E+02 -0.69689667260E+01 -0.31958786866E+02  0.37485262046E+02  0.51100000000E-03 0.  1.
         12    1    3    3    0    0  0.15986692203E+02  0.52428874664E+01  0.39846503256E+02  0.43252815149E+02  0.00000000000E+00 0. -1.
</event>
<event>
 7    1  0.3925070E-015  0.9000774E+02  0.7816164E-02  0.1186339E+00
        -11   -1    0    0    0    0  0.00000000000E+00  0.00000000000E+00  0.45593999997E+02  0.45594000000E+02  0.51100000000E-03 0.  1.
         11   -1    0    0    0    0 -0.00000000000E+00 -0.00000000000E+00 -0.45593999997E+02  0.45594000000E+02  0.51100000000E-03 0. -1.
    9900012    2    1    2    0    0  0.42673746490E+00 -0.10101734554E+01  0.43640600563E+00  0.90007743470E+02  0.90000004884E+02 0.  0.
        -12    1    1    2    0    0 -0.42673746490E+00  0.10101734554E+01 -0.43640600563E+00  0.11802565296E+01  0.00000000000E+00 0.  1.
         11    1    3    3    0    0 -0.39462636039E+02 -0.44857429205E+00 -0.48095090487E+01  0.39757165890E+02  0.51100000000E-03 0. -1.
        -11    1    3    3    0    0 -0.10268502728E+01  0.38397109618E+00  0.90784250963E+01  0.91443784795E+01  0.51100000000E-03 0.  1.
        -12    1    3    3    0    0  0.40916223777E+02 -0.94557025955E+00 -0.38325100420E+01  0.41106199101E+02  0.00000000000E+00 0.  1.
</event>
<event>
 7    1  0.3925070E-015  0.9000769E+02  0.7816164E-02  0.1186339E+00
        -11   -1    0    0    0    0  0.00000000000E+00  0.00000000000E+00  0.45593999997E+02  0.45594000000E+02  0.51100000000E-03 0.  1.
         11   -1    0    0    0    0 -0.00000000000E+00 -0.00000000000E+00 -0.45593999997E+02  0.45594000000E+02  0.51100000000E-03 0. -1.
    9900012    2    1    2    0    0 -0.69752478035E+00  0.11554667362E+00 -0.94511382381E+00  0.90007689874E+02  0.89999950581E+02 0.  0.
        -12    1    1    2    0    0  0.69752478035E+00 -0.11554667362E+00  0.94511382381E+00  0.11803101257E+01  0.00000000000E+00 0.  1.
         11    1    3    3    0    0  0.19700354442E+02  0.12607310661E+02 -0.28215413069E+02  0.36649117072E+02  0.51100000000E-03 0. -1.
        -11    1    3    3    0    0  0.48652284637E+01  0.92846544110E+01  0.33534721843E+00  0.10487502732E+02  0.51100000000E-03 0.  1.
        -12    1    3    3    0    0 -0.25263107686E+02 -0.21776418398E+02  0.26934952027E+02  0.42871070070E+02  0.00000000000E+00 0.  1.
</event>
<event>
 7    1  0.3925070E-015  0.9000776E+02  0.7816164E-02  0.1186339E+00
        -11   -1    0    0    0    0  0.00000000000E+00  0.00000000000E+00  0.45593999997E+02  0.45594000000E+02  0.51100000000E-03 0. -1.
         11   -1    0    0    0    0 -0.00000000000E+00 -0.00000000000E+00 -0.45593999997E+02  0.45594000000E+02  0.51100000000E-03 0.  1.
    9900012    2    1    2    0    0 -0.65194316514E+00 -0.85285741394E+00  0.49048598088E+00  0.90007757586E+02  0.90000019186E+02 0.  0.
        -12    1    1    2    0    0  0.65194316514E+00  0.85285741394E+00 -0.49048598088E+00  0.11802424143E+01  0.00000000000E+00 0.  1.
         11    1    3    3    0    0 -0.87852665601E+01  0.12309376857E+01 -0.30554999702E+01  0.93825474391E+01  0.51100000000E-03 0. -1.
        -11    1    3    3    0    0  0.28597867933E+02  0.11113587768E+02 -0.27477090666E+02  0.41186653118E+02  0.51100000000E-03 0.  1.
         12    1    3    3    0    0 -0.20464544538E+02 -0.13197382867E+02  0.31023076617E+02  0.39438557028E+02  0.00000000000E+00 0. -1.
</event>
<event>
 7    1  0.3925070E-015  0.9000682E+02  0.7816164E-02  0.1186341E+00
        -11   -1    0    0    0    0  0.00000000000E+00  0.00000000000E+00  0.45593999997E+02  0.45594000000E+02  0.51100000000E-03 0. -1.
         11   -1    0    0    0    0 -0.00000000000E+00 -0.00000000000E+00 -0.45593999997E+02  0.45594000000E+02  0.51100000000E-03 0.  1.
    9900012    2    1    2    0    0 -0.20517603368E+00  0.37450936530E+00  0.11012902172E+01  0.90006816436E+02  0.89999065608E+02 0.  0.
        -12    1    1    2    0    0  0.20517603368E+00 -0.37450936530E+00 -0.11012902172E+01  0.11811835640E+01  0.00000000000E+00 0.  1.
         11    1    3    3    0    0 -0.88281784829E+01 -0.32074535604E+02  0.14176257169E+02  0.36161842280E+02  0.51100000000E-03 0. -1.
        -11    1    3    3    0    0 -0.73990573288E+01 -0.61094635401E+01  0.13041905988E+01  0.96836205772E+01  0.51100000000E-03 0.  1.
        -12    1    3    3    0    0  0.16022059778E+02  0.38558508510E+02 -0.14379157550E+02  0.44161353578E+02  0.00000000000E+00 0.  1.
</event>
<event>
 7    1  0.3925070E-015  0.9000775E+02  0.7816164E-02  0.1186339E+00
        -11   -1    0    0    0    0  0.00000000000E+00  0.00000000000E+00  0.45593999997E+02  0.45594000000E+02  0.51100000000E-03 0.  1.
         11   -1    0    0    0    0 -0.00000000000E+00 -0.00000000000E+00 -0.45593999997E+02  0.45594000000E+02  0.51100000000E-03 0. -1.
    9900012    2    1    2    0    0 -0.31716720111E-01  0.52832435627E+00 -0.10549245318E+01  0.90007746492E+02  0.90000007945E+02 0.  0.
        -12    1    1    2    0    0  0.31716720111E-01 -0.52832435627E+00  0.10549245318E+01  0.11802535082E+01  0.00000000000E+00 0.  1.
         11    1    3    3    0    0 -0.71299082160E+01  0.10243220095E+01  0.89538531013E+01  0.11491575713E+02  0.51100000000E-03 0. -1.
        -11    1    3    3    0    0 -0.24307020975E+02 -0.15551034397E+02  0.17838465104E+02  0.33924574824E+02  0.51100000000E-03 0.  1.
         12    1    3    3    0    0  0.31405212470E+02  0.15055036744E+02 -0.27847242738E+02  0.44591595954E+02  0.00000000000E+00 0. -1.
</event>
<event>
 7    1  0.3925070E-015  0.9000779E+02  0.7816164E-02  0.1186339E+00
        -11   -1    0    0    0    0  0.00000000000E+00  0.00000000000E+00  0.45593999997E+02  0.45594000000E+02  0.51100000000E-03 0.  1.
         11   -1    0    0    0    0 -0.00000000000E+00 -0.00000000000E+00 -0.45593999997E+02  0.45594000000E+02  0.51100000000E-03 0. -1.
    9900012    2    1    2    0    0 -0.10596272805E+01 -0.50093611502E+00 -0.13835014431E+00  0.90007793354E+02  0.90000055426E+02 0.  0.
        -12    1    1    2    0    0  0.10596272805E+01  0.50093611502E+00  0.13835014431E+00  0.11802066460E+01  0.00000000000E+00 0.  1.
         11    1    3    3    0    0  0.97793164035E+01 -0.23192562780E+01 -0.80256619783E+01  0.12861773962E+02  0.51100000000E-03 0. -1.
        -11    1    3    3    0    0  0.25749602899E+02  0.22946597888E+02  0.33924022819E+01  0.34656843446E+02  0.51100000000E-03 0.  1.
         12    1    3    3    0    0 -0.36588546583E+02 -0.21128277725E+02  0.44949095521E+01  0.42489175946E+02  0.00000000000E+00 0. -1.
</event>
<event>
 7    1  0.3925070E-015  0.9000772E+02  0.7816164E-02  0.1186339E+00
        -11   -1    0    0    0    0  0.00000000000E+00  0.00000000000E+00  0.45593999997E+02  0.45594000000E+02  0.51100000000E-03 0.  1.
         11   -1    0    0    0    0 -0.00000000000E+00 -0.00000000000E+00 -0.45593999997E+02  0.45594000000E+02  0.51100000000E-03 0. -1.
    9900012    2    1    2    0    0 -0.39415880849E-01 -0.75508808188E+00 -0.90628952488E+00  0.90007715150E+02  0.89999976190E+02 0.  0.
        -12    1    1    2    0    0  0.39415880849E-01  0.75508808188E+00  0.90628952488E+00  0.11802848495E+01  0.00000000000E+00 0.  1.
         11    1    3    3    0    0  0.28105891216E+02  0.19903016375E+02 -0.16585900832E+02  0.38225165644E+02  0.51100000000E-03 0. -1.
        -11    1    3    3    0    0  0.77322062461E+01 -0.33785417786E+01 -0.12149457249E+01  0.85251188471E+01  0.51100000000E-03 0.  1.
        -12    1    3    3    0    0 -0.35877513343E+02 -0.17279562678E+02  0.16894557032E+02  0.43257430660E+02  0.00000000000E+00 0.  1.
</event>
<event>
 7    1  0.3925070E-015  0.9000747E+02  0.7816164E-02  0.1186340E+00
        -11   -1    0    0    0    0  0.00000000000E+00  0.00000000000E+00  0.45593999997E+02  0.45594000000E+02  0.51100000000E-03 0. -1.
         11   -1    0    0    0    0 -0.00000000000E+00 -0.00000000000E+00 -0.45593999997E+02  0.45594000000E+02  0.51100000000E-03 0.  1.
    9900012    2    1    2    0    0  0.20187175428E+00  0.89599212669E+00  0.74168909681E+00  0.90007467572E+02  0.89999725344E+02 0.  0.
        -12    1    1    2    0    0 -0.20187175428E+00 -0.89599212669E+00 -0.74168909681E+00  0.11805324276E+01  0.00000000000E+00 0.  1.
         11    1    3    3    0    0 -0.82777590401E+01  0.47360486288E+01 -0.79976089164E+01  0.12446413137E+02  0.51100000000E-03 0. -1.
        -11    1    3    3    0    0 -0.50470471299E+01 -0.28635510163E+02 -0.21515060606E+02  0.36171300228E+02  0.51100000000E-03 0.  1.
         12    1    3    3    0    0  0.13526677924E+02  0.24795453661E+02  0.30254358619E+02  0.41389754208E+02  0.00000000000E+00 0. -1.
</event>
<event>
 7    1  0.3925070E-015  0.9000796E+02  0.7816164E-02  0.1186339E+00
        -11   -1    0    0    0    0  0.00000000000E+00  0.00000000000E+00  0.45593999997E+02  0.45594000000E+02  0.51100000000E-03 0.  1.
         11   -1    0    0    0    0 -0.00000000000E+00 -0.00000000000E+00 -0.45593999997E+02  0.45594000000E+02  0.51100000000E-03 0. -1.
    9900012    2    1    2    0    0 -0.25485588105E+00 -0.15975286856E+00 -0.11410593907E+01  0.90007962275E+02  0.90000226577E+02 0.  0.
        -12    1    1    2    0    0  0.25485588105E+00  0.15975286856E+00  0.11410593907E+01  0.11800377249E+01  0.00000000000E+00 0.  1.
         11    1    3    3    0    0  0.65481662701E+00 -0.20390374828E+01  0.96225551735E+01  0.98579930513E+01  0.51100000000E-03 0. -1.
        -11    1    3    3    0    0  0.31331043022E+02  0.17421747141E+02  0.11916359229E+02  0.37777654081E+02  0.51100000000E-03 0.  1.
         12    1    3    3    0    0 -0.32240715531E+02 -0.15542462526E+02 -0.22679973793E+02  0.42372315143E+02  0.00000000000E+00 0. -1.
</event>
<event>
 7    1  0.3925070E-015  0.9000770E+02  0.7816164E-02  0.1186339E+00
        -11   -1    0    0    0    0  0.00000000000E+00  0.00000000000E+00  0.45593999997E+02  0.45594000000E+02  0.51100000000E-03 0. -1.
         11   -1    0    0    0    0 -0.00000000000E+00 -0.00000000000E+00 -0.45593999997E+02  0.45594000000E+02  0.51100000000E-03 0.  1.
    9900012    2    1    2    0    0  0.69226172401E+00  0.40491914414E+00  0.86597439496E+00  0.90007704503E+02  0.89999965402E+02 0.  0.
        -12    1    1    2    0    0 -0.69226172401E+00 -0.40491914414E+00 -0.86597439496E+00  0.11802954971E+01  0.00000000000E+00 0.  1.
         11    1    3    3    0    0  0.13995495074E+01  0.10200528447E+02  0.19764455602E+01  0.10484076342E+02  0.51100000000E-03 0. -1.
        -11    1    3    3    0    0  0.11005906257E+01  0.32279773755E+02 -0.14398826051E+02  0.35362710378E+02  0.51100000000E-03 0.  1.
         12    1    3    3    0    0 -0.18078784091E+01 -0.42075383058E+02  0.13288354886E+02  0.44160917783E+02  0.00000000000E+00 0. -1.
</event>
<event>
 7    1  0.3925070E-015  0.9000766E+02  0.7816164E-02  0.1186339E+00
        -11   -1    0    0    0    0  0.00000000000E+00  0.00000000000E+00  0.45593999997E+02  0.45594000000E+02  0.51100000000E-03 0.  1.
         11   -1    0    0    0    0 -0.00000000000E+00 -0.00000000000E+00 -0.45593999997E+02  0.45594000000E+02  0.51100000000E-03 0. -1.
    9900012    2    1    2    0    0  0.63296151046E+00  0.79452258486E-01 -0.99309960922E+00  0.90007661164E+02  0.89999921491E+02 0.  0.
        -12    1    1    2    0    0 -0.63296151046E+00 -0.79452258486E-01  0.99309960922E+00  0.11803388365E+01  0.00000000000E+00 0.  1.
         11    1    3    3    0    0  0.13156121552E+02  0.26260961460E+02  0.29551121367E+02  0.41665218173E+02  0.51100000000E-03 0. -1.
        -11    1    3    3    0    0 -0.25721844234E+00  0.37756415882E+01 -0.81335289771E+01  0.89708374532E+01  0.51100000000E-03 0.  1.
        -12    1    3    3    0    0 -0.12265941599E+02 -0.29957150790E+02 -0.22410691999E+02  0.39371605538E+02  0.00000000000E+00 0.  1.
</event>
<event>
 7    1  0.3925070E-015  0.9000775E+02  0.7816164E-02  0.1186339E+00
        -11   -1    0    0    0    0  0.00000000000E+00  0.00000000000E+00  0.45593999997E+02  0.45594000000E+02  0.51100000000E-03 0. -1.
         11   -1    0    0    0    0 -0.00000000000E+00 -0.00000000000E+00 -0.45593999997E+02  0.45594000000E+02  0.51100000000E-03 0.  1.
    9900012    2    1    2    0    0 -0.89764946969E+00  0.75362907689E+00 -0.13881357873E+00  0.90007745550E+02  0.90000006992E+02 0.  0.
        -12    1    1    2    0    0  0.89764946969E+00 -0.75362907689E+00  0.13881357873E+00  0.11802544495E+01  0.00000000000E+00 0.  1.
         11    1    3    3    0    0 -0.21322093526E+01  0.14718853532E+00 -0.10581883639E+02  0.10795565886E+02  0.51100000000E-03 0. -1.
        -11    1    3    3    0    0  0.30059782840E+02 -0.24116674460E+02 -0.36393916288E+01  0.38709814041E+02  0.51100000000E-03 0.  1.
         12    1    3    3    0    0 -0.28825222957E+02  0.24723115001E+02  0.14082461689E+02  0.40502365624E+02  0.00000000000E+00 0. -1.
</event>
<event>
 7    1  0.3925070E-015  0.9000774E+02  0.7816164E-02  0.1186339E+00
        -11   -1    0    0    0    0  0.00000000000E+00  0.00000000000E+00  0.45593999997E+02  0.45594000000E+02  0.51100000000E-03 0. -1.
         11   -1    0    0    0    0 -0.00000000000E+00 -0.00000000000E+00 -0.45593999997E+02  0.45594000000E+02  0.51100000000E-03 0.  1.
    9900012    2    1    2    0    0  0.25289749581E+00  0.37403458924E+00  0.10904862927E+01  0.90007737583E+02  0.89999998920E+02 0.  0.
        -12    1    1    2    0    0 -0.25289749581E+00 -0.37403458924E+00 -0.10904862927E+01  0.11802624166E+01  0.00000000000E+00 0.  1.
         11    1    3    3    0    0 -0.30325254490E+02 -0.18089029195E+02 -0.14878721867E+02  0.38317233744E+02  0.51100000000E-03 0. -1.
        -11    1    3    3    0    0  0.51861579186E+01 -0.76531660885E+01 -0.40876245631E+01  0.10108207554E+02  0.51100000000E-03 0.  1.
        -12    1    3    3    0    0  0.25391994068E+02  0.26116229872E+02  0.20056832723E+02  0.41582296285E+02  0.00000000000E+00 0.  1.
</event>
<event>
 7    1  0.3925070E-015  0.9000780E+02  0.7816164E-02  0.1186339E+00
        -11   -1    0    0    0    0  0.00000000000E+00  0.00000000000E+00  0.45593999997E+02  0.45594000000E+02  0.51100000000E-03 0. -1.
         11   -1    0    0    0    0 -0.00000000000E+00 -0.00000000000E+00 -0.45593999997E+02  0.45594000000E+02  0.51100000000E-03 0.  1.
    9900012    2    1    2    0    0 -0.38419277749E+00  0.11148167557E+01  0.49478916864E-01  0.90007801435E+02  0.90000063614E+02 0.  0.
        -12    1    1    2    0    0  0.38419277749E+00 -0.11148167557E+01 -0.49478916864E-01  0.11801985647E+01  0.00000000000E+00 0.  1.
         11    1    3    3    0    0  0.37544875343E+01  0.80854610548E+01 -0.12519879466E+01  0.90021292589E+01  0.51100000000E-03 0. -1.
        -11    1    3    3    0    0 -0.98262458715E+00  0.30811755618E+02 -0.20735747027E+02  0.37152402888E+02  0.51100000000E-03 0.  1.
         12    1    3    3    0    0 -0.31560557247E+01 -0.37782399917E+02  0.22037213890E+02  0.43853269288E+02  0.00000000000E+00 0. -1.
</event>
<event>
 7    1  0.3925070E-015  0.9000776E+02  0.7816164E-02  0.1186339E+00
        -11   -1    0    0    0    0  0.00000000000E+00  0.00000000000E+00  0.45593999997E+02  0.45594000000E+02  0.51100000000E-03 0. -1.
         11   -1    0    0    0    0 -0.00000000000E+00 -0.00000000000E+00 -0.45593999997E+02  0.45594000000E+02  0.51100000000E-03 0.  1.
    9900012    2    1    2    0    0  0.74600326988E+00 -0.70506426960E+00  0.58251840422E+00  0.90007760959E+02  0.90000022604E+02 0.  0.
        -12    1    1    2    0    0 -0.74600326988E+00  0.70506426960E+00 -0.58251840422E+00  0.11802390411E+01  0.00000000000E+00 0.  1.
         11    1    3    3    0    0 -0.12087410282E+02 -0.16437661314E+02 -0.27201073608E+02  0.34002949908E+02  0.51100000000E-03 0. -1.
        -11    1    3    3    0    0  0.11258692202E+02 -0.40733984390E+01 -0.84684779091E+01  0.14665123365E+02  0.51100000000E-03 0.  1.
        -12    1    3    3    0    0  0.15747213504E+01  0.19805995483E+02  0.36252069921E+02  0.41339687686E+02  0.00000000000E+00 0.  1.
</event>
<event>
 7    1  0.3925070E-015  0.9000812E+02  0.7816164E-02  0.1186338E+00
        -11   -1    0    0    0    0  0.00000000000E+00  0.00000000000E+00  0.45593999997E+02  0.45594000000E+02  0.51100000000E-03 0.  1.
         11   -1    0    0    0    0 -0.00000000000E+00 -0.00000000000E+00 -0.45593999997E+02  0.45594000000E+02  0.51100000000E-03 0. -1.
    9900012    2    1    2    0    0 -0.57958931967E+00  0.93651391571E+00  0.42324540049E+00  0.90008119174E+02  0.90000385547E+02 0.  0.
        -12    1    1    2    0    0  0.57958931967E+00 -0.93651391571E+00 -0.42324540049E+00  0.11798808257E+01  0.00000000000E+00 0.  1.
         11    1    3    3    0    0 -0.29007188372E+02 -0.16512793407E+02  0.19190904723E+02  0.38501690192E+02  0.51100000000E-03 0. -1.
        -11    1    3    3    0    0 -0.39453624185E+00  0.51310075100E+01  0.85165699976E+01  0.99506211715E+01  0.51100000000E-03 0.  1.
        -12    1    3    3    0    0  0.28822135294E+02  0.12318299813E+02 -0.27284229320E+02  0.41555807810E+02  0.00000000000E+00 0.  1.
</event>
<event>
 7    1  0.3925070E-015  0.9000771E+02  0.7816164E-02  0.1186339E+00
        -11   -1    0    0    0    0  0.00000000000E+00  0.00000000000E+00  0.45593999997E+02  0.45594000000E+02  0.51100000000E-03 0. -1.
         11   -1    0    0    0    0 -0.00000000000E+00 -0.00000000000E+00 -0.45593999997E+02  0.45594000000E+02  0.51100000000E-03 0.  1.
    9900012    2    1    2    0    0 -0.11259726963E+01  0.34605132588E+00 -0.74270289937E-01  0.90007711006E+02  0.89999971991E+02 0.  0.
        -12    1    1    2    0    0  0.11259726963E+01 -0.34605132588E+00  0.74270289937E-01  0.11802889938E+01  0.00000000000E+00 0.  1.
         11    1    3    3    0    0  0.28631167701E+02  0.33946057706E+01  0.25090844814E+02  0.38220643715E+02  0.51100000000E-03 0. -1.
        -11    1    3    3    0    0  0.56304639781E+01 -0.60845716256E+01 -0.10457329141E+02  0.13344656964E+02  0.51100000000E-03 0.  1.
        -12    1    3    3    0    0 -0.35387604376E+02  0.30360171809E+01 -0.14707785963E+02  0.38442410326E+02  0.00000000000E+00 0.  1.
</event>
<event>
 7    1  0.3925070E-015  0.9000768E+02  0.7816164E-02  0.1186339E+00
        -11   -1    0    0    0    0  0.00000000000E+00  0.00000000000E+00  0.45593999997E+02  0.45594000000E+02  0.51100000000E-03 0.  1.
         11   -1    0    0    0    0 -0.00000000000E+00 -0.00000000000E+00 -0.45593999997E+02  0.45594000000E+02  0.51100000000E-03 0. -1.
    9900012    2    1    2    0    0  0.84675232288E+00  0.38167167560E+00 -0.72835433190E+00  0.90007676825E+02  0.89999937359E+02 0.  0.
        -12    1    1    2    0    0 -0.84675232288E+00 -0.38167167560E+00  0.72835433190E+00  0.11803231748E+01  0.00000000000E+00 0.  1.
         11    1    3    3    0    0  0.10929932842E+02  0.82970927234E+00  0.29433831418E+01  0.11349685193E+02  0.51100000000E-03 0. -1.
        -11    1    3    3    0    0 -0.32995375111E+02  0.13316694743E+02  0.21806032817E+02  0.41731669091E+02  0.51100000000E-03 0.  1.
         12    1    3    3    0    0  0.22912194592E+02 -0.13764732340E+02 -0.25477770291E+02  0.36926322541E+02  0.00000000000E+00 0. -1.
</event>
<event>
 7    1  0.3925070E-015  0.9000776E+02  0.7816164E-02  0.1186339E+00
        -11   -1    0    0    0    0  0.00000000000E+00  0.00000000000E+00  0.45593999997E+02  0.45594000000E+02  0.51100000000E-03 0. -1.
         11   -1    0    0    0    0 -0.00000000000E+00 -0.00000000000E+00 -0.45593999997E+02  0.45594000000E+02  0.51100000000E-03 0.  1.
    9900012    2    1    2    0    0  0.97181708197E+00  0.90710499579E-01  0.66355786187E+00  0.90007760248E+02  0.90000021884E+02 0.  0.
        -12    1    1    2    0    0 -0.97181708197E+00 -0.90710499579E-01 -0.66355786187E+00  0.11802397517E+01  0.00000000000E+00 0.  1.
         11    1    3    3    0    0 -0.34116327905E+01  0.43828019545E+01  0.10662784373E+02  0.12022610453E+02  0.51100000000E-03 0. -1.
        -11    1    3    3    0    0  0.18585952071E+02 -0.36976071918E+02 -0.89067792688E+01  0.42332000024E+02  0.51100000000E-03 0.  1.
         12    1    3    3    0    0 -0.14202502199E+02  0.32683980463E+02 -0.10924472423E+01  0.35653149771E+02  0.00000000000E+00 0. -1.
</event>
<event>
 7    1  0.3925070E-015  0.9000797E+02  0.7816164E-02  0.1186339E+00
        -11   -1    0    0    0    0  0.00000000000E+00  0.00000000000E+00  0.45593999997E+02  0.45594000000E+02  0.51100000000E-03 0. -1.
         11   -1    0    0    0    0 -0.00000000000E+00 -0.00000000000E+00 -0.45593999997E+02  0.45594000000E+02  0.51100000000E-03 0.  1.
    9900012    2    1    2    0    0 -0.11021596135E-01 -0.10725867337E+01 -0.49184657058E+00  0.90007967447E+02  0.90000231817E+02 0.  0.
        -12    1    1    2    0    0  0.11021596135E-01  0.10725867337E+01  0.49184657058E+00  0.11800325529E+01  0.00000000000E+00 0.  1.
         11    1    3    3    0    0 -0.95122759508E+01  0.46578532465E+01 -0.23387118708E+01  0.10846592281E+02  0.51100000000E-03 0. -1.
        -11    1    3    3    0    0 -0.33642399834E+02 -0.59830389566E+01  0.92180953548E+01  0.35391822558E+02  0.51100000000E-03 0.  1.
         12    1    3    3    0    0  0.43143654189E+02  0.25259897636E+00 -0.73712300546E+01  0.43769552608E+02  0.00000000000E+00 0. -1.
</event>
<event>
 7    1  0.3925070E-015  0.9000773E+02  0.7816164E-02  0.1186339E+00
        -11   -1    0    0    0    0  0.00000000000E+00  0.00000000000E+00  0.45593999997E+02  0.45594000000E+02  0.51100000000E-03 0. -1.
         11   -1    0    0    0    0 -0.00000000000E+00 -0.00000000000E+00 -0.45593999997E+02  0.45594000000E+02  0.51100000000E-03 0.  1.
    9900012    2    1    2    0    0 -0.10147457759E+01 -0.47269687681E+00  0.37400229012E+00  0.90007733488E+02  0.89999994770E+02 0.  0.
        -12    1    1    2    0    0  0.10147457759E+01  0.47269687681E+00 -0.37400229012E+00  0.11802665123E+01  0.00000000000E+00 0.  1.
         11    1    3    3    0    0 -0.27573260468E+02  0.26761928894E+01  0.30492439445E+02  0.41197518915E+02  0.51100000000E-03 0. -1.
        -11    1    3    3    0    0 -0.77582417926E+00 -0.80017660528E+01 -0.26555831480E+00  0.80436735762E+01  0.51100000000E-03 0.  1.
        -12    1    3    3    0    0  0.27334338871E+02  0.48528762866E+01 -0.29852878840E+02  0.40766540996E+02  0.00000000000E+00 0.  1.
</event>
<event>
 7    1  0.3925070E-015  0.9000774E+02  0.7816164E-02  0.1186339E+00
        -11   -1    0    0    0    0  0.00000000000E+00  0.00000000000E+00  0.45593999997E+02  0.45594000000E+02  0.51100000000E-03 0.  1.
         11   -1    0    0    0    0 -0.00000000000E+00 -0.00000000000E+00 -0.45593999997E+02  0.45594000000E+02  0.51100000000E-03 0. -1.
    9900012    2    1    2    0    0 -0.35445055342E+00 -0.10114928539E+01 -0.49422091611E+00  0.90007742697E+02  0.90000004100E+02 0.  0.
        -12    1    1    2    0    0  0.35445055342E+00  0.10114928539E+01  0.49422091611E+00  0.11802573034E+01  0.00000000000E+00 0.  1.
         11    1    3    3    0    0  0.81845747917E+01  0.66592449493E+01  0.91388849865E+00  0.10590939536E+02  0.51100000000E-03 0. -1.
        -11    1    3    3    0    0  0.17340055119E+02 -0.36616517976E+02  0.84841266997E+00  0.40523656111E+02  0.51100000000E-03 0.  1.
         12    1    3    3    0    0 -0.25879080464E+02  0.28945780173E+02 -0.22565220847E+01  0.38893147050E+02  0.00000000000E+00 0. -1.
</event>
<event>
 7    1  0.3925070E-015  0.9000770E+02  0.7816164E-02  0.1186339E+00
        -11   -1    0    0    0    0  0.00000000000E+00  0.00000000000E+00  0.45593999997E+02  0.45594000000E+02  0.51100000000E-03 0. -1.
         11   -1    0    0    0    0 -0.00000000000E+00 -0.00000000000E+00 -0.45593999997E+02  0.45594000000E+02  0.51100000000E-03 0.  1.
    9900012    2    1    2    0    0 -0.99670186440E+00 -0.25230384995E+00  0.57968872213E+00  0.90007698829E+02  0.89999959654E+02 0.  0.
        -12    1    1    2    0    0  0.99670186440E+00  0.25230384995E+00 -0.57968872213E+00  0.11803011708E+01  0.00000000000E+00 0.  1.
         11    1    3    3    0    0  0.73015232114E+01 -0.12311751048E+01  0.21918221911E+01  0.77221835075E+01  0.51100000000E-03 0. -1.
        -11    1    3    3    0    0  0.39699858145E+01  0.13537623941E+02 -0.38733015281E+02  0.41222257609E+02  0.51100000000E-03 0.  1.
         12    1    3    3    0    0 -0.12268210890E+02 -0.12558752686E+02  0.37120881812E+02  0.41063257713E+02  0.00000000000E+00 0. -1.
</event>
<event>
 7    1  0.3925070E-015  0.9000768E+02  0.7816164E-02  0.1186339E+00
        -11   -1    0    0    0    0  0.00000000000E+00  0.00000000000E+00  0.45593999997E+02  0.45594000000E+02  0.51100000000E-03 0. -1.
         11   -1    0    0    0    0 -0.00000000000E+00 -0.00000000000E+00 -0.45593999997E+02  0.45594000000E+02  0.51100000000E-03 0.  1.
    9900012    2    1    2    0    0  0.82064265319E+00  0.43461804951E+00  0.72855781747E+00  0.90007684912E+02  0.89999945553E+02 0.  0.
        -12    1    1    2    0    0 -0.82064265319E+00 -0.43461804951E+00 -0.72855781747E+00  0.11803150878E+01  0.00000000000E+00 0.  1.
         11    1    3    3    0    0  0.26669420778E+02 -0.31789615548E+02  0.54163562073E+01  0.41847037841E+02  0.51100000000E-03 0. -1.
        -11    1    3    3    0    0 -0.81378134365E+01 -0.23494124232E+01  0.20985772382E+01  0.87262691310E+01  0.51100000000E-03 0.  1.
        -12    1    3    3    0    0 -0.17710964688E+02  0.34573646020E+02 -0.67863756281E+01  0.39434377940E+02  0.00000000000E+00 0.  1.
</event>
<event>
 7    1  0.3925070E-015  0.9000776E+02  0.7816164E-02  0.1186339E+00
        -11   -1    0    0    0    0  0.00000000000E+00  0.00000000000E+00  0.45593999997E+02  0.45594000000E+02  0.51100000000E-03 0.  1.
         11   -1    0    0    0    0 -0.00000000000E+00 -0.00000000000E+00 -0.45593999997E+02  0.45594000000E+02  0.51100000000E-03 0. -1.
    9900012    2    1    2    0    0 -0.45295312179E+00 -0.10652475347E+01  0.23034230078E+00  0.90007755781E+02  0.90000017357E+02 0.  0.
        -12    1    1    2    0    0  0.45295312179E+00  0.10652475347E+01 -0.23034230078E+00  0.11802442189E+01  0.00000000000E+00 0.  1.
         11    1    3    3    0    0  0.11906903463E+02 -0.24717519134E+01  0.72125935252E+01  0.14138791081E+02  0.51100000000E-03 0. -1.
        -11    1    3    3    0    0  0.27692896003E+02 -0.15357674840E+02 -0.70851545120E+01  0.32449253925E+02  0.51100000000E-03 0.  1.
         12    1    3    3    0    0 -0.40052752588E+02  0.16764179218E+02  0.10290328766E+00  0.43419710776E+02  0.00000000000E+00 0. -1.
</event>
<event>
 7    1  0.3925070E-015  0.9000773E+02  0.7816164E-02  0.1186339E+00
        -11   -1    0    0    0    0  0.00000000000E+00  0.00000000000E+00  0.45593999997E+02  0.45594000000E+02  0.51100000000E-03 0. -1.
         11   -1    0    0    0    0 -0.00000000000E+00 -0.00000000000E+00 -0.45593999997E+02  0.45594000000E+02  0.51100000000E-03 0.  1.
    9900012    2    1    2    0    0 -0.29371044557E+00  0.11180193013E+01  0.23833084194E+00  0.90007731143E+02  0.89999992394E+02 0.  0.
        -12    1    1    2    0    0  0.29371044557E+00 -0.11180193013E+01 -0.23833084194E+00  0.11802688567E+01  0.00000000000E+00 0.  1.
         11    1    3    3    0    0 -0.17795350968E+02  0.95273331941E+00  0.15132858650E+02  0.23379170816E+02  0.51100000000E-03 0. -1.
        -11    1    3    3    0    0 -0.67161985802E+01  0.25706564210E+02  0.36925406672E+01  0.26824794942E+02  0.51100000000E-03 0.  1.
        -12    1    3    3    0    0  0.24217839103E+02 -0.25541278228E+02 -0.18587068475E+02  0.39803765385E+02  0.00000000000E+00 0.  1.
</event>
<event>
 7    1  0.3925070E-015  0.9000771E+02  0.7816164E-02  0.1186339E+00
        -11   -1    0    0    0    0  0.00000000000E+00  0.00000000000E+00  0.45593999997E+02  0.45594000000E+02  0.51100000000E-03 0. -1.
         11   -1    0    0    0    0 -0.00000000000E+00 -0.00000000000E+00 -0.45593999997E+02  0.45594000000E+02  0.51100000000E-03 0.  1.
    9900012    2    1    2    0    0  0.10508389726E+01 -0.33434708900E+00  0.42075794813E+00  0.90007708607E+02  0.89999969560E+02 0.  0.
        -12    1    1    2    0    0 -0.10508389726E+01  0.33434708900E+00 -0.42075794813E+00  0.11802913933E+01  0.00000000000E+00 0.  1.
         11    1    3    3    0    0 -0.15989509669E+02  0.28470249035E+02 -0.23726270640E+01  0.32739102905E+02  0.51100000000E-03 0. -1.
        -11    1    3    3    0    0  0.53036705811E+01  0.12600932091E+02  0.39019670631E+01  0.14217515902E+02  0.51100000000E-03 0.  1.
        -12    1    3    3    0    0  0.11736678061E+02 -0.41405528216E+02 -0.11085820511E+01  0.43051089799E+02  0.00000000000E+00 0.  1.
</event>
<event>
 7    1  0.3925070E-015  0.9000766E+02  0.7816164E-02  0.1186339E+00
        -11   -1    0    0    0    0  0.00000000000E+00  0.00000000000E+00  0.45593999997E+02  0.45594000000E+02  0.51100000000E-03 0.  1.
         11   -1    0    0    0    0 -0.00000000000E+00 -0.00000000000E+00 -0.45593999997E+02  0.45594000000E+02  0.51100000000E-03 0. -1.
    9900012    2    1    2    0    0  0.39655754002E+00  0.10808565890E+01  0.26016160674E+00  0.90007664069E+02  0.89999924435E+02 0.  0.
        -12    1    1    2    0    0 -0.39655754002E+00 -0.10808565890E+01 -0.26016160674E+00  0.11803359311E+01  0.00000000000E+00 0.  1.
         11    1    3    3    0    0 -0.25885680832E+02 -0.24387968920E+02  0.14639914325E+02  0.38459960893E+02  0.51100000000E-03 0. -1.
        -11    1    3    3    0    0  0.12260982944E+01  0.67130241364E+00  0.90902915949E+01  0.91971389844E+01  0.51100000000E-03 0.  1.
        -12    1    3    3    0    0  0.25056140078E+02  0.24797523095E+02 -0.23470044313E+02  0.42350564191E+02  0.00000000000E+00 0.  1.
</event>
<event>
 7    1  0.3925070E-015  0.9000762E+02  0.7816164E-02  0.1186339E+00
        -11   -1    0    0    0    0  0.00000000000E+00  0.00000000000E+00  0.45593999997E+02  0.45594000000E+02  0.51100000000E-03 0. -1.
         11   -1    0    0    0    0 -0.00000000000E+00 -0.00000000000E+00 -0.45593999997E+02  0.45594000000E+02  0.51100000000E-03 0.  1.
    9900012    2    1    2    0    0  0.80071487887E+00 -0.39812975198E-01  0.86635596159E+00  0.90007617841E+02  0.89999877596E+02 0.  0.
        -12    1    1    2    0    0 -0.80071487887E+00  0.39812975198E-01 -0.86635596159E+00  0.11803821595E+01  0.00000000000E+00 0.  1.
         11    1    3    3    0    0  0.31741987818E+01  0.60025115308E+01 -0.33295011877E+01  0.75624903969E+01  0.51100000000E-03 0. -1.
        -11    1    3    3    0    0  0.18817902677E+01  0.11351068061E+02 -0.36346638238E+02  0.38124349072E+02  0.51100000000E-03 0.  1.
         12    1    3    3    0    0 -0.42552741706E+01 -0.17393392567E+02  0.40542495387E+02  0.44320778371E+02  0.00000000000E+00 0. -1.
</event>
<event>
 7    1  0.3925070E-015  0.9000764E+02  0.7816164E-02  0.1186339E+00
        -11   -1    0    0    0    0  0.00000000000E+00  0.00000000000E+00  0.45593999997E+02  0.45594000000E+02  0.51100000000E-03 0. -1.
         11   -1    0    0    0    0 -0.00000000000E+00 -0.00000000000E+00 -0.45593999997E+02  0.45594000000E+02  0.51100000000E-03 0.  1.
    9900012    2    1    2    0    0  0.88335730966E+00  0.62985890521E+00  0.46498567019E+00  0.90007638170E+02  0.89999898193E+02 0.  0.
        -12    1    1    2    0    0 -0.88335730966E+00 -0.62985890521E+00 -0.46498567019E+00  0.11803618303E+01  0.00000000000E+00 0.  1.
         11    1    3    3    0    0  0.72361974935E+01 -0.42114916307E+01  0.35628721029E+02  0.36599248330E+02  0.51100000000E-03 0. -1.
        -11    1    3    3    0    0  0.28382009840E+01 -0.81736001051E+01  0.51438974169E+01  0.10065922928E+02  0.51100000000E-03 0.  1.
        -12    1    3    3    0    0 -0.91910411678E+01  0.13014950641E+02 -0.40307632776E+02  0.43342466911E+02  0.00000000000E+00 0.  1.
</event>
<event>
 7    1  0.3925070E-015  0.9000777E+02  0.7816164E-02  0.1186339E+00
        -11   -1    0    0    0    0  0.00000000000E+00  0.00000000000E+00  0.45593999997E+02  0.45594000000E+02  0.51100000000E-03 0.  1.
         11   -1    0    0    0    0 -0.00000000000E+00 -0.00000000000E+00 -0.45593999997E+02  0.45594000000E+02  0.51100000000E-03 0. -1.
    9900012    2    1    2    0    0  0.45493253101E+00  0.54020368222E+00 -0.94560116895E+00  0.90007769007E+02  0.90000030758E+02 0.  0.
        -12    1    1    2    0    0 -0.45493253101E+00 -0.54020368222E+00  0.94560116895E+00  0.11802309930E+01  0.00000000000E+00 0.  1.
         11    1    3    3    0    0  0.22650078684E+02  0.57591319835E+01 -0.29642965911E+02  0.37747835618E+02  0.51100000000E-03 0. -1.
        -11    1    3    3    0    0 -0.54502201771E+01 -0.42098376560E+01 -0.88039820661E+01  0.11177554900E+02  0.51100000000E-03 0.  1.
        -12    1    3    3    0    0 -0.16744925976E+02 -0.10090906452E+01  0.37501346808E+02  0.41082378489E+02  0.00000000000E+00 0.  1.
</event>
<event>
 7    1  0.3925070E-015  0.9000775E+02  0.7816164E-02  0.1186339E+00
        -11   -1    0    0    0    0  0.00000000000E+00  0.00000000000E+00  0.45593999997E+02  0.45594000000E+02  0.51100000000E-03 0.  1.
         11   -1    0    0    0    0 -0.00000000000E+00 -0.00000000000E+00 -0.45593999997E+02  0.45594000000E+02  0.51100000000E-03 0. -1.
    9900012    2    1    2    0    0 -0.81212239267E+00  0.42139249664E+00 -0.74557638770E+00  0.90007746397E+02  0.90000007850E+02 0.  0.
        -12    1    1    2    0    0  0.81212239267E+00 -0.42139249664E+00  0.74557638770E+00  0.11802536027E+01  0.00000000000E+00 0.  1.
         11    1    3    3    0    0 -0.81032801083E+00 -0.12955652579E+02  0.22959848992E+01  0.13182454709E+02  0.51100000000E-03 0. -1.
        -11    1    3    3    0    0  0.29258697645E+01 -0.24538944373E+02  0.20492054982E+02  0.32103657462E+02  0.51100000000E-03 0.  1.
         12    1    3    3    0    0 -0.29276641463E+01  0.37915989448E+02 -0.23533616269E+02  0.44721634226E+02  0.00000000000E+00 0. -1.
</event>
<event>
 7    1  0.3925070E-015  0.9000741E+02  0.7816164E-02  0.1186340E+00
        -11   -1    0    0    0    0  0.00000000000E+00  0.00000000000E+00  0.45593999997E+02  0.45594000000E+02  0.51100000000E-03 0.  1.
         11   -1    0    0    0    0 -0.00000000000E+00 -0.00000000000E+00 -0.45593999997E+02  0.45594000000E+02  0.51100000000E-03 0. -1.
    9900012    2    1    2    0    0 -0.10780703441E+01 -0.13416462294E+00 -0.46211115093E+00  0.90007414328E+02  0.89999671397E+02 0.  0.
        -12    1    1    2    0    0  0.10780703441E+01  0.13416462294E+00  0.46211115093E+00  0.11805856719E+01  0.00000000000E+00 0.  1.
         11    1    3    3    0    0 -0.20283390954E+02  0.78170179054E+01 -0.32388026502E+02  0.39006486364E+02  0.51100000000E-03 0. -1.
        -11    1    3    3    0    0 -0.63483815077E+01  0.52171135477E+01  0.24384849965E+00  0.82206863393E+01  0.51100000000E-03 0.  1.
        -12    1    3    3    0    0  0.25553702118E+02 -0.13168296076E+02  0.31682066852E+02  0.42780241624E+02  0.00000000000E+00 0.  1.
</event>
<event>
 7    1  0.3925070E-015  0.9000773E+02  0.7816164E-02  0.1186339E+00
        -11   -1    0    0    0    0  0.00000000000E+00  0.00000000000E+00  0.45593999997E+02  0.45594000000E+02  0.51100000000E-03 0.  1.
         11   -1    0    0    0    0 -0.00000000000E+00 -0.00000000000E+00 -0.45593999997E+02  0.45594000000E+02  0.51100000000E-03 0. -1.
    9900012    2    1    2    0    0 -0.63461200804E-01 -0.11361520480E+01 -0.31333237484E+00  0.90007726313E+02  0.89999987500E+02 0.  0.
        -12    1    1    2    0    0  0.63461200804E-01  0.11361520480E+01  0.31333237484E+00  0.11802736874E+01  0.00000000000E+00 0.  1.
         11    1    3    3    0    0  0.87722339614E+01  0.19363082076E+02 -0.31760206776E+02  0.38217689240E+02  0.51100000000E-03 0. -1.
        -11    1    3    3    0    0 -0.63300170966E+01  0.81197593836E+01  0.16992216873E+01  0.10434891638E+02  0.51100000000E-03 0.  1.
        -12    1    3    3    0    0 -0.25056780656E+01 -0.28618993507E+02  0.29747652714E+02  0.41355145435E+02  0.00000000000E+00 0.  1.
</event>
<event>
 7    1  0.3925070E-015  0.9000752E+02  0.7816164E-02  0.1186339E+00
        -11   -1    0    0    0    0  0.00000000000E+00  0.00000000000E+00  0.45593999997E+02  0.45594000000E+02  0.51100000000E-03 0.  1.
         11   -1    0    0    0    0 -0.00000000000E+00 -0.00000000000E+00 -0.45593999997E+02  0.45594000000E+02  0.51100000000E-03 0. -1.
    9900012    2    1    2    0    0  0.37579930146E+00 -0.41475132453E+00 -0.10393703379E+01  0.90007519388E+02  0.89999777844E+02 0.  0.
        -12    1    1    2    0    0 -0.37579930146E+00  0.41475132453E+00  0.10393703379E+01  0.11804806121E+01  0.00000000000E+00 0.  1.
         11    1    3    3    0    0 -0.22532795985E+02  0.44755840726E+01 -0.20225833037E-01  0.22972987551E+02  0.51100000000E-03 0. -1.
        -11    1    3    3    0    0  0.24812183797E+02 -0.26573289985E+01 -0.29365792347E+02  0.38536419431E+02  0.51100000000E-03 0.  1.
         12    1    3    3    0    0 -0.19035885108E+01 -0.22330063986E+01  0.28346647842E+02  0.28498112405E+02  0.00000000000E+00 0. -1.
</event>
<event>
 7    1  0.3925070E-015  0.9000778E+02  0.7816164E-02  0.1186339E+00
        -11   -1    0    0    0    0  0.00000000000E+00  0.00000000000E+00  0.45593999997E+02  0.45594000000E+02  0.51100000000E-03 0.  1.
         11   -1    0    0    0    0 -0.00000000000E+00 -0.00000000000E+00 -0.45593999997E+02  0.45594000000E+02  0.51100000000E-03 0. -1.
    9900012    2    1    2    0    0 -0.70021461438E+00 -0.24342920171E+00 -0.91834996787E+00  0.90007777586E+02  0.90000039450E+02 0.  0.
        -12    1    1    2    0    0  0.70021461438E+00  0.24342920171E+00  0.91834996787E+00  0.11802224138E+01  0.00000000000E+00 0.  1.
         11    1    3    3    0    0 -0.29364715273E+01  0.43637003705E+01  0.72401901133E+01  0.89490278294E+01  0.51100000000E-03 0. -1.
        -11    1    3    3    0    0 -0.24471941934E+02  0.64745026492E+01  0.26011420815E+02  0.36295855682E+02  0.51100000000E-03 0.  1.
         12    1    3    3    0    0  0.26708198847E+02 -0.11081632221E+02 -0.34169960897E+02  0.44762894075E+02  0.00000000000E+00 0. -1.
</event>
<event>
 7    1  0.3925070E-015  0.9000779E+02  0.7816164E-02  0.1186339E+00
        -11   -1    0    0    0    0  0.00000000000E+00  0.00000000000E+00  0.45593999997E+02  0.45594000000E+02  0.51100000000E-03 0.  1.
         11   -1    0    0    0    0 -0.00000000000E+00 -0.00000000000E+00 -0.45593999997E+02  0.45594000000E+02  0.51100000000E-03 0. -1.
    9900012    2    1    2    0    0 -0.57803941919E+00  0.55890082086E+00 -0.86393686537E+00  0.90007793829E+02  0.90000055908E+02 0.  0.
        -12    1    1    2    0    0  0.57803941919E+00 -0.55890082086E+00  0.86393686537E+00  0.11802061706E+01  0.00000000000E+00 0.  1.
         11    1    3    3    0    0  0.34746026447E+01  0.41578475666E+01 -0.11100825318E+02  0.12352687276E+02  0.51100000000E-03 0. -1.
        -11    1    3    3    0    0  0.16550962483E+02  0.30693428432E+02 -0.42009603117E+01  0.35123624184E+02  0.51100000000E-03 0.  1.
         12    1    3    3    0    0 -0.20603604547E+02 -0.34292375178E+02  0.14437848764E+02  0.42531482370E+02  0.00000000000E+00 0. -1.
</event>
<event>
 7    1  0.3925070E-015  0.9000771E+02  0.7816164E-02  0.1186339E+00
        -11   -1    0    0    0    0  0.00000000000E+00  0.00000000000E+00  0.45593999997E+02  0.45594000000E+02  0.51100000000E-03 0.  1.
         11   -1    0    0    0    0 -0.00000000000E+00 -0.00000000000E+00 -0.45593999997E+02  0.45594000000E+02  0.51100000000E-03 0. -1.
    9900012    2    1    2    0    0 -0.12633718902E-01 -0.11127115941E+01 -0.39344824447E+00  0.90007708416E+02  0.89999969367E+02 0.  0.
        -12    1    1    2    0    0  0.12633718902E-01  0.11127115941E+01  0.39344824447E+00  0.11802915842E+01  0.00000000000E+00 0.  1.
         11    1    3    3    0    0 -0.73257079733E+01  0.67173879347E+01  0.42574298397E+01  0.10812724313E+02  0.51100000000E-03 0. -1.
        -11    1    3    3    0    0  0.24769166439E+02  0.27681072353E+02  0.73091829941E+01  0.37857331245E+02  0.51100000000E-03 0.  1.
         12    1    3    3    0    0 -0.17456092184E+02 -0.35511171882E+02 -0.11960061078E+02  0.41337652858E+02  0.00000000000E+00 0. -1.
</event>
<event>
 7    1  0.3925070E-015  0.9000764E+02  0.7816164E-02  0.1186339E+00
        -11   -1    0    0    0    0  0.00000000000E+00  0.00000000000E+00  0.45593999997E+02  0.45594000000E+02  0.51100000000E-03 0.  1.
         11   -1    0    0    0    0 -0.00000000000E+00 -0.00000000000E+00 -0.45593999997E+02  0.45594000000E+02  0.51100000000E-03 0. -1.
    9900012    2    1    2    0    0  0.20393561681E-01 -0.91724312358E+00 -0.74262795828E+00  0.90007641101E+02  0.89999901164E+02 0.  0.
        -12    1    1    2    0    0 -0.20393561681E-01  0.91724312358E+00  0.74262795828E+00  0.11803588986E+01  0.00000000000E+00 0.  1.
         11    1    3    3    0    0  0.30556784313E+01 -0.37844924071E+01  0.74841840347E+01  0.89259489345E+01  0.51100000000E-03 0. -1.
        -11    1    3    3    0    0  0.34657996821E+02 -0.78210475724E+01  0.11330307625E+02  0.37292377236E+02  0.51100000000E-03 0.  1.
         12    1    3    3    0    0 -0.37693281691E+02  0.10688296856E+02 -0.19557119618E+02  0.43789314930E+02  0.00000000000E+00 0. -1.
</event>
<event>
 7    1  0.3925070E-015  0.9000776E+02  0.7816164E-02  0.1186339E+00
        -11   -1    0    0    0    0  0.00000000000E+00  0.00000000000E+00  0.45593999997E+02  0.45594000000E+02  0.51100000000E-03 0. -1.
         11   -1    0    0    0    0 -0.00000000000E+00 -0.00000000000E+00 -0.45593999997E+02  0.45594000000E+02  0.51100000000E-03 0.  1.
    9900012    2    1    2    0    0  0.39707239173E+00  0.11109250242E+01  0.33854441465E-01  0.90007759763E+02  0.90000021392E+02 0.  0.
        -12    1    1    2    0    0 -0.39707239173E+00 -0.11109250242E+01 -0.33854441465E-01  0.11802402369E+01  0.00000000000E+00 0.  1.
         11    1    3    3    0    0  0.11149054140E+02 -0.35730655373E+02  0.11640589286E+02  0.39198016032E+02  0.51100000000E-03 0. -1.
        -11    1    3    3    0    0  0.91606304564E+01  0.53352581306E+01  0.26122357713E+01  0.10918145706E+02  0.51100000000E-03 0.  1.
        -12    1    3    3    0    0 -0.19912612205E+02  0.31506322267E+02 -0.14218970616E+02  0.39891598025E+02  0.00000000000E+00 0.  1.
</event>
<event>
 7    1  0.3925070E-015  0.9000800E+02  0.7816164E-02  0.1186339E+00
        -11   -1    0    0    0    0  0.00000000000E+00  0.00000000000E+00  0.45593999997E+02  0.45594000000E+02  0.51100000000E-03 0. -1.
         11   -1    0    0    0    0 -0.00000000000E+00 -0.00000000000E+00 -0.45593999997E+02  0.45594000000E+02  0.51100000000E-03 0.  1.
    9900012    2    1    2    0    0  0.10682385764E+01  0.49259434649E+00  0.92767017589E-01  0.90008004845E+02  0.90000269709E+02 0.  0.
        -12    1    1    2    0    0 -0.10682385764E+01 -0.49259434649E+00 -0.92767017589E-01  0.11799951550E+01  0.00000000000E+00 0.  1.
         11    1    3    3    0    0  0.12209435820E+01  0.76437571307E+01  0.28366412904E+01  0.82440439334E+01  0.51100000000E-03 0. -1.
        -11    1    3    3    0    0  0.31427423859E+02 -0.13358115610E+02 -0.25268241658E+02  0.42480657479E+02  0.51100000000E-03 0.  1.
         12    1    3    3    0    0 -0.31580128865E+02  0.62069528257E+01  0.22524367386E+02  0.39283303433E+02  0.00000000000E+00 0. -1.
</event>
<event>
 7    1  0.3925070E-015  0.9000857E+02  0.7816164E-02  0.1186337E+00
        -11   -1    0    0    0    0  0.00000000000E+00  0.00000000000E+00  0.45593999997E+02  0.45594000000E+02  0.51100000000E-03 0.  1.
         11   -1    0    0    0    0 -0.00000000000E+00 -0.00000000000E+00 -0.45593999997E+02  0.45594000000E+02  0.51100000000E-03 0. -1.
    9900012    2    1    2    0    0 -0.28859318658E+00  0.75789318964E+00 -0.85637512129E+00  0.90008565194E+02  0.90000837450E+02 0.  0.
        -12    1    1    2    0    0  0.28859318658E+00 -0.75789318964E+00  0.85637512129E+00  0.11794348064E+01  0.00000000000E+00 0.  1.
         11    1    3    3    0    0  0.67966901306E+01  0.50330488214E+01  0.42105119213E+01  0.94474858068E+01  0.51100000000E-03 0. -1.
        -11    1    3    3    0    0 -0.94081776006E+00 -0.20470877736E+02  0.32939303093E+02  0.38793551808E+02  0.51100000000E-03 0.  1.
         12    1    3    3    0    0 -0.61444655571E+01  0.16195722104E+02 -0.38006190135E+02  0.41767527579E+02  0.00000000000E+00 0. -1.
</event>
<event>
 7    1  0.3925070E-015  0.9000775E+02  0.7816164E-02  0.1186339E+00
        -11   -1    0    0    0    0  0.00000000000E+00  0.00000000000E+00  0.45593999997E+02  0.45594000000E+02  0.51100000000E-03 0. -1.
         11   -1    0    0    0    0 -0.00000000000E+00 -0.00000000000E+00 -0.45593999997E+02  0.45594000000E+02  0.51100000000E-03 0.  1.
    9900012    2    1    2    0    0 -0.35824409732E+00 -0.79941773134E+00 -0.79094034905E+00  0.90007748256E+02  0.90000009733E+02 0.  0.
        -12    1    1    2    0    0  0.35824409732E+00  0.79941773134E+00  0.79094034905E+00  0.11802517436E+01  0.00000000000E+00 0.  1.
         11    1    3    3    0    0 -0.56362767339E+01  0.76349277465E+01 -0.25576390612E+01  0.98285937419E+01  0.51100000000E-03 0. -1.
        -11    1    3    3    0    0 -0.26757946971E+02 -0.36357670508E+01 -0.26020720863E+02  0.37500459232E+02  0.51100000000E-03 0.  1.
         12    1    3    3    0    0  0.32035979607E+02 -0.47985784270E+01  0.27787419576E+02  0.42678695282E+02  0.00000000000E+00 0. -1.
</event>
<event>
 7    1  0.3925070E-015  0.9000773E+02  0.7816164E-02  0.1186339E+00
        -11   -1    0    0    0    0  0.00000000000E+00  0.00000000000E+00  0.45593999997E+02  0.45594000000E+02  0.51100000000E-03 0. -1.
         11   -1    0    0    0    0 -0.00000000000E+00 -0.00000000000E+00 -0.45593999997E+02  0.45594000000E+02  0.51100000000E-03 0.  1.
    9900012    2    1    2    0    0 -0.37552284424E+00  0.36102873419E+00  0.10590947418E+01  0.90007728495E+02  0.89999989711E+02 0.  0.
        -12    1    1    2    0    0  0.37552284424E+00 -0.36102873419E+00 -0.10590947418E+01  0.11802715050E+01  0.00000000000E+00 0.  1.
         11    1    3    3    0    0 -0.64143467389E+01  0.18435336325E+01  0.38537251802E+01  0.77067281233E+01  0.51100000000E-03 0. -1.
        -11    1    3    3    0    0  0.14657508798E+02  0.38175297970E+02  0.42421141934E+01  0.41111938319E+02  0.51100000000E-03 0.  1.
         12    1    3    3    0    0 -0.86186849032E+01 -0.39657802868E+02 -0.70367446318E+01  0.41189062053E+02  0.00000000000E+00 0. -1.
</event>
<event>
 7    1  0.3925070E-015  0.9000790E+02  0.7816164E-02  0.1186339E+00
        -11   -1    0    0    0    0  0.00000000000E+00  0.00000000000E+00  0.45593999997E+02  0.45594000000E+02  0.51100000000E-03 0.  1.
         11   -1    0    0    0    0 -0.00000000000E+00 -0.00000000000E+00 -0.45593999997E+02  0.45594000000E+02  0.51100000000E-03 0. -1.
    9900012    2    1    2    0    0 -0.66033836702E+00 -0.50801912368E+00  0.83576486772E+00  0.90007901232E+02  0.90000164728E+02 0.  0.
        -12    1    1    2    0    0  0.66033836702E+00  0.50801912368E+00 -0.83576486772E+00  0.11800987684E+01  0.00000000000E+00 0.  1.
         11    1    3    3    0    0  0.10471067758E+02 -0.36502545519E+02 -0.24562253737E+01  0.38054068544E+02  0.51100000000E-03 0. -1.
        -11    1    3    3    0    0 -0.53169792751E+01 -0.50123864877E+01  0.73179975924E+01  0.10341536440E+02  0.51100000000E-03 0.  1.
        -12    1    3    3    0    0 -0.58144268501E+01  0.41006912883E+02 -0.40260073510E+01  0.41612296248E+02  0.00000000000E+00 0.  1.
</event>
<event>
 7    1  0.3925070E-015  0.9000775E+02  0.7816164E-02  0.1186339E+00
        -11   -1    0    0    0    0  0.00000000000E+00  0.00000000000E+00  0.45593999997E+02  0.45594000000E+02  0.51100000000E-03 0. -1.
         11   -1    0    0    0    0 -0.00000000000E+00 -0.00000000000E+00 -0.45593999997E+02  0.45594000000E+02  0.51100000000E-03 0.  1.
    9900012    2    1    2    0    0  0.51102824045E-01  0.11790533141E+01 -0.14250601121E-01  0.90007753714E+02  0.90000015263E+02 0.  0.
        -12    1    1    2    0    0 -0.51102824045E-01 -0.11790533141E+01  0.14250601121E-01  0.11802462861E+01  0.00000000000E+00 0.  1.
         11    1    3    3    0    0 -0.25589110676E+02 -0.23802096170E+02  0.13813416823E+02  0.37578622272E+02  0.51100000000E-03 0. -1.
        -11    1    3    3    0    0  0.66146517410E+01  0.86624737379E+01  0.12155669091E+02  0.16326431338E+02  0.51100000000E-03 0.  1.
        -12    1    3    3    0    0  0.19025561759E+02  0.16318675747E+02 -0.25983336515E+02  0.36102700104E+02  0.00000000000E+00 0.  1.
</event>
<event>
 7    1  0.3925070E-015  0.9000775E+02  0.7816164E-02  0.1186339E+00
        -11   -1    0    0    0    0  0.00000000000E+00  0.00000000000E+00  0.45593999997E+02  0.45594000000E+02  0.51100000000E-03 0.  1.
         11   -1    0    0    0    0 -0.00000000000E+00 -0.00000000000E+00 -0.45593999997E+02  0.45594000000E+02  0.51100000000E-03 0. -1.
    9900012    2    1    2    0    0  0.11571644875E+01  0.12328454038E-01  0.23198442893E+00  0.90007746461E+02  0.90000007914E+02 0.  0.
        -12    1    1    2    0    0 -0.11571644875E+01 -0.12328454038E-01 -0.23198442893E+00  0.11802535394E+01  0.00000000000E+00 0.  1.
         11    1    3    3    0    0  0.14891098597E+01 -0.42260692735E+01 -0.36551286753E+02  0.36824905611E+02  0.51100000000E-03 0. -1.
        -11    1    3    3    0    0  0.11361394607E+01  0.54617908590E+01 -0.72277790128E+01  0.91303210229E+01  0.51100000000E-03 0.  1.
        -12    1    3    3    0    0 -0.14680848329E+01 -0.12233931315E+01  0.44011050195E+02  0.44052519827E+02  0.00000000000E+00 0.  1.
</event>
<event>
 7    1  0.4213437E-015  0.9000784E+02  0.7816164E-02  0.1186339E+00
        -11   -1    0    0    0    0  0.00000000000E+00  0.00000000000E+00  0.45593999997E+02  0.45594000000E+02  0.51100000000E-03 0.  1.
         11   -1    0    0    0    0 -0.00000000000E+00 -0.00000000000E+00 -0.45593999997E+02  0.45594000000E+02  0.51100000000E-03 0. -1.
    9900012    2    1    2    0    0 -0.52037796876E+00 -0.70864971250E+00 -0.78727236760E+00  0.90007840932E+02  0.90000103632E+02 0.  0.
        -12    1    1    2    0    0  0.52037796876E+00  0.70864971250E+00  0.78727236760E+00  0.11801590682E+01  0.00000000000E+00 0.  1.
         11    1    3    3    0    0  0.32808217248E+02 -0.10189548262E+02 -0.19962750762E+02  0.39733077291E+02  0.51100000000E-03 0. -1.
        -11    1    3    3    0    0  0.53876214295E+01  0.40881083717E+01  0.59505770538E+01  0.90082441275E+01  0.51100000000E-03 0.  1.
        -12    1    3    3    0    0 -0.38716216646E+02  0.53927901779E+01  0.13224901341E+02  0.41266519513E+02  0.00000000000E+00 0.  1.
</event>
<event>
 7    1  0.3925070E-015  0.9000769E+02  0.7816164E-02  0.1186339E+00
        -11   -1    0    0    0    0  0.00000000000E+00  0.00000000000E+00  0.45593999997E+02  0.45594000000E+02  0.51100000000E-03 0. -1.
         11   -1    0    0    0    0 -0.00000000000E+00 -0.00000000000E+00 -0.45593999997E+02  0.45594000000E+02  0.51100000000E-03 0.  1.
    9900012    2    1    2    0    0  0.14378539491E+00  0.15909651205E+00  0.11606628276E+01  0.90007693201E+02  0.89999953951E+02 0.  0.
        -12    1    1    2    0    0 -0.14378539491E+00 -0.15909651205E+00 -0.11606628276E+01  0.11803067988E+01  0.00000000000E+00 0.  1.
         11    1    3    3    0    0 -0.69442955656E+01  0.41341038913E+02 -0.21299303243E+01  0.41974293832E+02  0.51100000000E-03 0. -1.
        -11    1    3    3    0    0 -0.49262906594E+01 -0.65396403383E+01 -0.60685019121E+01  0.10191268377E+02  0.51100000000E-03 0.  1.
        -12    1    3    3    0    0  0.12014371620E+02 -0.34642302062E+02  0.93590950640E+01  0.37842130992E+02  0.00000000000E+00 0.  1.
</event>
<event>
 7    1  0.3925070E-015  0.9000778E+02  0.7816164E-02  0.1186339E+00
        -11   -1    0    0    0    0  0.00000000000E+00  0.00000000000E+00  0.45593999997E+02  0.45594000000E+02  0.51100000000E-03 0. -1.
         11   -1    0    0    0    0 -0.00000000000E+00 -0.00000000000E+00 -0.45593999997E+02  0.45594000000E+02  0.51100000000E-03 0.  1.
    9900012    2    1    2    0    0  0.47368379581E+00 -0.87137265544E+00  0.63972547226E+00  0.90007781663E+02  0.90000043581E+02 0.  0.
        -12    1    1    2    0    0 -0.47368379581E+00  0.87137265544E+00 -0.63972547226E+00  0.11802183370E+01  0.00000000000E+00 0.  1.
         11    1    3    3    0    0 -0.46322723366E+01  0.16117839465E+01 -0.66619359284E+01  0.82726770193E+01  0.51100000000E-03 0. -1.
        -11    1    3    3    0    0  0.20487157846E+01 -0.84375407989E+01 -0.36452309108E+02  0.37472125248E+02  0.51100000000E-03 0.  1.
         12    1    3    3    0    0  0.30572403478E+01  0.59543841970E+01  0.43753970508E+02  0.44262979395E+02  0.00000000000E+00 0. -1.
</event>
<event>
 7    1  0.3925070E-015  0.9000772E+02  0.7816164E-02  0.1186339E+00
        -11   -1    0    0    0    0  0.00000000000E+00  0.00000000000E+00  0.45593999997E+02  0.45594000000E+02  0.51100000000E-03 0. -1.
         11   -1    0    0    0    0 -0.00000000000E+00 -0.00000000000E+00 -0.45593999997E+02  0.45594000000E+02  0.51100000000E-03 0.  1.
    9900012    2    1    2    0    0 -0.10556137873E+01 -0.17676153511E+00  0.49748575079E+00  0.90007721567E+02  0.89999982691E+02 0.  0.
        -12    1    1    2    0    0  0.10556137873E+01  0.17676153511E+00 -0.49748575079E+00  0.11802784335E+01  0.00000000000E+00 0.  1.
         11    1    3    3    0    0  0.26052928728E+02  0.25546793085E+02 -0.92213701709E+00  0.36499918755E+02  0.51100000000E-03 0. -1.
        -11    1    3    3    0    0  0.82190916150E+01 -0.16657023862E+01 -0.57516286439E+01  0.10169034553E+02  0.51100000000E-03 0.  1.
        -12    1    3    3    0    0 -0.35327634130E+02 -0.24057852234E+02  0.71712514118E+01  0.43338768258E+02  0.00000000000E+00 0.  1.
</event>
<event>
 7    1  0.3925070E-015  0.9000771E+02  0.7816164E-02  0.1186339E+00
        -11   -1    0    0    0    0  0.00000000000E+00  0.00000000000E+00  0.45593999997E+02  0.45594000000E+02  0.51100000000E-03 0.  1.
         11   -1    0    0    0    0 -0.00000000000E+00 -0.00000000000E+00 -0.45593999997E+02  0.45594000000E+02  0.51100000000E-03 0. -1.
    9900012    2    1    2    0    0 -0.95889428613E+00  0.14787808267E+00 -0.67212298609E+00  0.90007705339E+02  0.89999966249E+02 0.  0.
        -12    1    1    2    0    0  0.95889428613E+00 -0.14787808267E+00  0.67212298609E+00  0.11802946614E+01  0.00000000000E+00 0.  1.
         11    1    3    3    0    0  0.58875018675E+01 -0.72677235891E+01  0.35515795038E+01  0.10004808926E+02  0.51100000000E-03 0. -1.
        -11    1    3    3    0    0  0.28175006742E+02  0.26037056145E+02 -0.10666444239E+02  0.39818743458E+02  0.51100000000E-03 0.  1.
         12    1    3    3    0    0 -0.35021402896E+02 -0.18621454473E+02  0.64427417495E+01  0.40184152955E+02  0.00000000000E+00 0. -1.
</event>
<event>
 7    1  0.3925070E-015  0.9000776E+02  0.7816164E-02  0.1186339E+00
        -11   -1    0    0    0    0  0.00000000000E+00  0.00000000000E+00  0.45593999997E+02  0.45594000000E+02  0.51100000000E-03 0.  1.
         11   -1    0    0    0    0 -0.00000000000E+00 -0.00000000000E+00 -0.45593999997E+02  0.45594000000E+02  0.51100000000E-03 0. -1.
    9900012    2    1    2    0    0  0.46280165853E+00 -0.79228945226E+00  0.74232782835E+00  0.90007763347E+02  0.90000025024E+02 0.  0.
        -12    1    1    2    0    0 -0.46280165853E+00  0.79228945226E+00 -0.74232782835E+00  0.11802366526E+01  0.00000000000E+00 0.  1.
         11    1    3    3    0    0  0.19319506267E+02  0.27103678890E+02 -0.23514291464E+02  0.40752602801E+02  0.51100000000E-03 0. -1.
        -11    1    3    3    0    0  0.37586631958E+01 -0.54900328031E+01 -0.30443433604E+01  0.73168323717E+01  0.51100000000E-03 0.  1.
        -12    1    3    3    0    0 -0.22615367804E+02 -0.22405935539E+02  0.27300962653E+02  0.41938328174E+02  0.00000000000E+00 0.  1.
</event>
<event>
 7    1  0.3925070E-015  0.9000729E+02  0.7816164E-02  0.1186340E+00
        -11   -1    0    0    0    0  0.00000000000E+00  0.00000000000E+00  0.45593999997E+02  0.45594000000E+02  0.51100000000E-03 0. -1.
         11   -1    0    0    0    0 -0.00000000000E+00 -0.00000000000E+00 -0.45593999997E+02  0.45594000000E+02  0.51100000000E-03 0.  1.
    9900012    2    1    2    0    0 -0.13169380816E+00 -0.11569649676E+01  0.19536161578E+00  0.90007289470E+02  0.89999544890E+02 0.  0.
        -12    1    1    2    0    0  0.13169380816E+00  0.11569649676E+01 -0.19536161578E+00  0.11807105302E+01  0.00000000000E+00 0.  1.
         11    1    3    3    0    0  0.87939647166E+01  0.18187830184E+02  0.33108681980E+02  0.38785510245E+02  0.51100000000E-03 0. -1.
        -11    1    3    3    0    0  0.79043888004E+01  0.45317786256E+01 -0.34809054590E+01  0.97536189640E+01  0.51100000000E-03 0.  1.
        -12    1    3    3    0    0 -0.16830047325E+02 -0.23876573777E+02 -0.29432414905E+02  0.41468160261E+02  0.00000000000E+00 0.  1.
</event>
<event>
 7    1  0.3925070E-015  0.9000782E+02  0.7816164E-02  0.1186339E+00
        -11   -1    0    0    0    0  0.00000000000E+00  0.00000000000E+00  0.45593999997E+02  0.45594000000E+02  0.51100000000E-03 0.  1.
         11   -1    0    0    0    0 -0.00000000000E+00 -0.00000000000E+00 -0.45593999997E+02  0.45594000000E+02  0.51100000000E-03 0. -1.
    9900012    2    1    2    0    0 -0.52391215444E+00 -0.41843060120E+00 -0.97121207391E+00  0.90007821621E+02  0.90000084066E+02 0.  0.
        -12    1    1    2    0    0  0.52391215444E+00  0.41843060120E+00  0.97121207391E+00  0.11801783789E+01  0.00000000000E+00 0.  1.
         11    1    3    3    0    0 -0.23712991237E+02  0.23096692042E+02 -0.16092796728E+02  0.36806809744E+02  0.51100000000E-03 0. -1.
        -11    1    3    3    0    0 -0.95250503300E+01  0.15870495015E+01  0.14868808566E+01  0.97701650371E+01  0.51100000000E-03 0.  1.
        -12    1    3    3    0    0  0.32714129413E+02 -0.25102172145E+02  0.13634703798E+02  0.43430846840E+02  0.00000000000E+00 0.  1.
</event>
<event>
 7    1  0.3925070E-015  0.9000811E+02  0.7816164E-02  0.1186338E+00
        -11   -1    0    0    0    0  0.00000000000E+00  0.00000000000E+00  0.45593999997E+02  0.45594000000E+02  0.51100000000E-03 0.  1.
         11   -1    0    0    0    0 -0.00000000000E+00 -0.00000000000E+00 -0.45593999997E+02  0.45594000000E+02  0.51100000000E-03 0. -1.
    9900012    2    1    2    0    0  0.10552226576E+01  0.36819035711E+00 -0.37825703371E+00  0.90008111285E+02  0.90000377553E+02 0.  0.
        -12    1    1    2    0    0 -0.10552226576E+01 -0.36819035711E+00  0.37825703371E+00  0.11798887150E+01  0.00000000000E+00 0.  1.
         11    1    3    3    0    0  0.11715107835E+02  0.28131156257E+02 -0.30446977599E+02  0.43076956127E+02  0.51100000000E-03 0. -1.
        -11    1    3    3    0    0 -0.62346190950E+01  0.51364180616E+00  0.10627086447E+02  0.12331636947E+02  0.51100000000E-03 0.  1.
        -12    1    3    3    0    0 -0.44252660826E+01 -0.28276607706E+02  0.19441634118E+02  0.34599518211E+02  0.00000000000E+00 0.  1.
</event>
<event>
 7    1  0.3925070E-015  0.9000776E+02  0.7816164E-02  0.1186339E+00
        -11   -1    0    0    0    0  0.00000000000E+00  0.00000000000E+00  0.45593999997E+02  0.45594000000E+02  0.51100000000E-03 0.  1.
         11   -1    0    0    0    0 -0.00000000000E+00 -0.00000000000E+00 -0.45593999997E+02  0.45594000000E+02  0.51100000000E-03 0. -1.
    9900012    2    1    2    0    0  0.83407658176E+00 -0.30248405865E+00 -0.77832683681E+00  0.90007757222E+02  0.90000018817E+02 0.  0.
        -12    1    1    2    0    0 -0.83407658176E+00  0.30248405865E+00  0.77832683681E+00  0.11802427779E+01  0.00000000000E+00 0.  1.
         11    1    3    3    0    0  0.18408413213E+01  0.11980857335E+02 -0.22268462089E+01  0.12324304587E+02  0.51100000000E-03 0. -1.
        -11    1    3    3    0    0 -0.59368534363E+01  0.46994329661E+01 -0.35724715785E+02  0.36518299756E+02  0.51100000000E-03 0.  1.
         12    1    3    3    0    0  0.49300886967E+01 -0.16982774360E+02  0.37173235157E+02  0.41165152879E+02  0.00000000000E+00 0. -1.
</event>
<event>
 7    1  0.3925070E-015  0.9000766E+02  0.7816164E-02  0.1186339E+00
        -11   -1    0    0    0    0  0.00000000000E+00  0.00000000000E+00  0.45593999997E+02  0.45594000000E+02  0.51100000000E-03 0.  1.
         11   -1    0    0    0    0 -0.00000000000E+00 -0.00000000000E+00 -0.45593999997E+02  0.45594000000E+02  0.51100000000E-03 0. -1.
    9900012    2    1    2    0    0 -0.48628838521E+00  0.45286471413E-01 -0.10745535128E+01  0.90007664238E+02  0.89999924606E+02 0.  0.
        -12    1    1    2    0    0  0.48628838521E+00 -0.45286471413E-01  0.10745535128E+01  0.11803357616E+01  0.00000000000E+00 0.  1.
         11    1    3    3    0    0  0.23020537110E+01 -0.81259528431E+01 -0.19435039382E+01  0.86664738340E+01  0.51100000000E-03 0. -1.
        -11    1    3    3    0    0 -0.52016294227E+01 -0.87217101348E+01  0.38609178655E+02  0.39922347789E+02  0.51100000000E-03 0.  1.
         12    1    3    3    0    0  0.24132873265E+01  0.16892949449E+02 -0.37740228229E+02  0.41418842616E+02  0.00000000000E+00 0. -1.
</event>
<event>
 7    1  0.5008704E-015  0.9000777E+02  0.7816164E-02  0.1186339E+00
        -11   -1    0    0    0    0  0.00000000000E+00  0.00000000000E+00  0.45593999997E+02  0.45594000000E+02  0.51100000000E-03 0. -1.
         11   -1    0    0    0    0 -0.00000000000E+00 -0.00000000000E+00 -0.45593999997E+02  0.45594000000E+02  0.51100000000E-03 0.  1.
    9900012    2    1    2    0    0 -0.14508196443E+00 -0.11617398708E+01 -0.14917292704E+00  0.90007770842E+02  0.90000032617E+02 0.  0.
        -12    1    1    2    0    0  0.14508196443E+00  0.11617398708E+01  0.14917292704E+00  0.11802291583E+01  0.00000000000E+00 0.  1.
         11    1    3    3    0    0 -0.36046361864E+02 -0.65110734266E+01 -0.48113712679E+00  0.36632851022E+02  0.51100000000E-03 0. -1.
        -11    1    3    3    0    0 -0.63498423032E+01 -0.35725701722E+01 -0.63666222226E+01  0.96756205846E+01  0.51100000000E-03 0.  1.
        -12    1    3    3    0    0  0.42251122203E+02  0.89219037280E+01  0.66985864224E+01  0.43699299235E+02  0.00000000000E+00 0.  1.
</event>
<event>
 7    1  0.3925070E-015  0.9000755E+02  0.7816164E-02  0.1186339E+00
        -11   -1    0    0    0    0  0.00000000000E+00  0.00000000000E+00  0.45593999997E+02  0.45594000000E+02  0.51100000000E-03 0.  1.
         11   -1    0    0    0    0 -0.00000000000E+00 -0.00000000000E+00 -0.45593999997E+02  0.45594000000E+02  0.51100000000E-03 0. -1.
    9900012    2    1    2    0    0 -0.82202019115E+00  0.81979474691E+00 -0.21370666305E+00  0.90007554677E+02  0.89999813599E+02 0.  0.
        -12    1    1    2    0    0  0.82202019115E+00 -0.81979474691E+00  0.21370666305E+00  0.11804453226E+01  0.00000000000E+00 0.  1.
         11    1    3    3    0    0  0.21162154298E+02 -0.29664652578E+02  0.18079759386E+01  0.36484204313E+02  0.51100000000E-03 0. -1.
        -11    1    3    3    0    0  0.70679527365E+00 -0.55992110087E+01 -0.87079895679E+01  0.10376888072E+02  0.51100000000E-03 0.  1.
        -12    1    3    3    0    0 -0.22690969762E+02  0.36083658334E+02  0.66863069663E+01  0.43146462293E+02  0.00000000000E+00 0.  1.
</event>
<event>
 7    1  0.3925070E-015  0.9000754E+02  0.7816164E-02  0.1186339E+00
        -11   -1    0    0    0    0  0.00000000000E+00  0.00000000000E+00  0.45593999997E+02  0.45594000000E+02  0.51100000000E-03 0.  1.
         11   -1    0    0    0    0 -0.00000000000E+00 -0.00000000000E+00 -0.45593999997E+02  0.45594000000E+02  0.51100000000E-03 0. -1.
    9900012    2    1    2    0    0 -0.85562383959E+00 -0.33904701621E+00 -0.73920873394E+00  0.90007544755E+02  0.89999803545E+02 0.  0.
        -12    1    1    2    0    0  0.85562383959E+00  0.33904701621E+00  0.73920873394E+00  0.11804552454E+01  0.00000000000E+00 0.  1.
         11    1    3    3    0    0 -0.51517834092E+01  0.22643517549E+00  0.79104958505E+01  0.94428856843E+01  0.51100000000E-03 0. -1.
        -11    1    3    3    0    0  0.23672757304E+02  0.20686776570E+02  0.22125434019E+02  0.38443165765E+02  0.51100000000E-03 0.  1.
         12    1    3    3    0    0 -0.19376597734E+02 -0.21252258762E+02 -0.30775138604E+02  0.42121493306E+02  0.00000000000E+00 0. -1.
</event>
<event>
 7    1  0.3925070E-015  0.9000768E+02  0.7816164E-02  0.1186339E+00
        -11   -1    0    0    0    0  0.00000000000E+00  0.00000000000E+00  0.45593999997E+02  0.45594000000E+02  0.51100000000E-03 0.  1.
         11   -1    0    0    0    0 -0.00000000000E+00 -0.00000000000E+00 -0.45593999997E+02  0.45594000000E+02  0.51100000000E-03 0. -1.
    9900012    2    1    2    0    0  0.22379622969E+00  0.39502476337E+00  0.10895112284E+01  0.90007676302E+02  0.89999936829E+02 0.  0.
        -12    1    1    2    0    0 -0.22379622969E+00 -0.39502476337E+00 -0.10895112284E+01  0.11803236983E+01  0.00000000000E+00 0.  1.
         11    1    3    3    0    0  0.37123919233E+00 -0.35829722751E+02 -0.13107228067E+01  0.35855611074E+02  0.51100000000E-03 0. -1.
        -11    1    3    3    0    0  0.54095081930E+01 -0.68977527389E+01  0.58462878904E+01  0.10536643398E+02  0.51100000000E-03 0.  1.
        -12    1    3    3    0    0 -0.55569511556E+01  0.43122500253E+02 -0.34460538553E+01  0.43615421830E+02  0.00000000000E+00 0.  1.
</event>
<event>
 7    1  0.3925070E-015  0.9000772E+02  0.7816164E-02  0.1186339E+00
        -11   -1    0    0    0    0  0.00000000000E+00  0.00000000000E+00  0.45593999997E+02  0.45594000000E+02  0.51100000000E-03 0.  1.
         11   -1    0    0    0    0 -0.00000000000E+00 -0.00000000000E+00 -0.45593999997E+02  0.45594000000E+02  0.51100000000E-03 0. -1.
    9900012    2    1    2    0    0 -0.70917134219E+00 -0.93782509633E+00  0.10308403182E+00  0.90007717737E+02  0.89999978811E+02 0.  0.
        -12    1    1    2    0    0  0.70917134219E+00  0.93782509633E+00 -0.10308403182E+00  0.11802822635E+01  0.00000000000E+00 0.  1.
         11    1    3    3    0    0  0.19231034048E+02  0.10541004370E+02 -0.34994392863E+02  0.41298341078E+02  0.51100000000E-03 0. -1.
        -11    1    3    3    0    0 -0.76667836046E+01 -0.37622814999E-01 -0.20602464375E+01  0.79388665413E+01  0.51100000000E-03 0.  1.
        -12    1    3    3    0    0 -0.12273421785E+02 -0.11441206652E+02  0.37157723332E+02  0.40770510117E+02  0.00000000000E+00 0.  1.
</event>
<event>
 7    1  0.3925070E-015  0.9000781E+02  0.7816164E-02  0.1186339E+00
        -11   -1    0    0    0    0  0.00000000000E+00  0.00000000000E+00  0.45593999997E+02  0.45594000000E+02  0.51100000000E-03 0.  1.
         11   -1    0    0    0    0 -0.00000000000E+00 -0.00000000000E+00 -0.45593999997E+02  0.45594000000E+02  0.51100000000E-03 0. -1.
    9900012    2    1    2    0    0 -0.11085759042E+01 -0.99477131630E-02  0.40473275713E+00  0.90007810144E+02  0.90000072437E+02 0.  0.
        -12    1    1    2    0    0  0.11085759042E+01  0.99477131630E-02 -0.40473275713E+00  0.11801898564E+01  0.00000000000E+00 0.  1.
         11    1    3    3    0    0  0.20980625389E+00  0.57584879257E+01  0.66357419475E+01  0.87884738896E+01  0.51100000000E-03 0. -1.
        -11    1    3    3    0    0  0.11278981797E+02 -0.87496808518E+01  0.35108891376E+02  0.37899955136E+02  0.51100000000E-03 0.  1.
         12    1    3    3    0    0 -0.12597363955E+02  0.29812452129E+01 -0.41339900566E+02  0.43319381118E+02  0.00000000000E+00 0. -1.
</event>
<event>
 7    1  0.3925070E-015  0.9000772E+02  0.7816164E-02  0.1186339E+00
        -11   -1    0    0    0    0  0.00000000000E+00  0.00000000000E+00  0.45593999997E+02  0.45594000000E+02  0.51100000000E-03 0.  1.
         11   -1    0    0    0    0 -0.00000000000E+00 -0.00000000000E+00 -0.45593999997E+02  0.45594000000E+02  0.51100000000E-03 0. -1.
    9900012    2    1    2    0    0  0.11746558018E+01 -0.11508565533E+00  0.27605419899E-02  0.90007716737E+02  0.89999977798E+02 0.  0.
        -12    1    1    2    0    0 -0.11746558018E+01  0.11508565533E+00 -0.27605419899E-02  0.11802832632E+01  0.00000000000E+00 0.  1.
         11    1    3    3    0    0  0.44216343508E+01 -0.67509557453E+01  0.68203505274E+01  0.10566145720E+02  0.51100000000E-03 0. -1.
        -11    1    3    3    0    0 -0.13572381965E+02 -0.21520705387E+02  0.25033455880E+02  0.35693475960E+02  0.51100000000E-03 0.  1.
         12    1    3    3    0    0  0.10325403417E+02  0.28156575477E+02 -0.31851045866E+02  0.43748095056E+02  0.00000000000E+00 0. -1.
</event>
<event>
 7    1  0.3925070E-015  0.9000762E+02  0.7816164E-02  0.1186339E+00
        -11   -1    0    0    0    0  0.00000000000E+00  0.00000000000E+00  0.45593999997E+02  0.45594000000E+02  0.51100000000E-03 0.  1.
         11   -1    0    0    0    0 -0.00000000000E+00 -0.00000000000E+00 -0.45593999997E+02  0.45594000000E+02  0.51100000000E-03 0. -1.
    9900012    2    1    2    0    0  0.77219795642E+00  0.14416801068E+00 -0.88102989619E+00  0.90007623883E+02  0.89999883718E+02 0.  0.
        -12    1    1    2    0    0 -0.77219795642E+00 -0.14416801068E+00  0.88102989619E+00  0.11803761168E+01  0.00000000000E+00 0.  1.
         11    1    3    3    0    0  0.35588838412E+02 -0.50521005392E+01 -0.12441014894E+02  0.38037718008E+02  0.51100000000E-03 0. -1.
        -11    1    3    3    0    0  0.71665247893E+01  0.38048374027E+01 -0.87708442986E+00  0.81611973738E+01  0.51100000000E-03 0.  1.
        -12    1    3    3    0    0 -0.41983165245E+02  0.13914311472E+01  0.12437069427E+02  0.43808708502E+02  0.00000000000E+00 0.  1.
</event>
<event>
 7    1  0.7145786E-015  0.9000773E+02  0.7816164E-02  0.1186339E+00
        -11   -1    0    0    0    0  0.00000000000E+00  0.00000000000E+00  0.45593999997E+02  0.45594000000E+02  0.51100000000E-03 0. -1.
         11   -1    0    0    0    0 -0.00000000000E+00 -0.00000000000E+00 -0.45593999997E+02  0.45594000000E+02  0.51100000000E-03 0.  1.
    9900012    2    1    2    0    0  0.32252396159E+00 -0.93201914398E+00  0.64834508074E+00  0.90007731923E+02  0.89999993184E+02 0.  0.
        -12    1    1    2    0    0 -0.32252396159E+00  0.93201914398E+00 -0.64834508074E+00  0.11802680773E+01  0.00000000000E+00 0.  1.
         11    1    3    3    0    0  0.23878915017E+01  0.35042878725E+02 -0.78640681597E+01  0.35993734781E+02  0.51100000000E-03 0. -1.
        -11    1    3    3    0    0  0.53108687112E+01  0.65583766939E+01 -0.36059121999E+01  0.91771582955E+01  0.51100000000E-03 0.  1.
        -12    1    3    3    0    0 -0.73762362513E+01 -0.42533274563E+02  0.12118325440E+02  0.44836838847E+02  0.00000000000E+00 0.  1.
</event>
<event>
 7    1  0.3925070E-015  0.9000766E+02  0.7816164E-02  0.1186339E+00
        -11   -1    0    0    0    0  0.00000000000E+00  0.00000000000E+00  0.45593999997E+02  0.45594000000E+02  0.51100000000E-03 0. -1.
         11   -1    0    0    0    0 -0.00000000000E+00 -0.00000000000E+00 -0.45593999997E+02  0.45594000000E+02  0.51100000000E-03 0.  1.
    9900012    2    1    2    0    0  0.96983827115E+00  0.55584703934E+00  0.37900026556E+00  0.90007663859E+02  0.89999924222E+02 0.  0.
        -12    1    1    2    0    0 -0.96983827115E+00 -0.55584703934E+00 -0.37900026556E+00  0.11803361405E+01  0.00000000000E+00 0.  1.
         11    1    3    3    0    0  0.17572304798E+01 -0.36601733491E+02 -0.71470676812E+01  0.37334371968E+02  0.51100000000E-03 0. -1.
        -11    1    3    3    0    0  0.31032038134E+01 -0.67886935109E+01  0.38593511685E+01  0.84030247646E+01  0.51100000000E-03 0.  1.
        -12    1    3    3    0    0 -0.38905960221E+01  0.43946274042E+02  0.36667167782E+01  0.44270267127E+02  0.00000000000E+00 0.  1.
</event>
<event>
 7    1  0.3925070E-015  0.9000805E+02  0.7816164E-02  0.1186338E+00
        -11   -1    0    0    0    0  0.00000000000E+00  0.00000000000E+00  0.45593999997E+02  0.45594000000E+02  0.51100000000E-03 0. -1.
         11   -1    0    0    0    0 -0.00000000000E+00 -0.00000000000E+00 -0.45593999997E+02  0.45594000000E+02  0.51100000000E-03 0.  1.
    9900012    2    1    2    0    0  0.26229225156E+00 -0.87898769406E+00  0.74219958308E+00  0.90008052199E+02  0.90000317688E+02 0.  0.
        -12    1    1    2    0    0 -0.26229225156E+00  0.87898769406E+00 -0.74219958308E+00  0.11799478008E+01  0.00000000000E+00 0.  1.
         11    1    3    3    0    0 -0.23127097510E+02 -0.26224208318E+02  0.13983215677E+02  0.37657695921E+02  0.51100000000E-03 0. -1.
        -11    1    3    3    0    0 -0.53596171474E+01 -0.42080274166E+01 -0.84317008348E+01  0.10840967205E+02  0.51100000000E-03 0.  1.
        -12    1    3    3    0    0  0.28749006909E+02  0.29553248040E+02 -0.48093152593E+01  0.41509389074E+02  0.00000000000E+00 0.  1.
</event>
<event>
 7    1  0.3925070E-015  0.9000770E+02  0.7816164E-02  0.1186339E+00
        -11   -1    0    0    0    0  0.00000000000E+00  0.00000000000E+00  0.45593999997E+02  0.45594000000E+02  0.51100000000E-03 0.  1.
         11   -1    0    0    0    0 -0.00000000000E+00 -0.00000000000E+00 -0.45593999997E+02  0.45594000000E+02  0.51100000000E-03 0. -1.
    9900012    2    1    2    0    0 -0.37985531875E+00 -0.86675669792E+00 -0.70537638372E+00  0.90007697886E+02  0.89999958699E+02 0.  0.
        -12    1    1    2    0    0  0.37985531875E+00  0.86675669792E+00  0.70537638372E+00  0.11803021136E+01  0.00000000000E+00 0.  1.
         11    1    3    3    0    0 -0.30502744497E+02  0.74684191631E+01 -0.56841561080E+01  0.31914014751E+02  0.51100000000E-03 0. -1.
        -11    1    3    3    0    0 -0.89841483356E+01  0.10502954651E+02 -0.25023460484E+01  0.14045950082E+02  0.51100000000E-03 0.  1.
        -12    1    3    3    0    0  0.39107037514E+02 -0.18838130512E+02  0.74811257727E+01  0.44047733053E+02  0.00000000000E+00 0.  1.
</event>
<event>
 7    1  0.3925070E-015  0.9000742E+02  0.7816164E-02  0.1186340E+00
        -11   -1    0    0    0    0  0.00000000000E+00  0.00000000000E+00  0.45593999997E+02  0.45594000000E+02  0.51100000000E-03 0.  1.
         11   -1    0    0    0    0 -0.00000000000E+00 -0.00000000000E+00 -0.45593999997E+02  0.45594000000E+02  0.51100000000E-03 0. -1.
    9900012    2    1    2    0    0  0.96311378425E-01 -0.10985159467E+01 -0.42159964462E+00  0.90007424112E+02  0.89999681310E+02 0.  0.
        -12    1    1    2    0    0 -0.96311378425E-01  0.10985159467E+01  0.42159964462E+00  0.11805758879E+01  0.00000000000E+00 0.  1.
         11    1    3    3    0    0  0.34827041155E+01 -0.16129296547E+01  0.91629928042E+01  0.99343448409E+01  0.51100000000E-03 0. -1.
        -11    1    3    3    0    0  0.37387309152E+02 -0.67905801828E+01 -0.28434224976E+01  0.38105221645E+02  0.51100000000E-03 0.  1.
         12    1    3    3    0    0 -0.40773701889E+02  0.73049938908E+01 -0.67411699512E+01  0.41967857627E+02  0.00000000000E+00 0. -1.
</event>
<event>
 7    1  0.3925070E-015  0.9000779E+02  0.7816164E-02  0.1186339E+00
        -11   -1    0    0    0    0  0.00000000000E+00  0.00000000000E+00  0.45593999997E+02  0.45594000000E+02  0.51100000000E-03 0.  1.
         11   -1    0    0    0    0 -0.00000000000E+00 -0.00000000000E+00 -0.45593999997E+02  0.45594000000E+02  0.51100000000E-03 0. -1.
    9900012    2    1    2    0    0 -0.70580321012E+00 -0.66909448669E+00 -0.66861245403E+00  0.90007793146E+02  0.90000055216E+02 0.  0.
        -12    1    1    2    0    0  0.70580321012E+00  0.66909448669E+00  0.66861245403E+00  0.11802068536E+01  0.00000000000E+00 0.  1.
         11    1    3    3    0    0 -0.15173316280E+02 -0.25039220982E+02 -0.13226375735E+02  0.32126766561E+02  0.51100000000E-03 0. -1.
        -11    1    3    3    0    0  0.25481653071E+02 -0.17348862497E+01 -0.27303357837E+01  0.25686167626E+02  0.51100000000E-03 0.  1.
        -12    1    3    3    0    0 -0.11014140002E+02  0.26105012745E+02  0.15288099065E+02  0.32194858959E+02  0.00000000000E+00 0.  1.
</event>
<event>
 7    1  0.3925070E-015  0.9000779E+02  0.7816164E-02  0.1186339E+00
        -11   -1    0    0    0    0  0.00000000000E+00  0.00000000000E+00  0.45593999997E+02  0.45594000000E+02  0.51100000000E-03 0.  1.
         11   -1    0    0    0    0 -0.00000000000E+00 -0.00000000000E+00 -0.45593999997E+02  0.45594000000E+02  0.51100000000E-03 0. -1.
    9900012    2    1    2    0    0 -0.10902673166E+00  0.10696080555E+01 -0.48676856207E+00  0.90007791606E+02  0.90000053655E+02 0.  0.
        -12    1    1    2    0    0  0.10902673166E+00 -0.10696080555E+01  0.48676856207E+00  0.11802083941E+01  0.00000000000E+00 0.  1.
         11    1    3    3    0    0  0.87682853431E+01  0.66708913219E+00  0.27024767695E+01  0.91995226354E+01  0.51100000000E-03 0. -1.
        -11    1    3    3    0    0  0.31947585325E+02 -0.16757436204E+02 -0.53529312804E+01  0.36470724558E+02  0.51100000000E-03 0.  1.
         12    1    3    3    0    0 -0.40824897400E+02  0.17159955127E+02  0.21636859488E+01  0.44337544413E+02  0.00000000000E+00 0. -1.
</event>
<event>
 7    1  0.4005250E-015  0.9000770E+02  0.7816164E-02  0.1186339E+00
        -11   -1    0    0    0    0  0.00000000000E+00  0.00000000000E+00  0.45593999997E+02  0.45594000000E+02  0.51100000000E-03 0. -1.
         11   -1    0    0    0    0 -0.00000000000E+00 -0.00000000000E+00 -0.45593999997E+02  0.45594000000E+02  0.51100000000E-03 0.  1.
    9900012    2    1    2    0    0 -0.61302229379E+00 -0.10049423534E+01  0.86002270447E-01  0.90007702640E+02  0.89999963515E+02 0.  0.
        -12    1    1    2    0    0  0.61302229379E+00  0.10049423534E+01 -0.86002270447E-01  0.11802973595E+01  0.00000000000E+00 0.  1.
         11    1    3    3    0    0 -0.33058583870E+02  0.38842767645E+01  0.24154782912E+02  0.41126768792E+02  0.51100000000E-03 0. -1.
        -11    1    3    3    0    0 -0.82809302146E+00  0.69383704904E+01 -0.60168505880E+01  0.92211286931E+01  0.51100000000E-03 0.  1.
        -12    1    3    3    0    0  0.33273654598E+02 -0.11827589608E+02 -0.18051930054E+02  0.39659805155E+02  0.00000000000E+00 0.  1.
</event>
<event>
 7    1  0.3925070E-015  0.9000766E+02  0.7816164E-02  0.1186339E+00
        -11   -1    0    0    0    0  0.00000000000E+00  0.00000000000E+00  0.45593999997E+02  0.45594000000E+02  0.51100000000E-03 0.  1.
         11   -1    0    0    0    0 -0.00000000000E+00 -0.00000000000E+00 -0.45593999997E+02  0.45594000000E+02  0.51100000000E-03 0. -1.
    9900012    2    1    2    0    0  0.52535477763E+00 -0.91983465719E+00 -0.52067746446E+00  0.90007661718E+02  0.89999922052E+02 0.  0.
        -12    1    1    2    0    0 -0.52535477763E+00  0.91983465719E+00  0.52067746446E+00  0.11803382824E+01  0.00000000000E+00 0.  1.
         11    1    3    3    0    0 -0.28181724401E+02 -0.90012471711E+01 -0.15262294219E+02  0.33289182417E+02  0.51100000000E-03 0. -1.
        -11    1    3    3    0    0 -0.38506242339E+01 -0.45980729664E+01 -0.11534882088E+02  0.13000887933E+02  0.51100000000E-03 0.  1.
        -12    1    3    3    0    0  0.32557703413E+02  0.12679485480E+02  0.26276498843E+02  0.43717591368E+02  0.00000000000E+00 0.  1.
</event>
<event>
 7    1  0.3925070E-015  0.9000780E+02  0.7816164E-02  0.1186339E+00
        -11   -1    0    0    0    0  0.00000000000E+00  0.00000000000E+00  0.45593999997E+02  0.45594000000E+02  0.51100000000E-03 0.  1.
         11   -1    0    0    0    0 -0.00000000000E+00 -0.00000000000E+00 -0.45593999997E+02  0.45594000000E+02  0.51100000000E-03 0. -1.
    9900012    2    1    2    0    0 -0.10660441267E+01 -0.31563695873E+00  0.39598301219E+00  0.90007796918E+02  0.90000059037E+02 0.  0.
        -12    1    1    2    0    0  0.10660441267E+01  0.31563695873E+00 -0.39598301219E+00  0.11802030824E+01  0.00000000000E+00 0.  1.
         11    1    3    3    0    0 -0.78610838685E+01 -0.75243813149E+00 -0.18662072504E+01  0.81145260177E+01  0.51100000000E-03 0. -1.
        -11    1    3    3    0    0 -0.22353329663E+02  0.28006327198E+02  0.16327880887E+02  0.39377981216E+02  0.51100000000E-03 0.  1.
         12    1    3    3    0    0  0.29148369405E+02 -0.27569526025E+02 -0.14065690624E+02  0.42515289684E+02  0.00000000000E+00 0. -1.
</event>
<event>
 7    1  0.3925070E-015  0.9000774E+02  0.7816164E-02  0.1186339E+00
        -11   -1    0    0    0    0  0.00000000000E+00  0.00000000000E+00  0.45593999997E+02  0.45594000000E+02  0.51100000000E-03 0. -1.
         11   -1    0    0    0    0 -0.00000000000E+00 -0.00000000000E+00 -0.45593999997E+02  0.45594000000E+02  0.51100000000E-03 0.  1.
    9900012    2    1    2    0    0 -0.10320277018E+01  0.40445159335E+00  0.40539603413E+00  0.90007742311E+02  0.90000003709E+02 0.  0.
        -12    1    1    2    0    0  0.10320277018E+01 -0.40445159335E+00 -0.40539603413E+00  0.11802576893E+01  0.00000000000E+00 0.  1.
         11    1    3    3    0    0 -0.11938562851E+02  0.14420393884E+02  0.46089793047E+01  0.19280034575E+02  0.51100000000E-03 0. -1.
        -11    1    3    3    0    0 -0.33257188743E+01  0.24973160670E+02 -0.12925252826E+02  0.28315743338E+02  0.51100000000E-03 0.  1.
         12    1    3    3    0    0  0.14232254024E+02 -0.38989102961E+02  0.87216695555E+01  0.42411964398E+02  0.00000000000E+00 0. -1.
</event>
<event>
 7    1  0.3925070E-015  0.9000780E+02  0.7816164E-02  0.1186339E+00
        -11   -1    0    0    0    0  0.00000000000E+00  0.00000000000E+00  0.45593999997E+02  0.45594000000E+02  0.51100000000E-03 0. -1.
         11   -1    0    0    0    0 -0.00000000000E+00 -0.00000000000E+00 -0.45593999997E+02  0.45594000000E+02  0.51100000000E-03 0.  1.
    9900012    2    1    2    0    0 -0.43718588477E-01  0.23661236843E+00  0.11554072034E+01  0.90007804027E+02  0.90000066241E+02 0.  0.
        -12    1    1    2    0    0  0.43718588477E-01 -0.23661236843E+00 -0.11554072034E+01  0.11801959726E+01  0.00000000000E+00 0.  1.
         11    1    3    3    0    0  0.10581359077E+02 -0.86880211308E+01 -0.37285265286E+01  0.14189742120E+02  0.51100000000E-03 0. -1.
        -11    1    3    3    0    0 -0.35518834465E+00 -0.20357863551E+02 -0.25335734979E+02  0.32503357278E+02  0.51100000000E-03 0.  1.
         12    1    3    3    0    0 -0.10269889321E+02  0.29282497051E+02  0.30219668711E+02  0.43314704630E+02  0.00000000000E+00 0. -1.
</event>
<event>
 7    1  0.3925070E-015  0.9000782E+02  0.7816164E-02  0.1186339E+00
        -11   -1    0    0    0    0  0.00000000000E+00  0.00000000000E+00  0.45593999997E+02  0.45594000000E+02  0.51100000000E-03 0.  1.
         11   -1    0    0    0    0 -0.00000000000E+00 -0.00000000000E+00 -0.45593999997E+02  0.45594000000E+02  0.51100000000E-03 0. -1.
    9900012    2    1    2    0    0 -0.11461358099E+01 -0.16356695621E+00 -0.22899785416E+00  0.90007821428E+02  0.90000083871E+02 0.  0.
        -12    1    1    2    0    0  0.11461358099E+01  0.16356695621E+00  0.22899785416E+00  0.11801785717E+01  0.00000000000E+00 0.  1.
         11    1    3    3    0    0 -0.78380819275E+01 -0.66628216451E+01  0.42936735686E+01  0.11147392231E+02  0.51100000000E-03 0. -1.
        -11    1    3    3    0    0 -0.17543433124E+01 -0.54373233039E+01  0.35652239246E+02  0.36107123517E+02  0.51100000000E-03 0.  1.
         12    1    3    3    0    0  0.84462894300E+01  0.11936577993E+02 -0.40174910669E+02  0.42753305680E+02  0.00000000000E+00 0. -1.
</event>
<event>
 7    1  0.3925070E-015  0.9000784E+02  0.7816164E-02  0.1186339E+00
        -11   -1    0    0    0    0  0.00000000000E+00  0.00000000000E+00  0.45593999997E+02  0.45594000000E+02  0.51100000000E-03 0.  1.
         11   -1    0    0    0    0 -0.00000000000E+00 -0.00000000000E+00 -0.45593999997E+02  0.45594000000E+02  0.51100000000E-03 0. -1.
    9900012    2    1    2    0    0 -0.80553014845E+00 -0.67385690653E+00 -0.53834655523E+00  0.90007839433E+02  0.90000102113E+02 0.  0.
        -12    1    1    2    0    0  0.80553014845E+00  0.67385690653E+00  0.53834655523E+00  0.11801605671E+01  0.00000000000E+00 0.  1.
         11    1    3    3    0    0 -0.32174941057E+02  0.12641440920E+02  0.14375136708E+02  0.37438982574E+02  0.51100000000E-03 0. -1.
        -11    1    3    3    0    0 -0.77144945293E+01  0.27469439240E+00 -0.70394270209E+01  0.10447124767E+02  0.51100000000E-03 0.  1.
        -12    1    3    3    0    0  0.39083905438E+02 -0.13589992218E+02 -0.78740562420E+01  0.42121732092E+02  0.00000000000E+00 0.  1.
</event>
<event>
 7    1  0.3925070E-015  0.9000769E+02  0.7816164E-02  0.1186339E+00
        -11   -1    0    0    0    0  0.00000000000E+00  0.00000000000E+00  0.45593999997E+02  0.45594000000E+02  0.51100000000E-03 0. -1.
         11   -1    0    0    0    0 -0.00000000000E+00 -0.00000000000E+00 -0.45593999997E+02  0.45594000000E+02  0.51100000000E-03 0.  1.
    9900012    2    1    2    0    0 -0.10944818078E+01  0.21107010575E+00  0.38818487079E+00  0.90007691349E+02  0.89999952075E+02 0.  0.
        -12    1    1    2    0    0  0.10944818078E+01 -0.21107010575E+00 -0.38818487079E+00  0.11803086508E+01  0.00000000000E+00 0.  1.
         11    1    3    3    0    0 -0.33188830870E+01 -0.77228367392E+01  0.33821277759E+01  0.90606832413E+01  0.51100000000E-03 0. -1.
        -11    1    3    3    0    0  0.22193822120E+02 -0.22786587868E+02 -0.22950739147E+02  0.39224109354E+02  0.51100000000E-03 0.  1.
         12    1    3    3    0    0 -0.19969420841E+02  0.30720494713E+02  0.19956796242E+02  0.41722898754E+02  0.00000000000E+00 0. -1.
</event>
<event>
 7    1  0.3925070E-015  0.9000769E+02  0.7816164E-02  0.1186339E+00
        -11   -1    0    0    0    0  0.00000000000E+00  0.00000000000E+00  0.45593999997E+02  0.45594000000E+02  0.51100000000E-03 0. -1.
         11   -1    0    0    0    0 -0.00000000000E+00 -0.00000000000E+00 -0.45593999997E+02  0.45594000000E+02  0.51100000000E-03 0.  1.
    9900012    2    1    2    0    0  0.78647867052E+00 -0.39468040901E+00  0.78664465579E+00  0.90007690236E+02  0.89999950947E+02 0.  0.
        -12    1    1    2    0    0 -0.78647867052E+00  0.39468040901E+00 -0.78664465579E+00  0.11803097640E+01  0.00000000000E+00 0.  1.
         11    1    3    3    0    0  0.83684413344E+01  0.33762840698E+00  0.13628876785E+02  0.15996596075E+02  0.51100000000E-03 0. -1.
        -11    1    3    3    0    0 -0.97913993275E+00  0.35726937692E+02 -0.44099558464E+01  0.36011394067E+02  0.51100000000E-03 0.  1.
         12    1    3    3    0    0 -0.66028227311E+01 -0.36459246508E+02 -0.84322762827E+01  0.37999700094E+02  0.00000000000E+00 0. -1.
</event>
<event>
 7    1  0.3925070E-015  0.9000787E+02  0.7816164E-02  0.1186339E+00
        -11   -1    0    0    0    0  0.00000000000E+00  0.00000000000E+00  0.45593999997E+02  0.45594000000E+02  0.51100000000E-03 0.  1.
         11   -1    0    0    0    0 -0.00000000000E+00 -0.00000000000E+00 -0.45593999997E+02  0.45594000000E+02  0.51100000000E-03 0. -1.
    9900012    2    1    2    0    0 -0.71576979496E+00  0.85372789165E+00 -0.38925224617E+00  0.90007874997E+02  0.90000138147E+02 0.  0.
        -12    1    1    2    0    0  0.71576979496E+00 -0.85372789165E+00  0.38925224617E+00  0.11801250033E+01  0.00000000000E+00 0.  1.
         11    1    3    3    0    0  0.13968362123E+02 -0.29734549030E+01 -0.13547533260E+02  0.19684822381E+02  0.51100000000E-03 0. -1.
        -11    1    3    3    0    0  0.11552809894E+02  0.29166881062E+02 -0.49589655488E+00  0.31375472601E+02  0.51100000000E-03 0.  1.
         12    1    3    3    0    0 -0.26236941812E+02 -0.25339698267E+02  0.13654177569E+02  0.38947580015E+02  0.00000000000E+00 0. -1.
</event>
<event>
 7    1  0.3925070E-015  0.9000787E+02  0.7816164E-02  0.1186339E+00
        -11   -1    0    0    0    0  0.00000000000E+00  0.00000000000E+00  0.45593999997E+02  0.45594000000E+02  0.51100000000E-03 0. -1.
         11   -1    0    0    0    0 -0.00000000000E+00 -0.00000000000E+00 -0.45593999997E+02  0.45594000000E+02  0.51100000000E-03 0.  1.
    9900012    2    1    2    0    0  0.54208201558E+00  0.97740949156E+00 -0.37885108165E+00  0.90007868496E+02  0.90000131560E+02 0.  0.
        -12    1    1    2    0    0 -0.54208201558E+00 -0.97740949156E+00  0.37885108165E+00  0.11801315045E+01  0.00000000000E+00 0.  1.
         11    1    3    3    0    0 -0.48274290024E+01  0.37015480666E+02 -0.30836456378E+01  0.37456090965E+02  0.51100000000E-03 0. -1.
        -11    1    3    3    0    0 -0.39460364612E+01  0.49060861671E+01 -0.70406577034E+01  0.94451970011E+01  0.51100000000E-03 0.  1.
        -12    1    3    3    0    0  0.93155474793E+01 -0.40944157341E+02  0.97454522595E+01  0.43106580530E+02  0.00000000000E+00 0.  1.
</event>
<event>
 7    1  0.3925070E-015  0.9000780E+02  0.7816164E-02  0.1186339E+00
        -11   -1    0    0    0    0  0.00000000000E+00  0.00000000000E+00  0.45593999997E+02  0.45594000000E+02  0.51100000000E-03 0. -1.
         11   -1    0    0    0    0 -0.00000000000E+00 -0.00000000000E+00 -0.45593999997E+02  0.45594000000E+02  0.51100000000E-03 0.  1.
    9900012    2    1    2    0    0 -0.11491674720E+01 -0.21950931421E+00  0.15522669738E+00  0.90007802751E+02  0.90000064948E+02 0.  0.
        -12    1    1    2    0    0  0.11491674720E+01  0.21950931421E+00 -0.15522669738E+00  0.11801972485E+01  0.00000000000E+00 0.  1.
         11    1    3    3    0    0 -0.81545020579E+01 -0.61999628441E+01  0.42101776074E+01  0.11075244414E+02  0.51100000000E-03 0. -1.
        -11    1    3    3    0    0  0.42714834784E+02  0.58509643896E+01 -0.26560363448E+01  0.43195432910E+02  0.51100000000E-03 0.  1.
         12    1    3    3    0    0 -0.35709500199E+02  0.12948914031E+00 -0.13989145652E+01  0.35737125428E+02  0.00000000000E+00 0. -1.
</event>
<event>
 7    1  0.4335473E-015  0.9000765E+02  0.7816164E-02  0.1186339E+00
        -11   -1    0    0    0    0  0.00000000000E+00  0.00000000000E+00  0.45593999997E+02  0.45594000000E+02  0.51100000000E-03 0. -1.
         11   -1    0    0    0    0 -0.00000000000E+00 -0.00000000000E+00 -0.45593999997E+02  0.45594000000E+02  0.51100000000E-03 0.  1.
    9900012    2    1    2    0    0 -0.66641424877E+00  0.25894698580E+00  0.93918733305E+00  0.90007646519E+02  0.89999906653E+02 0.  0.
        -12    1    1    2    0    0  0.66641424877E+00 -0.25894698580E+00 -0.93918733305E+00  0.11803534805E+01  0.00000000000E+00 0.  1.
         11    1    3    3    0    0 -0.40647517857E+01  0.35383723816E+01  0.37618646559E+02  0.38002695370E+02  0.51100000000E-03 0. -1.
        -11    1    3    3    0    0  0.78896518259E+00  0.51127620438E+01  0.62910365528E+01  0.81449335753E+01  0.51100000000E-03 0.  1.
        -12    1    3    3    0    0  0.26093723544E+01 -0.83921874396E+01 -0.42970495779E+02  0.43860017574E+02  0.00000000000E+00 0.  1.
</event>
<event>
 7    1  0.3925070E-015  0.9000768E+02  0.7816164E-02  0.1186339E+00
        -11   -1    0    0    0    0  0.00000000000E+00  0.00000000000E+00  0.45593999997E+02  0.45594000000E+02  0.51100000000E-03 0. -1.
         11   -1    0    0    0    0 -0.00000000000E+00 -0.00000000000E+00 -0.45593999997E+02  0.45594000000E+02  0.51100000000E-03 0.  1.
    9900012    2    1    2    0    0 -0.92850697571E+00 -0.35042098556E-01 -0.72788036678E+00  0.90007676747E+02  0.89999937280E+02 0.  0.
        -12    1    1    2    0    0  0.92850697571E+00  0.35042098556E-01  0.72788036678E+00  0.11803232527E+01  0.00000000000E+00 0.  1.
         11    1    3    3    0    0  0.19735160638E+01  0.88275935916E+01 -0.93135199903E-01  0.90459852254E+01  0.51100000000E-03 0. -1.
        -11    1    3    3    0    0  0.18456246839E+02  0.80925104760E+01 -0.32983165089E+02  0.38652437863E+02  0.51100000000E-03 0.  1.
         12    1    3    3    0    0 -0.21358269878E+02 -0.16955146166E+02  0.32348419922E+02  0.42309253659E+02  0.00000000000E+00 0. -1.
</event>
<event>
 7    1  0.3925070E-015  0.9000767E+02  0.7816164E-02  0.1186339E+00
        -11   -1    0    0    0    0  0.00000000000E+00  0.00000000000E+00  0.45593999997E+02  0.45594000000E+02  0.51100000000E-03 0.  1.
         11   -1    0    0    0    0 -0.00000000000E+00 -0.00000000000E+00 -0.45593999997E+02  0.45594000000E+02  0.51100000000E-03 0. -1.
    9900012    2    1    2    0    0  0.25012770889E+00 -0.10073207323E+01 -0.56206645607E+00  0.90007670542E+02  0.89999930993E+02 0.  0.
        -12    1    1    2    0    0 -0.25012770889E+00  0.10073207323E+01  0.56206645607E+00  0.11803294580E+01  0.00000000000E+00 0.  1.
         11    1    3    3    0    0  0.81920768624E+01  0.92175657328E+01 -0.52352063089E+01  0.13397052912E+02  0.51100000000E-03 0. -1.
        -11    1    3    3    0    0  0.28482285787E+02  0.14186635515E+01 -0.16452494180E+02  0.32923210277E+02  0.51100000000E-03 0.  1.
         12    1    3    3    0    0 -0.36424234941E+02 -0.11643550017E+02  0.21125634032E+02  0.43687407354E+02  0.00000000000E+00 0. -1.
</event>
<event>
 7    1  0.3925070E-015  0.9000777E+02  0.7816164E-02  0.1186339E+00
        -11   -1    0    0    0    0  0.00000000000E+00  0.00000000000E+00  0.45593999997E+02  0.45594000000E+02  0.51100000000E-03 0. -1.
         11   -1    0    0    0    0 -0.00000000000E+00 -0.00000000000E+00 -0.45593999997E+02  0.45594000000E+02  0.51100000000E-03 0.  1.
    9900012    2    1    2    0    0 -0.89219688655E+00  0.42108334811E+00  0.64776915447E+00  0.90007774874E+02  0.90000036702E+02 0.  0.
        -12    1    1    2    0    0  0.89219688655E+00 -0.42108334811E+00 -0.64776915447E+00  0.11802251259E+01  0.00000000000E+00 0.  1.
         11    1    3    3    0    0  0.12011953932E+02 -0.19301829044E+02  0.24801801223E+02  0.33644865669E+02  0.51100000000E-03 0. -1.
        -11    1    3    3    0    0  0.12739721550E+02 -0.31853323092E+01  0.18362376538E+01  0.13259661235E+02  0.51100000000E-03 0.  1.
        -12    1    3    3    0    0 -0.25643872368E+02  0.22908244701E+02 -0.25990269722E+02  0.43103247970E+02  0.00000000000E+00 0.  1.
</event>
<event>
 7    1  0.3925070E-015  0.9000724E+02  0.7816164E-02  0.1186340E+00
        -11   -1    0    0    0    0  0.00000000000E+00  0.00000000000E+00  0.45593999997E+02  0.45594000000E+02  0.51100000000E-03 0. -1.
         11   -1    0    0    0    0 -0.00000000000E+00 -0.00000000000E+00 -0.45593999997E+02  0.45594000000E+02  0.51100000000E-03 0.  1.
    9900012    2    1    2    0    0  0.11268247931E+01  0.10884959194E+00  0.33557643322E+00  0.90007240122E+02  0.89999494890E+02 0.  0.
        -12    1    1    2    0    0 -0.11268247931E+01 -0.10884959194E+00 -0.33557643322E+00  0.11807598785E+01  0.00000000000E+00 0.  1.
         11    1    3    3    0    0  0.41561909412E+01 -0.57107358409E+01  0.53986831449E+01  0.88900060149E+01  0.51100000000E-03 0. -1.
        -11    1    3    3    0    0  0.17779083706E+02  0.34830480804E+01 -0.37994305989E+02  0.42092692111E+02  0.51100000000E-03 0.  1.
         12    1    3    3    0    0 -0.20808449854E+02  0.23365373524E+01  0.32931199277E+02  0.39024541995E+02  0.00000000000E+00 0. -1.
</event>
<event>
 7    1  0.3925070E-015  0.9000774E+02  0.7816164E-02  0.1186339E+00
        -11   -1    0    0    0    0  0.00000000000E+00  0.00000000000E+00  0.45593999997E+02  0.45594000000E+02  0.51100000000E-03 0. -1.
         11   -1    0    0    0    0 -0.00000000000E+00 -0.00000000000E+00 -0.45593999997E+02  0.45594000000E+02  0.51100000000E-03 0.  1.
    9900012    2    1    2    0    0  0.59784216446E-01 -0.18875397079E+00  0.11635376957E+01  0.90007736392E+02  0.89999997713E+02 0.  0.
        -12    1    1    2    0    0 -0.59784216446E-01  0.18875397079E+00 -0.11635376957E+01  0.11802636076E+01  0.00000000000E+00 0.  1.
         11    1    3    3    0    0  0.34520283836E+02  0.36703811668E+01  0.25342056548E+02  0.42980711073E+02  0.51100000000E-03 0. -1.
        -11    1    3    3    0    0 -0.39484341964E+01 -0.74950712289E+01 -0.98537797681E+00  0.85286103996E+01  0.51100000000E-03 0.  1.
        -12    1    3    3    0    0 -0.30512065423E+02  0.36359360913E+01 -0.23193140876E+02  0.38498414920E+02  0.00000000000E+00 0.  1.
</event>
<event>
 7    1  0.3925070E-015  0.9000772E+02  0.7816164E-02  0.1186339E+00
        -11   -1    0    0    0    0  0.00000000000E+00  0.00000000000E+00  0.45593999997E+02  0.45594000000E+02  0.51100000000E-03 0.  1.
         11   -1    0    0    0    0 -0.00000000000E+00 -0.00000000000E+00 -0.45593999997E+02  0.45594000000E+02  0.51100000000E-03 0. -1.
    9900012    2    1    2    0    0  0.11427630589E+01 -0.11366010511E+00  0.27245887995E+00  0.90007720427E+02  0.89999981537E+02 0.  0.
        -12    1    1    2    0    0 -0.11427630589E+01  0.11366010511E+00 -0.27245887995E+00  0.11802795726E+01  0.00000000000E+00 0.  1.
         11    1    3    3    0    0 -0.19600421642E+02  0.28363268913E+02  0.12299871645E+02  0.36605168961E+02  0.51100000000E-03 0. -1.
        -11    1    3    3    0    0 -0.82169658306E-01  0.31963468250E+01  0.93515045418E+01  0.98830168640E+01  0.51100000000E-03 0.  1.
        -12    1    3    3    0    0  0.20825354359E+02 -0.31673275843E+02 -0.21378917306E+02  0.43519534602E+02  0.00000000000E+00 0.  1.
</event>
<event>
 7    1  0.3925070E-015  0.9000779E+02  0.7816164E-02  0.1186339E+00
        -11   -1    0    0    0    0  0.00000000000E+00  0.00000000000E+00  0.45593999997E+02  0.45594000000E+02  0.51100000000E-03 0. -1.
         11   -1    0    0    0    0 -0.00000000000E+00 -0.00000000000E+00 -0.45593999997E+02  0.45594000000E+02  0.51100000000E-03 0.  1.
    9900012    2    1    2    0    0 -0.58796371860E+00 -0.10232797984E+01  0.10131124893E-01  0.90007785816E+02  0.90000047789E+02 0.  0.
        -12    1    1    2    0    0  0.58796371860E+00  0.10232797984E+01 -0.10131124893E-01  0.11802141839E+01  0.00000000000E+00 0.  1.
         11    1    3    3    0    0 -0.15141506807E+02 -0.97767796027E+01  0.75881937826E+00  0.18039580231E+02  0.51100000000E-03 0. -1.
        -11    1    3    3    0    0 -0.22275978519E+02 -0.64522927014E+01 -0.17186462773E+02  0.28865650919E+02  0.51100000000E-03 0.  1.
         12    1    3    3    0    0  0.36829521608E+02  0.15205792506E+02  0.16437774519E+02  0.43102554666E+02  0.00000000000E+00 0. -1.
</event>
<event>
 7    1  0.3925070E-015  0.9000776E+02  0.7816164E-02  0.1186339E+00
        -11   -1    0    0    0    0  0.00000000000E+00  0.00000000000E+00  0.45593999997E+02  0.45594000000E+02  0.51100000000E-03 0. -1.
         11   -1    0    0    0    0 -0.00000000000E+00 -0.00000000000E+00 -0.45593999997E+02  0.45594000000E+02  0.51100000000E-03 0.  1.
    9900012    2    1    2    0    0  0.96079487012E+00 -0.67925413043E+00 -0.91974563598E-01  0.90007757535E+02  0.90000019134E+02 0.  0.
        -12    1    1    2    0    0 -0.96079487012E+00  0.67925413043E+00  0.91974563598E-01  0.11802424651E+01  0.00000000000E+00 0.  1.
         11    1    3    3    0    0  0.27450573250E+02  0.40413522647E+01  0.77777522109E+01  0.28815966574E+02  0.51100000000E-03 0. -1.
        -11    1    3    3    0    0 -0.95218518361E-01  0.22456196911E+02  0.19938754562E+00  0.22457283940E+02  0.51100000000E-03 0.  1.
        -12    1    3    3    0    0 -0.26394559862E+02 -0.27176803307E+02 -0.80691143201E+01  0.38734507021E+02  0.00000000000E+00 0.  1.
</event>
<event>
 7    1  0.3925070E-015  0.9000739E+02  0.7816164E-02  0.1186340E+00
        -11   -1    0    0    0    0  0.00000000000E+00  0.00000000000E+00  0.45593999997E+02  0.45594000000E+02  0.51100000000E-03 0.  1.
         11   -1    0    0    0    0 -0.00000000000E+00 -0.00000000000E+00 -0.45593999997E+02  0.45594000000E+02  0.51100000000E-03 0. -1.
    9900012    2    1    2    0    0  0.79430102951E+00  0.15929676778E+00 -0.85880074819E+00  0.90007394939E+02  0.89999651751E+02 0.  0.
        -12    1    1    2    0    0 -0.79430102951E+00 -0.15929676778E+00  0.85880074819E+00  0.11806050613E+01  0.00000000000E+00 0.  1.
         11    1    3    3    0    0 -0.16847367550E+01  0.29994500017E+02 -0.23062237097E+02  0.37873145491E+02  0.51100000000E-03 0. -1.
        -11    1    3    3    0    0 -0.50199991571E+01  0.39341549312E+01 -0.50185064153E+01  0.81156252662E+01  0.51100000000E-03 0.  1.
        -12    1    3    3    0    0  0.74990369416E+01 -0.33769358180E+02  0.27221942764E+02  0.44018624181E+02  0.00000000000E+00 0.  1.
</event>
<event>
 7    1  0.3925070E-015  0.9000772E+02  0.7816164E-02  0.1186339E+00
        -11   -1    0    0    0    0  0.00000000000E+00  0.00000000000E+00  0.45593999997E+02  0.45594000000E+02  0.51100000000E-03 0. -1.
         11   -1    0    0    0    0 -0.00000000000E+00 -0.00000000000E+00 -0.45593999997E+02  0.45594000000E+02  0.51100000000E-03 0.  1.
    9900012    2    1    2    0    0  0.96409218724E+00 -0.58491812923E+00  0.34849885917E+00  0.90007722737E+02  0.89999983877E+02 0.  0.
        -12    1    1    2    0    0 -0.96409218724E+00  0.58491812923E+00 -0.34849885917E+00  0.11802772633E+01  0.00000000000E+00 0.  1.
         11    1    3    3    0    0 -0.23210437223E+02  0.20722379681E+02 -0.17751126108E+02  0.35822393751E+02  0.51100000000E-03 0. -1.
        -11    1    3    3    0    0 -0.11160082971E+00  0.70696748562E+01 -0.63832877326E+01  0.95257083651E+01  0.51100000000E-03 0.  1.
        -12    1    3    3    0    0  0.24286130240E+02 -0.28376972666E+02  0.24482912700E+02  0.44659620621E+02  0.00000000000E+00 0.  1.
</event>
<event>
 7    1  0.3925070E-015  0.9000769E+02  0.7816164E-02  0.1186339E+00
        -11   -1    0    0    0    0  0.00000000000E+00  0.00000000000E+00  0.45593999997E+02  0.45594000000E+02  0.51100000000E-03 0. -1.
         11   -1    0    0    0    0 -0.00000000000E+00 -0.00000000000E+00 -0.45593999997E+02  0.45594000000E+02  0.51100000000E-03 0.  1.
    9900012    2    1    2    0    0  0.70120728112E+00  0.11301058048E+00  0.94269845528E+00  0.90007685034E+02  0.89999945676E+02 0.  0.
        -12    1    1    2    0    0 -0.70120728112E+00 -0.11301058048E+00 -0.94269845528E+00  0.11803149664E+01  0.00000000000E+00 0.  1.
         11    1    3    3    0    0 -0.10170127894E+01  0.35718727674E+02 -0.74479065297E+01  0.36501138798E+02  0.51100000000E-03 0. -1.
        -11    1    3    3    0    0 -0.55925322022E+01  0.67027402687E+01 -0.27444451395E+01  0.91506897515E+01  0.51100000000E-03 0.  1.
        -12    1    3    3    0    0  0.73107522728E+01 -0.42308457362E+02  0.11135050124E+02  0.44355856484E+02  0.00000000000E+00 0.  1.
</event>
<event>
 7    1  0.4954500E-015  0.9000776E+02  0.7816164E-02  0.1186339E+00
        -11   -1    0    0    0    0  0.00000000000E+00  0.00000000000E+00  0.45593999997E+02  0.45594000000E+02  0.51100000000E-03 0.  1.
         11   -1    0    0    0    0 -0.00000000000E+00 -0.00000000000E+00 -0.45593999997E+02  0.45594000000E+02  0.51100000000E-03 0. -1.
    9900012    2    1    2    0    0  0.58719562945E+00  0.98440068383E+00 -0.28128480535E+00  0.90007760806E+02  0.90000022449E+02 0.  0.
        -12    1    1    2    0    0 -0.58719562945E+00 -0.98440068383E+00  0.28128480535E+00  0.11802391941E+01  0.00000000000E+00 0.  1.
         11    1    3    3    0    0 -0.21207122993E+02 -0.18804744137E+02 -0.30329104332E+02  0.41511625330E+02  0.51100000000E-03 0. -1.
        -11    1    3    3    0    0 -0.50402236076E+01  0.29717973678E+01  0.79868600746E+01  0.99007761172E+01  0.51100000000E-03 0.  1.
        -12    1    3    3    0    0  0.26834542230E+02  0.16817347453E+02  0.22060959452E+02  0.38595359358E+02  0.00000000000E+00 0.  1.
</event>
<event>
 7    1  0.3925070E-015  0.9000776E+02  0.7816164E-02  0.1186339E+00
        -11   -1    0    0    0    0  0.00000000000E+00  0.00000000000E+00  0.45593999997E+02  0.45594000000E+02  0.51100000000E-03 0.  1.
         11   -1    0    0    0    0 -0.00000000000E+00 -0.00000000000E+00 -0.45593999997E+02  0.45594000000E+02  0.51100000000E-03 0. -1.
    9900012    2    1    2    0    0 -0.28364600479E+00  0.10607686331E+01 -0.43276434681E+00  0.90007758445E+02  0.90000020056E+02 0.  0.
        -12    1    1    2    0    0  0.28364600479E+00 -0.10607686331E+01  0.43276434681E+00  0.11802415553E+01  0.00000000000E+00 0.  1.
         11    1    3    3    0    0  0.38063981033E+00 -0.45218225109E+01  0.96103396107E+01  0.10627812248E+02  0.51100000000E-03 0. -1.
        -11    1    3    3    0    0 -0.22327535928E+01  0.95034243121E+01  0.33877908289E+02  0.35256388536E+02  0.51100000000E-03 0.  1.
         12    1    3    3    0    0  0.15684677776E+01 -0.39208331681E+01 -0.43921012247E+02  0.44123557661E+02  0.00000000000E+00 0. -1.
</event>
<event>
 7    1  0.3925070E-015  0.9000771E+02  0.7816164E-02  0.1186339E+00
        -11   -1    0    0    0    0  0.00000000000E+00  0.00000000000E+00  0.45593999997E+02  0.45594000000E+02  0.51100000000E-03 0. -1.
         11   -1    0    0    0    0 -0.00000000000E+00 -0.00000000000E+00 -0.45593999997E+02  0.45594000000E+02  0.51100000000E-03 0.  1.
    9900012    2    1    2    0    0 -0.79061052890E+00  0.97420689625E-01  0.87093996306E+00  0.90007706724E+02  0.89999967652E+02 0.  0.
        -12    1    1    2    0    0  0.79061052890E+00 -0.97420689625E-01 -0.87093996306E+00  0.11802932765E+01  0.00000000000E+00 0.  1.
         11    1    3    3    0    0 -0.56346311299E+01  0.87243312511E+01  0.42963024021E+02  0.44200502904E+02  0.51100000000E-03 0. -1.
        -11    1    3    3    0    0  0.63023150268E+01 -0.33036391267E+01 -0.60354966642E+01  0.93306176870E+01  0.51100000000E-03 0.  1.
        -12    1    3    3    0    0 -0.14582944258E+01 -0.53232714348E+01 -0.36056587393E+02  0.36476586132E+02  0.00000000000E+00 0.  1.
</event>
<event>
 7    1  0.3925070E-015  0.9000754E+02  0.7816164E-02  0.1186339E+00
        -11   -1    0    0    0    0  0.00000000000E+00  0.00000000000E+00  0.45593999997E+02  0.45594000000E+02  0.51100000000E-03 0.  1.
         11   -1    0    0    0    0 -0.00000000000E+00 -0.00000000000E+00 -0.45593999997E+02  0.45594000000E+02  0.51100000000E-03 0. -1.
    9900012    2    1    2    0    0  0.74408117834E+00 -0.84093450488E+00  0.36422326157E+00  0.90007539825E+02  0.89999798550E+02 0.  0.
        -12    1    1    2    0    0 -0.74408117834E+00  0.84093450488E+00 -0.36422326157E+00  0.11804601754E+01  0.00000000000E+00 0.  1.
         11    1    3    3    0    0  0.15236081900E+02 -0.27876641548E+02 -0.41843277415E+01  0.32043001336E+02  0.51100000000E-03 0. -1.
        -11    1    3    3    0    0  0.89493021846E+01 -0.80717104050E+01 -0.73367804329E+01  0.14109247529E+02  0.51100000000E-03 0.  1.
        -12    1    3    3    0    0 -0.23441302906E+02  0.35107417449E+02  0.11885331436E+02  0.43855290960E+02  0.00000000000E+00 0.  1.
</event>
<event>
 7    1  0.3925070E-015  0.9000770E+02  0.7816164E-02  0.1186339E+00
        -11   -1    0    0    0    0  0.00000000000E+00  0.00000000000E+00  0.45593999997E+02  0.45594000000E+02  0.51100000000E-03 0.  1.
         11   -1    0    0    0    0 -0.00000000000E+00 -0.00000000000E+00 -0.45593999997E+02  0.45594000000E+02  0.51100000000E-03 0. -1.
    9900012    2    1    2    0    0  0.78009368385E+00 -0.15968418742E+00 -0.87123725881E+00  0.90007703615E+02  0.89999964503E+02 0.  0.
        -12    1    1    2    0    0 -0.78009368385E+00  0.15968418742E+00  0.87123725881E+00  0.11802963850E+01  0.00000000000E+00 0.  1.
         11    1    3    3    0    0 -0.78007257877E+01 -0.22783958703E+02 -0.18232273229E+02  0.30205560487E+02  0.51100000000E-03 0. -1.
        -11    1    3    3    0    0 -0.94183604333E+01 -0.13494650070E+02  0.83479373133E+01  0.18452619093E+02  0.51100000000E-03 0.  1.
        -12    1    3    3    0    0  0.17999179905E+02  0.36118924586E+02  0.90130986567E+01  0.41349524034E+02  0.00000000000E+00 0.  1.
</event>
<event>
 7    1  0.3925070E-015  0.9000699E+02  0.7816164E-02  0.1186341E+00
        -11   -1    0    0    0    0  0.00000000000E+00  0.00000000000E+00  0.45593999997E+02  0.45594000000E+02  0.51100000000E-03 0.  1.
         11   -1    0    0    0    0 -0.00000000000E+00 -0.00000000000E+00 -0.45593999997E+02  0.45594000000E+02  0.51100000000E-03 0. -1.
    9900012    2    1    2    0    0 -0.10860367562E+01  0.46400333452E+00 -0.19074751449E-02  0.90006992562E+02  0.89999244061E+02 0.  0.
        -12    1    1    2    0    0  0.10860367562E+01 -0.46400333452E+00  0.19074751449E-02  0.11810074380E+01  0.00000000000E+00 0.  1.
         11    1    3    3    0    0 -0.67926799854E+01 -0.42181193299E+01  0.39108799737E+01  0.89010119928E+01  0.51100000000E-03 0. -1.
        -11    1    3    3    0    0 -0.37115113913E+02  0.18699993693E+00  0.39909076307E+01  0.37329532461E+02  0.51100000000E-03 0.  1.
         12    1    3    3    0    0  0.42821757142E+02  0.44951227275E+01 -0.79036950795E+01  0.43776448109E+02  0.00000000000E+00 0. -1.
</event>
<event>
 7    1  0.3925070E-015  0.9000773E+02  0.7816164E-02  0.1186339E+00
        -11   -1    0    0    0    0  0.00000000000E+00  0.00000000000E+00  0.45593999997E+02  0.45594000000E+02  0.51100000000E-03 0.  1.
         11   -1    0    0    0    0 -0.00000000000E+00 -0.00000000000E+00 -0.45593999997E+02  0.45594000000E+02  0.51100000000E-03 0. -1.
    9900012    2    1    2    0    0  0.49189573070E+00 -0.97607488147E+00 -0.44537277168E+00  0.90007728637E+02  0.89999989855E+02 0.  0.
        -12    1    1    2    0    0 -0.49189573070E+00  0.97607488147E+00  0.44537277168E+00  0.11802713628E+01  0.00000000000E+00 0.  1.
         11    1    3    3    0    0  0.30812823709E+01  0.38340026895E+01  0.74990297782E+01  0.89682398244E+01  0.51100000000E-03 0. -1.
        -11    1    3    3    0    0  0.34518586481E+02  0.27884368389E+01 -0.21554041439E+02  0.40790745216E+02  0.51100000000E-03 0.  1.
         12    1    3    3    0    0 -0.37107973121E+02 -0.75985144099E+01  0.13609638889E+02  0.40248743597E+02  0.00000000000E+00 0. -1.
</event>
<event>
 7    1  0.3925070E-015  0.9000775E+02  0.7816164E-02  0.1186339E+00
        -11   -1    0    0    0    0  0.00000000000E+00  0.00000000000E+00  0.45593999997E+02  0.45594000000E+02  0.51100000000E-03 0.  1.
         11   -1    0    0    0    0 -0.00000000000E+00 -0.00000000000E+00 -0.45593999997E+02  0.45594000000E+02  0.51100000000E-03 0. -1.
    9900012    2    1    2    0    0  0.18212450404E+00  0.78319798663E+00 -0.86395502390E+00  0.90007751423E+02  0.90000012941E+02 0.  0.
        -12    1    1    2    0    0 -0.18212450404E+00 -0.78319798663E+00  0.86395502390E+00  0.11802485774E+01  0.00000000000E+00 0.  1.
         11    1    3    3    0    0  0.48020812319E+01 -0.80570660946E+01  0.38901629201E-01  0.93796488105E+01  0.51100000000E-03 0. -1.
        -11    1    3    3    0    0 -0.15508859466E+02 -0.92228318313E+01  0.34777686234E+02  0.39180005219E+02  0.51100000000E-03 0.  1.
         12    1    3    3    0    0  0.10888902738E+02  0.18063095913E+02 -0.35680542887E+02  0.41448097393E+02  0.00000000000E+00 0. -1.
</event>
<event>
 7    1  0.3925070E-015  0.9000772E+02  0.7816164E-02  0.1186339E+00
        -11   -1    0    0    0    0  0.00000000000E+00  0.00000000000E+00  0.45593999997E+02  0.45594000000E+02  0.51100000000E-03 0.  1.
         11   -1    0    0    0    0 -0.00000000000E+00 -0.00000000000E+00 -0.45593999997E+02  0.45594000000E+02  0.51100000000E-03 0. -1.
    9900012    2    1    2    0    0 -0.99613739187E+00 -0.62142029388E+00  0.12082711940E+00  0.90007723728E+02  0.89999984881E+02 0.  0.
        -12    1    1    2    0    0  0.99613739187E+00  0.62142029388E+00 -0.12082711940E+00  0.11802762719E+01  0.00000000000E+00 0.  1.
         11    1    3    3    0    0 -0.23263569202E+01 -0.11981058622E+01  0.92933535837E+01  0.96547302018E+01  0.51100000000E-03 0. -1.
        -11    1    3    3    0    0 -0.18996307836E+02 -0.33429363606E+02  0.38686439997E+01  0.38643867161E+02  0.51100000000E-03 0.  1.
         12    1    3    3    0    0  0.20326527364E+02  0.34006049174E+02 -0.13041170464E+02  0.41709126366E+02  0.00000000000E+00 0. -1.
</event>
<event>
 7    1  0.3925070E-015  0.9000773E+02  0.7816164E-02  0.1186339E+00
        -11   -1    0    0    0    0  0.00000000000E+00  0.00000000000E+00  0.45593999997E+02  0.45594000000E+02  0.51100000000E-03 0. -1.
         11   -1    0    0    0    0 -0.00000000000E+00 -0.00000000000E+00 -0.45593999997E+02  0.45594000000E+02  0.51100000000E-03 0.  1.
    9900012    2    1    2    0    0  0.17957270910E-01 -0.11132320693E+01 -0.39170648872E+00  0.90007727965E+02  0.89999989174E+02 0.  0.
        -12    1    1    2    0    0 -0.17957270910E-01  0.11132320693E+01  0.39170648872E+00  0.11802720352E+01  0.00000000000E+00 0.  1.
         11    1    3    3    0    0 -0.10557570803E+02 -0.74189253532E+01  0.76725002737E+01  0.15012328779E+02  0.51100000000E-03 0. -1.
        -11    1    3    3    0    0  0.18193593060E+02 -0.21018191260E+02 -0.28670650983E+02  0.39934664395E+02  0.51100000000E-03 0.  1.
         12    1    3    3    0    0 -0.76180649866E+01  0.27323884544E+02  0.20606444220E+02  0.35060734791E+02  0.00000000000E+00 0. -1.
</event>
<event>
 7    1  0.3925070E-015  0.9000772E+02  0.7816164E-02  0.1186339E+00
        -11   -1    0    0    0    0  0.00000000000E+00  0.00000000000E+00  0.45593999997E+02  0.45594000000E+02  0.51100000000E-03 0.  1.
         11   -1    0    0    0    0 -0.00000000000E+00 -0.00000000000E+00 -0.45593999997E+02  0.45594000000E+02  0.51100000000E-03 0. -1.
    9900012    2    1    2    0    0 -0.76216241384E-01 -0.10434133897E+01 -0.54638709703E+00  0.90007720678E+02  0.89999981791E+02 0.  0.
        -12    1    1    2    0    0  0.76216241384E-01  0.10434133897E+01  0.54638709703E+00  0.11802793216E+01  0.00000000000E+00 0.  1.
         11    1    3    3    0    0  0.14977158494E+02 -0.36838230315E+02 -0.51274344472E-01  0.39766482352E+02  0.51100000000E-03 0. -1.
        -11    1    3    3    0    0 -0.53066019294E+01 -0.44238968617E+01 -0.51222069335E+01  0.86004588024E+01  0.51100000000E-03 0.  1.
        -12    1    3    3    0    0 -0.97467728060E+01  0.40218713787E+02  0.46270941810E+01  0.41640779524E+02  0.00000000000E+00 0.  1.
</event>
<event>
 7    1  0.3925070E-015  0.9000774E+02  0.7816164E-02  0.1186339E+00
        -11   -1    0    0    0    0  0.00000000000E+00  0.00000000000E+00  0.45593999997E+02  0.45594000000E+02  0.51100000000E-03 0. -1.
         11   -1    0    0    0    0 -0.00000000000E+00 -0.00000000000E+00 -0.45593999997E+02  0.45594000000E+02  0.51100000000E-03 0.  1.
    9900012    2    1    2    0    0  0.38208739930E+00 -0.89620031187E+00  0.66622220457E+00  0.90007738247E+02  0.89999999592E+02 0.  0.
        -12    1    1    2    0    0 -0.38208739930E+00  0.89620031187E+00 -0.66622220457E+00  0.11802617530E+01  0.00000000000E+00 0.  1.
         11    1    3    3    0    0  0.75321021500E+01  0.24677004156E+01 -0.47242827784E+01  0.92271857124E+01  0.51100000000E-03 0. -1.
        -11    1    3    3    0    0  0.15357422885E+01 -0.41311605080E+02  0.64323308276E+01  0.41837568031E+02  0.51100000000E-03 0.  1.
         12    1    3    3    0    0 -0.86857570392E+01  0.37947704352E+02 -0.10418258446E+01  0.38942984503E+02  0.00000000000E+00 0. -1.
</event>
<event>
 7    1  0.3925070E-015  0.9000785E+02  0.7816164E-02  0.1186339E+00
        -11   -1    0    0    0    0  0.00000000000E+00  0.00000000000E+00  0.45593999997E+02  0.45594000000E+02  0.51100000000E-03 0.  1.
         11   -1    0    0    0    0 -0.00000000000E+00 -0.00000000000E+00 -0.45593999997E+02  0.45594000000E+02  0.51100000000E-03 0. -1.
    9900012    2    1    2    0    0 -0.64242652685E+00  0.44147113793E+00 -0.88608220213E+00  0.90007851587E+02  0.90000114428E+02 0.  0.
        -12    1    1    2    0    0  0.64242652685E+00 -0.44147113793E+00  0.88608220213E+00  0.11801484131E+01  0.00000000000E+00 0.  1.
         11    1    3    3    0    0 -0.25193709713E+02 -0.22788805595E+02 -0.12479181751E+02  0.36190919400E+02  0.51100000000E-03 0. -1.
        -11    1    3    3    0    0 -0.11740904040E+00 -0.74905826681E+01 -0.69979639705E+01  0.10251542010E+02  0.51100000000E-03 0.  1.
        -12    1    3    3    0    0  0.24668692227E+02  0.30720859401E+02  0.18591063519E+02  0.43565390177E+02  0.00000000000E+00 0.  1.
</event>
<event>
 7    1  0.5539292E-015  0.9000774E+02  0.7816164E-02  0.1186339E+00
        -11   -1    0    0    0    0  0.00000000000E+00  0.00000000000E+00  0.45593999997E+02  0.45594000000E+02  0.51100000000E-03 0.  1.
         11   -1    0    0    0    0 -0.00000000000E+00 -0.00000000000E+00 -0.45593999997E+02  0.45594000000E+02  0.51100000000E-03 0. -1.
    9900012    2    1    2    0    0 -0.82519640902E+00  0.30585786936E+00 -0.78645022996E+00  0.90007744895E+02  0.90000006327E+02 0.  0.
        -12    1    1    2    0    0  0.82519640902E+00 -0.30585786936E+00  0.78645022996E+00  0.11802551054E+01  0.00000000000E+00 0.  1.
         11    1    3    3    0    0 -0.26828179857E+02 -0.97772859249E+01 -0.23351465985E+02  0.36886820389E+02  0.51100000000E-03 0. -1.
        -11    1    3    3    0    0 -0.66825647580E+01 -0.61809179388E+01 -0.17325789574E+01  0.92661884514E+01  0.51100000000E-03 0.  1.
        -12    1    3    3    0    0  0.32685548206E+02  0.16264061733E+02  0.24297594712E+02  0.43854736054E+02  0.00000000000E+00 0.  1.
</event>
<event>
 7    1  0.4674426E-015  0.9000771E+02  0.7816164E-02  0.1186339E+00
        -11   -1    0    0    0    0  0.00000000000E+00  0.00000000000E+00  0.45593999997E+02  0.45594000000E+02  0.51100000000E-03 0.  1.
         11   -1    0    0    0    0 -0.00000000000E+00 -0.00000000000E+00 -0.45593999997E+02  0.45594000000E+02  0.51100000000E-03 0. -1.
    9900012    2    1    2    0    0  0.63362452783E+00  0.99550010374E+00 -0.23986669980E-01  0.90007713654E+02  0.89999974674E+02 0.  0.
        -12    1    1    2    0    0 -0.63362452783E+00 -0.99550010374E+00  0.23986669980E-01  0.11802863463E+01  0.00000000000E+00 0.  1.
         11    1    3    3    0    0  0.11645081638E+02 -0.30389951536E+02 -0.15575025165E+02  0.36079613217E+02  0.51100000000E-03 0. -1.
        -11    1    3    3    0    0 -0.37129130205E+01 -0.93702489096E+01  0.14176617895E+01  0.10178263749E+02  0.51100000000E-03 0.  1.
        -12    1    3    3    0    0 -0.72985440896E+01  0.40755700550E+02  0.14133376706E+02  0.43749836688E+02  0.00000000000E+00 0.  1.
</event>
<event>
 7    1  0.3925070E-015  0.9000755E+02  0.7816164E-02  0.1186339E+00
        -11   -1    0    0    0    0  0.00000000000E+00  0.00000000000E+00  0.45593999997E+02  0.45594000000E+02  0.51100000000E-03 0. -1.
         11   -1    0    0    0    0 -0.00000000000E+00 -0.00000000000E+00 -0.45593999997E+02  0.45594000000E+02  0.51100000000E-03 0.  1.
    9900012    2    1    2    0    0  0.72579207095E+00  0.36673109065E+00  0.85568754226E+00  0.90007547971E+02  0.89999806804E+02 0.  0.
        -12    1    1    2    0    0 -0.72579207095E+00 -0.36673109065E+00 -0.85568754226E+00  0.11804520291E+01  0.00000000000E+00 0.  1.
         11    1    3    3    0    0  0.22076447560E+02  0.61758785104E+01 -0.24680892707E+01  0.23056506179E+02  0.51100000000E-03 0. -1.
        -11    1    3    3    0    0  0.19662784755E+01 -0.22402300724E+02  0.23042060238E+02  0.32197295989E+02  0.51100000000E-03 0.  1.
        -12    1    3    3    0    0 -0.23316933965E+02  0.16593153304E+02 -0.19718283425E+02  0.34753745803E+02  0.00000000000E+00 0.  1.
</event>
<event>
 7    1  0.3925070E-015  0.9000790E+02  0.7816164E-02  0.1186339E+00
        -11   -1    0    0    0    0  0.00000000000E+00  0.00000000000E+00  0.45593999997E+02  0.45594000000E+02  0.51100000000E-03 0. -1.
         11   -1    0    0    0    0 -0.00000000000E+00 -0.00000000000E+00 -0.45593999997E+02  0.45594000000E+02  0.51100000000E-03 0.  1.
    9900012    2    1    2    0    0  0.11186978343E+01  0.27533189379E+00 -0.25560991756E+00  0.90007903001E+02  0.90000166521E+02 0.  0.
        -12    1    1    2    0    0 -0.11186978343E+01 -0.27533189379E+00  0.25560991756E+00  0.11800969986E+01  0.00000000000E+00 0.  1.
         11    1    3    3    0    0  0.44220035592E+01  0.62430882348E+01 -0.63060385709E+01  0.99144535353E+01  0.51100000000E-03 0. -1.
        -11    1    3    3    0    0  0.18170527920E+02  0.87820328063E+00 -0.31455016895E+02  0.36336722665E+02  0.51100000000E-03 0.  1.
         12    1    3    3    0    0 -0.21473833645E+02 -0.68459596216E+01  0.37505445549E+02  0.43756726801E+02  0.00000000000E+00 0. -1.
</event>
<event>
 7    1  0.3925070E-015  0.9000773E+02  0.7816164E-02  0.1186339E+00
        -11   -1    0    0    0    0  0.00000000000E+00  0.00000000000E+00  0.45593999997E+02  0.45594000000E+02  0.51100000000E-03 0. -1.
         11   -1    0    0    0    0 -0.00000000000E+00 -0.00000000000E+00 -0.45593999997E+02  0.45594000000E+02  0.51100000000E-03 0.  1.
    9900012    2    1    2    0    0  0.59402943111E+00  0.98846953693E+00  0.25120275198E+00  0.90007726382E+02  0.89999987570E+02 0.  0.
        -12    1    1    2    0    0 -0.59402943111E+00 -0.98846953693E+00 -0.25120275198E+00  0.11802736179E+01  0.00000000000E+00 0.  1.
         11    1    3    3    0    0 -0.10285529536E+02  0.35081100297E+01 -0.21547834752E+01  0.11078900934E+02  0.51100000000E-03 0. -1.
        -11    1    3    3    0    0 -0.37962782793E+01  0.21140787105E+02 -0.29558724313E+02  0.36538511073E+02  0.51100000000E-03 0.  1.
         12    1    3    3    0    0  0.14675837246E+02 -0.23660427598E+02  0.31964710540E+02  0.42390314376E+02  0.00000000000E+00 0. -1.
</event>
<event>
 7    1  0.3925070E-015  0.9000774E+02  0.7816164E-02  0.1186339E+00
        -11   -1    0    0    0    0  0.00000000000E+00  0.00000000000E+00  0.45593999997E+02  0.45594000000E+02  0.51100000000E-03 0. -1.
         11   -1    0    0    0    0 -0.00000000000E+00 -0.00000000000E+00 -0.45593999997E+02  0.45594000000E+02  0.51100000000E-03 0.  1.
    9900012    2    1    2    0    0 -0.57424729702E+00  0.84379550075E+00 -0.59267584407E+00  0.90007739240E+02  0.90000000598E+02 0.  0.
        -12    1    1    2    0    0  0.57424729702E+00 -0.84379550075E+00  0.59267584407E+00  0.11802607599E+01  0.00000000000E+00 0.  1.
         11    1    3    3    0    0 -0.18736501603E+01 -0.50671407159E+01  0.51374464717E+01  0.74551885602E+01  0.51100000000E-03 0. -1.
        -11    1    3    3    0    0 -0.33266336698E+02 -0.19899127853E+02  0.15941630162E+01  0.38796466368E+02  0.51100000000E-03 0.  1.
         12    1    3    3    0    0  0.34565739561E+02  0.25810064070E+02 -0.73242853320E+01  0.43756084312E+02  0.00000000000E+00 0. -1.
</event>
<event>
 7    1  0.3925070E-015  0.9000781E+02  0.7816164E-02  0.1186339E+00
        -11   -1    0    0    0    0  0.00000000000E+00  0.00000000000E+00  0.45593999997E+02  0.45594000000E+02  0.51100000000E-03 0.  1.
         11   -1    0    0    0    0 -0.00000000000E+00 -0.00000000000E+00 -0.45593999997E+02  0.45594000000E+02  0.51100000000E-03 0. -1.
    9900012    2    1    2    0    0 -0.51443536570E+00  0.10621274301E+01  0.94215356486E-02  0.90007810529E+02  0.90000072828E+02 0.  0.
        -12    1    1    2    0    0  0.51443536570E+00 -0.10621274301E+01 -0.94215356486E-02  0.11801894714E+01  0.00000000000E+00 0.  1.
         11    1    3    3    0    0  0.88590273301E+01  0.22767409886E+01  0.66797266283E+01  0.11326281952E+02  0.51100000000E-03 0. -1.
        -11    1    3    3    0    0 -0.26961816710E+01 -0.93761064023E+01  0.34670522620E+02  0.36017022446E+02  0.51100000000E-03 0.  1.
         12    1    3    3    0    0 -0.66772810249E+01  0.81614928437E+01 -0.41340827713E+02  0.42664506130E+02  0.00000000000E+00 0. -1.
</event>
<event>
 7    1  0.3925070E-015  0.9000783E+02  0.7816164E-02  0.1186339E+00
        -11   -1    0    0    0    0  0.00000000000E+00  0.00000000000E+00  0.45593999997E+02  0.45594000000E+02  0.51100000000E-03 0.  1.
         11   -1    0    0    0    0 -0.00000000000E+00 -0.00000000000E+00 -0.45593999997E+02  0.45594000000E+02  0.51100000000E-03 0. -1.
    9900012    2    1    2    0    0  0.28671363872E-01  0.98988659178E+00 -0.64196183895E+00  0.90007825219E+02  0.90000087712E+02 0.  0.
        -12    1    1    2    0    0 -0.28671363872E-01 -0.98988659178E+00  0.64196183895E+00  0.11801747813E+01  0.00000000000E+00 0.  1.
         11    1    3    3    0    0 -0.90751673495E+01 -0.50637849486E+00 -0.57074886648E+01  0.10732684134E+02  0.51100000000E-03 0. -1.
        -11    1    3    3    0    0 -0.15877276424E+02 -0.30059644858E+02  0.15995487723E+02  0.37570277925E+02  0.51100000000E-03 0.  1.
         12    1    3    3    0    0  0.24981115137E+02  0.31555909945E+02 -0.10929960897E+02  0.41704863159E+02  0.00000000000E+00 0. -1.
</event>
<event>
 7    1  0.3925070E-015  0.9000773E+02  0.7816164E-02  0.1186339E+00
        -11   -1    0    0    0    0  0.00000000000E+00  0.00000000000E+00  0.45593999997E+02  0.45594000000E+02  0.51100000000E-03 0. -1.
         11   -1    0    0    0    0 -0.00000000000E+00 -0.00000000000E+00 -0.45593999997E+02  0.45594000000E+02  0.51100000000E-03 0.  1.
    9900012    2    1    2    0    0 -0.10635479556E+01 -0.69632528182E-01  0.50701032155E+00  0.90007727824E+02  0.89999989031E+02 0.  0.
        -12    1    1    2    0    0  0.10635479556E+01  0.69632528182E-01 -0.50701032155E+00  0.11802721758E+01  0.00000000000E+00 0.  1.
         11    1    3    3    0    0 -0.25529459839E+02  0.10117531873E+02  0.21522138037E+02  0.34890116034E+02  0.51100000000E-03 0. -1.
        -11    1    3    3    0    0 -0.30195207962E+01  0.13116027358E+02 -0.11289212486E+00  0.13459584852E+02  0.51100000000E-03 0.  1.
        -12    1    3    3    0    0  0.27485432680E+02 -0.23303191759E+02 -0.20902235591E+02  0.41658026939E+02  0.00000000000E+00 0.  1.
</event>
<event>
 7    1  0.3925070E-015  0.9000776E+02  0.7816164E-02  0.1186339E+00
        -11   -1    0    0    0    0  0.00000000000E+00  0.00000000000E+00  0.45593999997E+02  0.45594000000E+02  0.51100000000E-03 0. -1.
         11   -1    0    0    0    0 -0.00000000000E+00 -0.00000000000E+00 -0.45593999997E+02  0.45594000000E+02  0.51100000000E-03 0.  1.
    9900012    2    1    2    0    0 -0.11500400050E+01  0.48896932890E-01  0.26071646625E+00  0.90007764431E+02  0.90000026121E+02 0.  0.
        -12    1    1    2    0    0  0.11500400050E+01 -0.48896932890E-01 -0.26071646625E+00  0.11802355692E+01  0.00000000000E+00 0.  1.
         11    1    3    3    0    0 -0.23873605275E+02 -0.28635348088E+02 -0.56207245646E+01  0.37703113052E+02  0.51100000000E-03 0. -1.
        -11    1    3    3    0    0 -0.71506875048E+01  0.34783745761E+01 -0.75589021015E+01  0.10971254382E+02  0.51100000000E-03 0.  1.
        -12    1    3    3    0    0  0.29874252775E+02  0.25205870445E+02  0.13440343132E+02  0.41333396996E+02  0.00000000000E+00 0.  1.
</event>
<event>
 7    1  0.3925070E-015  0.9000766E+02  0.7816164E-02  0.1186339E+00
        -11   -1    0    0    0    0  0.00000000000E+00  0.00000000000E+00  0.45593999997E+02  0.45594000000E+02  0.51100000000E-03 0.  1.
         11   -1    0    0    0    0 -0.00000000000E+00 -0.00000000000E+00 -0.45593999997E+02  0.45594000000E+02  0.51100000000E-03 0. -1.
    9900012    2    1    2    0    0 -0.96820760366E+00 -0.29380608398E+00 -0.60782013552E+00  0.90007663906E+02  0.89999924269E+02 0.  0.
        -12    1    1    2    0    0  0.96820760366E+00  0.29380608398E+00  0.60782013552E+00  0.11803360945E+01  0.00000000000E+00 0.  1.
         11    1    3    3    0    0 -0.29598552223E+01 -0.54767117248E+01  0.61323908253E+01  0.87384971104E+01  0.51100000000E-03 0. -1.
        -11    1    3    3    0    0 -0.24437650799E+02  0.14614620884E+02  0.25713098753E+02  0.38365992336E+02  0.51100000000E-03 0.  1.
         12    1    3    3    0    0  0.26429298418E+02 -0.94317152428E+01 -0.32453309714E+02  0.42903174459E+02  0.00000000000E+00 0. -1.
</event>
<event>
 7    1  0.3925070E-015  0.9000773E+02  0.7816164E-02  0.1186339E+00
        -11   -1    0    0    0    0  0.00000000000E+00  0.00000000000E+00  0.45593999997E+02  0.45594000000E+02  0.51100000000E-03 0.  1.
         11   -1    0    0    0    0 -0.00000000000E+00 -0.00000000000E+00 -0.45593999997E+02  0.45594000000E+02  0.51100000000E-03 0. -1.
    9900012    2    1    2    0    0 -0.10553680927E+01 -0.25312047326E+00 -0.46386493088E+00  0.90007727803E+02  0.89999989010E+02 0.  0.
        -12    1    1    2    0    0  0.10553680927E+01  0.25312047326E+00  0.46386493088E+00  0.11802721970E+01  0.00000000000E+00 0.  1.
         11    1    3    3    0    0 -0.13715127952E+02 -0.25130880525E+02 -0.24447802009E+02  0.37647854043E+02  0.51100000000E-03 0. -1.
        -11    1    3    3    0    0 -0.88104311495E+01 -0.46033735026E+01  0.35532328433E+01  0.10556524454E+02  0.51100000000E-03 0.  1.
        -12    1    3    3    0    0  0.21470191009E+02  0.29481133555E+02  0.20430704235E+02  0.41803349306E+02  0.00000000000E+00 0.  1.
</event>
<event>
 7    1  0.3925070E-015  0.9000781E+02  0.7816164E-02  0.1186339E+00
        -11   -1    0    0    0    0  0.00000000000E+00  0.00000000000E+00  0.45593999997E+02  0.45594000000E+02  0.51100000000E-03 0.  1.
         11   -1    0    0    0    0 -0.00000000000E+00 -0.00000000000E+00 -0.45593999997E+02  0.45594000000E+02  0.51100000000E-03 0. -1.
    9900012    2    1    2    0    0  0.10333183437E+01 -0.41879141367E+00  0.38694148796E+00  0.90007806472E+02  0.90000068718E+02 0.  0.
        -12    1    1    2    0    0 -0.10333183437E+01  0.41879141367E+00 -0.38694148796E+00  0.11801935276E+01  0.00000000000E+00 0.  1.
         11    1    3    3    0    0  0.26345612159E+02 -0.18926086216E+02 -0.11320408102E+02  0.34357526968E+02  0.51100000000E-03 0. -1.
        -11    1    3    3    0    0  0.11874059687E+02 -0.16765740563E+01  0.11826230161E+01  0.12050012094E+02  0.51100000000E-03 0.  1.
        -12    1    3    3    0    0 -0.37186353502E+02  0.20183868859E+02  0.10524726574E+02  0.43600267411E+02  0.00000000000E+00 0.  1.
</event>
<event>
 7    1  0.3925070E-015  0.9000772E+02  0.7816164E-02  0.1186339E+00
        -11   -1    0    0    0    0  0.00000000000E+00  0.00000000000E+00  0.45593999997E+02  0.45594000000E+02  0.51100000000E-03 0.  1.
         11   -1    0    0    0    0 -0.00000000000E+00 -0.00000000000E+00 -0.45593999997E+02  0.45594000000E+02  0.51100000000E-03 0. -1.
    9900012    2    1    2    0    0 -0.48053179058E+00 -0.56169723034E+00 -0.92013766359E+00  0.90007717025E+02  0.89999978090E+02 0.  0.
        -12    1    1    2    0    0  0.48053179058E+00  0.56169723034E+00  0.92013766359E+00  0.11802829747E+01  0.00000000000E+00 0.  1.
         11    1    3    3    0    0 -0.24560680700E+02 -0.18412061354E+02  0.29203930781E+02  0.42368627699E+02  0.51100000000E-03 0. -1.
        -11    1    3    3    0    0  0.99932848079E+01 -0.10224586000E+01 -0.86938931389E+00  0.10083005548E+02  0.51100000000E-03 0.  1.
        -12    1    3    3    0    0  0.14086864102E+02  0.18872822723E+02 -0.29254679131E+02  0.37556083779E+02  0.00000000000E+00 0.  1.
</event>
<event>
 7    1  0.3925070E-015  0.9000775E+02  0.7816164E-02  0.1186339E+00
        -11   -1    0    0    0    0  0.00000000000E+00  0.00000000000E+00  0.45593999997E+02  0.45594000000E+02  0.51100000000E-03 0. -1.
         11   -1    0    0    0    0 -0.00000000000E+00 -0.00000000000E+00 -0.45593999997E+02  0.45594000000E+02  0.51100000000E-03 0.  1.
    9900012    2    1    2    0    0  0.84621261841E+00 -0.40017308526E+00  0.71887491614E+00  0.90007747722E+02  0.90000009192E+02 0.  0.
        -12    1    1    2    0    0 -0.84621261841E+00  0.40017308526E+00 -0.71887491614E+00  0.11802522776E+01  0.00000000000E+00 0.  1.
         11    1    3    3    0    0 -0.48717508495E+01  0.47184101020E+01  0.39731670579E+02  0.40306364230E+02  0.51100000000E-03 0. -1.
        -11    1    3    3    0    0 -0.65283823946E+01 -0.92254166987E+01 -0.33747378505E+01  0.11794784685E+02  0.51100000000E-03 0.  1.
        -12    1    3    3    0    0  0.12246345862E+02  0.41068335114E+01 -0.35638057812E+02  0.37906598807E+02  0.00000000000E+00 0.  1.
</event>
<event>
 7    1  0.3925070E-015  0.9000772E+02  0.7816164E-02  0.1186339E+00
        -11   -1    0    0    0    0  0.00000000000E+00  0.00000000000E+00  0.45593999997E+02  0.45594000000E+02  0.51100000000E-03 0.  1.
         11   -1    0    0    0    0 -0.00000000000E+00 -0.00000000000E+00 -0.45593999997E+02  0.45594000000E+02  0.51100000000E-03 0. -1.
    9900012    2    1    2    0    0  0.29595724080E-01 -0.28019855380E+00 -0.11461536189E+01  0.90007722382E+02  0.89999983518E+02 0.  0.
        -12    1    1    2    0    0 -0.29595724080E-01  0.28019855380E+00  0.11461536189E+01  0.11802776175E+01  0.00000000000E+00 0.  1.
         11    1    3    3    0    0  0.21530404224E+02  0.11651105439E+02  0.23304282754E+02  0.33799351457E+02  0.51100000000E-03 0. -1.
        -11    1    3    3    0    0 -0.90695801153E+01  0.83656179789E+01  0.89159248019E+01  0.15222830321E+02  0.51100000000E-03 0.  1.
        -12    1    3    3    0    0 -0.12431228384E+02 -0.20296921972E+02 -0.33366361174E+02  0.40985540605E+02  0.00000000000E+00 0.  1.
</event>
<event>
 7    1  0.3925070E-015  0.9000768E+02  0.7816164E-02  0.1186339E+00
        -11   -1    0    0    0    0  0.00000000000E+00  0.00000000000E+00  0.45593999997E+02  0.45594000000E+02  0.51100000000E-03 0.  1.
         11   -1    0    0    0    0 -0.00000000000E+00 -0.00000000000E+00 -0.45593999997E+02  0.45594000000E+02  0.51100000000E-03 0. -1.
    9900012    2    1    2    0    0  0.20699723431E+00  0.62706803463E+00 -0.97830576779E+00  0.90007684639E+02  0.89999945277E+02 0.  0.
        -12    1    1    2    0    0 -0.20699723431E+00 -0.62706803463E+00  0.97830576779E+00  0.11803153606E+01  0.00000000000E+00 0.  1.
         11    1    3    3    0    0 -0.24553474021E+02  0.28443899605E+02 -0.15707935868E+00  0.37575965529E+02  0.51100000000E-03 0. -1.
        -11    1    3    3    0    0 -0.82666918294E+01  0.12611022508E+01  0.78257443620E+00  0.83988687154E+01  0.51100000000E-03 0.  1.
        -12    1    3    3    0    0  0.33027163085E+02 -0.29077933822E+02 -0.16038008453E+01  0.44032850395E+02  0.00000000000E+00 0.  1.
</event>
<event>
 7    1  0.3925070E-015  0.9000769E+02  0.7816164E-02  0.1186339E+00
        -11   -1    0    0    0    0  0.00000000000E+00  0.00000000000E+00  0.45593999997E+02  0.45594000000E+02  0.51100000000E-03 0.  1.
         11   -1    0    0    0    0 -0.00000000000E+00 -0.00000000000E+00 -0.45593999997E+02  0.45594000000E+02  0.51100000000E-03 0. -1.
    9900012    2    1    2    0    0  0.87166326288E+00 -0.34021171988E+00  0.71944434873E+00  0.90007686046E+02  0.89999946702E+02 0.  0.
        -12    1    1    2    0    0 -0.87166326288E+00  0.34021171988E+00 -0.71944434873E+00  0.11803139536E+01  0.00000000000E+00 0.  1.
         11    1    3    3    0    0 -0.78277000341E+01 -0.54321453633E+00  0.72213215118E+00  0.78796855877E+01  0.51100000000E-03 0. -1.
        -11    1    3    3    0    0 -0.28620946984E+02 -0.56745885950E+01 -0.23648496796E+02  0.37558101163E+02  0.51100000000E-03 0.  1.
         12    1    3    3    0    0  0.37320310281E+02  0.58775914114E+01  0.23645808993E+02  0.44569899296E+02  0.00000000000E+00 0. -1.
</event>
<event>
 7    1  0.3925070E-015  0.9000771E+02  0.7816164E-02  0.1186339E+00
        -11   -1    0    0    0    0  0.00000000000E+00  0.00000000000E+00  0.45593999997E+02  0.45594000000E+02  0.51100000000E-03 0. -1.
         11   -1    0    0    0    0 -0.00000000000E+00 -0.00000000000E+00 -0.45593999997E+02  0.45594000000E+02  0.51100000000E-03 0.  1.
    9900012    2    1    2    0    0 -0.10891453751E+01  0.45476857517E+00 -0.63207609126E-02  0.90007706792E+02  0.89999967722E+02 0.  0.
        -12    1    1    2    0    0  0.10891453751E+01 -0.45476857517E+00  0.63207609126E-02  0.11802932081E+01  0.00000000000E+00 0.  1.
         11    1    3    3    0    0 -0.61066898601E+01  0.32700868473E+02  0.23895746037E+01  0.33351889407E+02  0.51100000000E-03 0. -1.
        -11    1    3    3    0    0 -0.43345552765E+01  0.99934382121E+01 -0.73051159121E+01  0.13115711780E+02  0.51100000000E-03 0.  1.
        -12    1    3    3    0    0  0.93520997615E+01 -0.42239538110E+02  0.49092205474E+01  0.43540105605E+02  0.00000000000E+00 0.  1.
</event>
<event>
 7    1  0.3925070E-015  0.9000773E+02  0.7816164E-02  0.1186339E+00
        -11   -1    0    0    0    0  0.00000000000E+00  0.00000000000E+00  0.45593999997E+02  0.45594000000E+02  0.51100000000E-03 0. -1.
         11   -1    0    0    0    0 -0.00000000000E+00 -0.00000000000E+00 -0.45593999997E+02  0.45594000000E+02  0.51100000000E-03 0.  1.
    9900012    2    1    2    0    0 -0.54589517685E+00  0.35769982211E+00  0.98341125051E+00  0.90007725289E+02  0.89999986462E+02 0.  0.
        -12    1    1    2    0    0  0.54589517685E+00 -0.35769982211E+00 -0.98341125051E+00  0.11802747115E+01  0.00000000000E+00 0.  1.
         11    1    3    3    0    0  0.41114401863E+00  0.25924387961E+01 -0.92184568280E+01  0.95848695800E+01  0.51100000000E-03 0. -1.
        -11    1    3    3    0    0 -0.26557735749E+02  0.22807275833E+02 -0.13453904700E+02  0.37503236007E+02  0.51100000000E-03 0.  1.
         12    1    3    3    0    0  0.25600696554E+02 -0.25042014806E+02  0.23655772779E+02  0.42919619702E+02  0.00000000000E+00 0. -1.
</event>
<event>
 7    1  0.3925070E-015  0.9000770E+02  0.7816164E-02  0.1186339E+00
        -11   -1    0    0    0    0  0.00000000000E+00  0.00000000000E+00  0.45593999997E+02  0.45594000000E+02  0.51100000000E-03 0. -1.
         11   -1    0    0    0    0 -0.00000000000E+00 -0.00000000000E+00 -0.45593999997E+02  0.45594000000E+02  0.51100000000E-03 0.  1.
    9900012    2    1    2    0    0 -0.95675787191E+00 -0.32485294885E+00  0.61006861496E+00  0.90007703944E+02  0.89999964836E+02 0.  0.
        -12    1    1    2    0    0  0.95675787191E+00  0.32485294885E+00 -0.61006861496E+00  0.11802960556E+01  0.00000000000E+00 0.  1.
         11    1    3    3    0    0  0.24808631590E+02  0.19520463814E+02 -0.15713025520E+02  0.35262102606E+02  0.51100000000E-03 0. -1.
        -11    1    3    3    0    0  0.96028391526E+01  0.72745212399E+00 -0.21259559793E+01  0.98622206155E+01  0.51100000000E-03 0.  1.
        -12    1    3    3    0    0 -0.35368228615E+02 -0.20572768887E+02  0.18449050114E+02  0.44883380723E+02  0.00000000000E+00 0.  1.
</event>
<event>
 7    1  0.3925070E-015  0.9000772E+02  0.7816164E-02  0.1186339E+00
        -11   -1    0    0    0    0  0.00000000000E+00  0.00000000000E+00  0.45593999997E+02  0.45594000000E+02  0.51100000000E-03 0. -1.
         11   -1    0    0    0    0 -0.00000000000E+00 -0.00000000000E+00 -0.45593999997E+02  0.45594000000E+02  0.51100000000E-03 0.  1.
    9900012    2    1    2    0    0 -0.70747039432E+00 -0.91547751644E+00  0.23334288488E+00  0.90007719379E+02  0.89999980475E+02 0.  0.
        -12    1    1    2    0    0  0.70747039432E+00  0.91547751644E+00 -0.23334288488E+00  0.11802806208E+01  0.00000000000E+00 0.  1.
         11    1    3    3    0    0 -0.35633046837E+02  0.35161307314E+01  0.85633654516E+01  0.36815871990E+02  0.51100000000E-03 0. -1.
        -11    1    3    3    0    0 -0.31028864190E+01  0.10596747878E+02  0.14822390694E+01  0.11140736180E+02  0.51100000000E-03 0.  1.
        -12    1    3    3    0    0  0.38028462862E+02 -0.15028356126E+02 -0.98122616362E+01  0.42051111209E+02  0.00000000000E+00 0.  1.
</event>
<event>
 7    1  0.3925070E-015  0.9000770E+02  0.7816164E-02  0.1186339E+00
        -11   -1    0    0    0    0  0.00000000000E+00  0.00000000000E+00  0.45593999997E+02  0.45594000000E+02  0.51100000000E-03 0.  1.
         11   -1    0    0    0    0 -0.00000000000E+00 -0.00000000000E+00 -0.45593999997E+02  0.45594000000E+02  0.51100000000E-03 0. -1.
    9900012    2    1    2    0    0 -0.83369520865E+00  0.43013649144E+00 -0.71626658695E+00  0.90007702188E+02  0.89999963057E+02 0.  0.
        -12    1    1    2    0    0  0.83369520865E+00 -0.43013649144E+00  0.71626658695E+00  0.11802978123E+01  0.00000000000E+00 0.  1.
         11    1    3    3    0    0  0.75524264700E+01  0.92461360063E-01 -0.86800139016E+00  0.76027048714E+01  0.51100000000E-03 0. -1.
        -11    1    3    3    0    0  0.13235528628E+02  0.35555285586E+02 -0.11184413112E+02  0.39553111737E+02  0.51100000000E-03 0.  1.
         12    1    3    3    0    0 -0.21621650306E+02 -0.35217610455E+02  0.11336147915E+02  0.42851885579E+02  0.00000000000E+00 0. -1.
</event>
<event>
 7    1  0.3925070E-015  0.9000791E+02  0.7816164E-02  0.1186339E+00
        -11   -1    0    0    0    0  0.00000000000E+00  0.00000000000E+00  0.45593999997E+02  0.45594000000E+02  0.51100000000E-03 0.  1.
         11   -1    0    0    0    0 -0.00000000000E+00 -0.00000000000E+00 -0.45593999997E+02  0.45594000000E+02  0.51100000000E-03 0. -1.
    9900012    2    1    2    0    0 -0.28477578952E+00  0.97300568095E+00 -0.60396066179E+00  0.90007912806E+02  0.90000176454E+02 0.  0.
        -12    1    1    2    0    0  0.28477578952E+00 -0.97300568095E+00  0.60396066179E+00  0.11800871944E+01  0.00000000000E+00 0.  1.
         11    1    3    3    0    0 -0.73428352629E+01  0.22719572537E+00  0.93454085640E+01  0.11887199379E+02  0.51100000000E-03 0. -1.
        -11    1    3    3    0    0 -0.26664815491E+02 -0.17954205552E+02 -0.20520474499E+02  0.38137327595E+02  0.51100000000E-03 0.  1.
         12    1    3    3    0    0  0.33722874964E+02  0.18700015508E+02  0.10571105273E+02  0.39983385831E+02  0.00000000000E+00 0. -1.
</event>
<event>
 7    1  0.3925070E-015  0.9000773E+02  0.7816164E-02  0.1186339E+00
        -11   -1    0    0    0    0  0.00000000000E+00  0.00000000000E+00  0.45593999997E+02  0.45594000000E+02  0.51100000000E-03 0. -1.
         11   -1    0    0    0    0 -0.00000000000E+00 -0.00000000000E+00 -0.45593999997E+02  0.45594000000E+02  0.51100000000E-03 0.  1.
    9900012    2    1    2    0    0 -0.94079726031E+00  0.71181551876E+00 -0.35542322006E-01  0.90007727119E+02  0.89999988317E+02 0.  0.
        -12    1    1    2    0    0  0.94079726031E+00 -0.71181551876E+00  0.35542322006E-01  0.11802728813E+01  0.00000000000E+00 0.  1.
         11    1    3    3    0    0 -0.12706735392E+02 -0.29142578832E+02  0.25447224611E+02  0.40722380406E+02  0.51100000000E-03 0. -1.
        -11    1    3    3    0    0  0.80693502833E+01 -0.33660718053E+01 -0.47157181303E+01  0.99339242568E+01  0.51100000000E-03 0.  1.
        -12    1    3    3    0    0  0.36965878485E+01  0.33220466156E+02 -0.20767048803E+02  0.39351422456E+02  0.00000000000E+00 0.  1.
</event>
<event>
 7    1  0.3925070E-015  0.9000778E+02  0.7816164E-02  0.1186339E+00
        -11   -1    0    0    0    0  0.00000000000E+00  0.00000000000E+00  0.45593999997E+02  0.45594000000E+02  0.51100000000E-03 0.  1.
         11   -1    0    0    0    0 -0.00000000000E+00 -0.00000000000E+00 -0.45593999997E+02  0.45594000000E+02  0.51100000000E-03 0. -1.
    9900012    2    1    2    0    0  0.51523130987E+00  0.11784442709E+00 -0.10552575606E+01  0.90007780050E+02  0.90000041946E+02 0.  0.
        -12    1    1    2    0    0 -0.51523130987E+00 -0.11784442709E+00  0.10552575606E+01  0.11802199502E+01  0.00000000000E+00 0.  1.
         11    1    3    3    0    0 -0.76805259689E+01 -0.20971072562E+01  0.35805167370E+01  0.87297444618E+01  0.51100000000E-03 0. -1.
        -11    1    3    3    0    0 -0.32756992658E+02 -0.11605182667E+02 -0.13275219942E+02  0.37201240538E+02  0.51100000000E-03 0.  1.
         12    1    3    3    0    0  0.40952749937E+02  0.13820134351E+02  0.86394456447E+01  0.44076795050E+02  0.00000000000E+00 0. -1.
</event>
<event>
 7    1  0.3925070E-015  0.9000777E+02  0.7816164E-02  0.1186339E+00
        -11   -1    0    0    0    0  0.00000000000E+00  0.00000000000E+00  0.45593999997E+02  0.45594000000E+02  0.51100000000E-03 0. -1.
         11   -1    0    0    0    0 -0.00000000000E+00 -0.00000000000E+00 -0.45593999997E+02  0.45594000000E+02  0.51100000000E-03 0.  1.
    9900012    2    1    2    0    0  0.48423278121E+00  0.10119655999E+01 -0.36659416485E+00  0.90007768225E+02  0.90000029965E+02 0.  0.
        -12    1    1    2    0    0 -0.48423278121E+00 -0.10119655999E+01  0.36659416485E+00  0.11802317753E+01  0.00000000000E+00 0.  1.
         11    1    3    3    0    0 -0.15781523562E+02  0.36923524112E+02 -0.14519128937E+02  0.42699042426E+02  0.51100000000E-03 0. -1.
        -11    1    3    3    0    0  0.75746800331E+01  0.51622718222E-01  0.53612352386E+01  0.92801554973E+01  0.51100000000E-03 0.  1.
        -12    1    3    3    0    0  0.86910763097E+01 -0.35963181231E+02  0.87912995332E+01  0.38028570301E+02  0.00000000000E+00 0.  1.
</event>
<event>
 7    1  0.3925070E-015  0.9000650E+02  0.7816164E-02  0.1186342E+00
        -11   -1    0    0    0    0  0.00000000000E+00  0.00000000000E+00  0.45593999997E+02  0.45594000000E+02  0.51100000000E-03 0. -1.
         11   -1    0    0    0    0 -0.00000000000E+00 -0.00000000000E+00 -0.45593999997E+02  0.45594000000E+02  0.51100000000E-03 0.  1.
    9900012    2    1    2    0    0 -0.98880939333E+00  0.38433894594E+00  0.52008594738E+00  0.90006496790E+02  0.89998741739E+02 0.  0.
        -12    1    1    2    0    0  0.98880939333E+00 -0.38433894594E+00 -0.52008594738E+00  0.11815032096E+01  0.00000000000E+00 0.  1.
         11    1    3    3    0    0  0.20884622144E+02  0.33350232183E+02 -0.18922640410E+02  0.43663162381E+02  0.51100000000E-03 0. -1.
        -11    1    3    3    0    0 -0.48266723675E+01 -0.58186183252E+01 -0.19468157020E+01  0.78066111082E+01  0.51100000000E-03 0.  1.
        -12    1    3    3    0    0 -0.17046759170E+02 -0.27147274912E+02  0.21389542059E+02  0.38536723302E+02  0.00000000000E+00 0.  1.
</event>
<event>
 7    1  0.3925070E-015  0.9000775E+02  0.7816164E-02  0.1186339E+00
        -11   -1    0    0    0    0  0.00000000000E+00  0.00000000000E+00  0.45593999997E+02  0.45594000000E+02  0.51100000000E-03 0.  1.
         11   -1    0    0    0    0 -0.00000000000E+00 -0.00000000000E+00 -0.45593999997E+02  0.45594000000E+02  0.51100000000E-03 0. -1.
    9900012    2    1    2    0    0  0.10897795518E+01 -0.42462807258E+00  0.15830734730E+00  0.90007750159E+02  0.90000011661E+02 0.  0.
        -12    1    1    2    0    0 -0.10897795518E+01  0.42462807258E+00 -0.15830734730E+00  0.11802498413E+01  0.00000000000E+00 0.  1.
         11    1    3    3    0    0  0.11179542848E+02 -0.59186149159E+01 -0.38617605101E+02  0.40636579640E+02  0.51100000000E-03 0. -1.
        -11    1    3    3    0    0  0.84600707499E+01  0.33779277684E+01  0.41024080313E+01  0.99906428731E+01  0.51100000000E-03 0.  1.
        -12    1    3    3    0    0 -0.18549834046E+02  0.21160590749E+01  0.34673504417E+02  0.39380527646E+02  0.00000000000E+00 0.  1.
</event>
<event>
 7    1  0.3925070E-015  0.9000817E+02  0.7816164E-02  0.1186338E+00
        -11   -1    0    0    0    0  0.00000000000E+00  0.00000000000E+00  0.45593999997E+02  0.45594000000E+02  0.51100000000E-03 0.  1.
         11   -1    0    0    0    0 -0.00000000000E+00 -0.00000000000E+00 -0.45593999997E+02  0.45594000000E+02  0.51100000000E-03 0. -1.
    9900012    2    1    2    0    0  0.57647925826E+00  0.50927605180E+00 -0.89459978119E+00  0.90008169842E+02  0.90000436883E+02 0.  0.
        -12    1    1    2    0    0 -0.57647925826E+00 -0.50927605180E+00  0.89459978119E+00  0.11798301575E+01  0.00000000000E+00 0.  1.
         11    1    3    3    0    0  0.59953344423E+01  0.29384419599E+02 -0.20203857995E+02  0.36160531362E+02  0.51100000000E-03 0. -1.
        -11    1    3    3    0    0  0.67787615672E+01  0.29150754399E+01 -0.74915845764E+01  0.10515375073E+02  0.51100000000E-03 0.  1.
        -12    1    3    3    0    0 -0.12197616751E+02 -0.31790218987E+02  0.26800842791E+02  0.43332263407E+02  0.00000000000E+00 0.  1.
</event>
<event>
 7    1  0.3925070E-015  0.9000769E+02  0.7816164E-02  0.1186339E+00
        -11   -1    0    0    0    0  0.00000000000E+00  0.00000000000E+00  0.45593999997E+02  0.45594000000E+02  0.51100000000E-03 0.  1.
         11   -1    0    0    0    0 -0.00000000000E+00 -0.00000000000E+00 -0.45593999997E+02  0.45594000000E+02  0.51100000000E-03 0. -1.
    9900012    2    1    2    0    0 -0.91568421918E+00 -0.67857024632E+00  0.30692050693E+00  0.90007688445E+02  0.89999949133E+02 0.  0.
        -12    1    1    2    0    0  0.91568421918E+00  0.67857024632E+00 -0.30692050693E+00  0.11803115546E+01  0.00000000000E+00 0.  1.
         11    1    3    3    0    0  0.46600495994E+01 -0.65068554455E+01  0.48015867843E+01  0.93332987719E+01  0.51100000000E-03 0. -1.
        -11    1    3    3    0    0  0.15492436898E+00 -0.35325864330E+02  0.99221004538E+01  0.36693170617E+02  0.51100000000E-03 0.  1.
         12    1    3    3    0    0 -0.57306581876E+01  0.41154149529E+02 -0.14416766731E+02  0.43981219057E+02  0.00000000000E+00 0. -1.
</event>
<event>
 7    1  0.3925070E-015  0.9000775E+02  0.7816164E-02  0.1186339E+00
        -11   -1    0    0    0    0  0.00000000000E+00  0.00000000000E+00  0.45593999997E+02  0.45594000000E+02  0.51100000000E-03 0.  1.
         11   -1    0    0    0    0 -0.00000000000E+00 -0.00000000000E+00 -0.45593999997E+02  0.45594000000E+02  0.51100000000E-03 0. -1.
    9900012    2    1    2    0    0 -0.78901691512E+00  0.45047712063E+00 -0.75333918910E+00  0.90007746950E+02  0.90000008410E+02 0.  0.
        -12    1    1    2    0    0  0.78901691512E+00 -0.45047712063E+00  0.75333918910E+00  0.11802530502E+01  0.00000000000E+00 0.  1.
         11    1    3    3    0    0 -0.21383513797E+01  0.90872178231E+01  0.60087222804E+00  0.93547379484E+01  0.51100000000E-03 0. -1.
        -11    1    3    3    0    0 -0.31507962352E+02  0.15977350215E+02  0.12269209909E+02  0.37397338455E+02  0.51100000000E-03 0.  1.
         12    1    3    3    0    0  0.32857296816E+02 -0.24614090918E+02 -0.13623421326E+02  0.43255670546E+02  0.00000000000E+00 0. -1.
</event>
<event>
 7    1  0.3925070E-015  0.9000773E+02  0.7816164E-02  0.1186339E+00
        -11   -1    0    0    0    0  0.00000000000E+00  0.00000000000E+00  0.45593999997E+02  0.45594000000E+02  0.51100000000E-03 0. -1.
         11   -1    0    0    0    0 -0.00000000000E+00 -0.00000000000E+00 -0.45593999997E+02  0.45594000000E+02  0.51100000000E-03 0.  1.
    9900012    2    1    2    0    0  0.68835081762E+00  0.81579237922E+00  0.50367805727E+00  0.90007730692E+02  0.89999991937E+02 0.  0.
        -12    1    1    2    0    0 -0.68835081762E+00 -0.81579237922E+00 -0.50367805727E+00  0.11802693080E+01  0.00000000000E+00 0.  1.
         11    1    3    3    0    0  0.19803572024E+01  0.36959001864E+01  0.80575934354E+01  0.90832981382E+01  0.51100000000E-03 0. -1.
        -11    1    3    3    0    0 -0.15618137620E+02 -0.16534868624E+02  0.30490878741E+02  0.38039739612E+02  0.51100000000E-03 0.  1.
         12    1    3    3    0    0  0.14326131235E+02  0.13654760817E+02 -0.38044794119E+02  0.42884692941E+02  0.00000000000E+00 0. -1.
</event>
<event>
 7    1  0.3925070E-015  0.9000711E+02  0.7816164E-02  0.1186340E+00
        -11   -1    0    0    0    0  0.00000000000E+00  0.00000000000E+00  0.45593999997E+02  0.45594000000E+02  0.51100000000E-03 0.  1.
         11   -1    0    0    0    0 -0.00000000000E+00 -0.00000000000E+00 -0.45593999997E+02  0.45594000000E+02  0.51100000000E-03 0. -1.
    9900012    2    1    2    0    0  0.79793548060E+00 -0.79076505534E+00 -0.36398100908E+00  0.90007113647E+02  0.89999366745E+02 0.  0.
        -12    1    1    2    0    0 -0.79793548060E+00  0.79076505534E+00  0.36398100908E+00  0.11808863531E+01  0.00000000000E+00 0.  1.
         11    1    3    3    0    0  0.56686595491E+01  0.27719896664E+01  0.68798087749E+01  0.93353841290E+01  0.51100000000E-03 0. -1.
        -11    1    3    3    0    0  0.69574261045E+01 -0.24350754746E+02  0.28206633485E+02  0.37907508591E+02  0.51100000000E-03 0.  1.
         12    1    3    3    0    0 -0.11828150173E+02  0.20788000025E+02 -0.35450423269E+02  0.42764220927E+02  0.00000000000E+00 0. -1.
</event>
<event>
 7    1  0.3925070E-015  0.9000773E+02  0.7816164E-02  0.1186339E+00
        -11   -1    0    0    0    0  0.00000000000E+00  0.00000000000E+00  0.45593999997E+02  0.45594000000E+02  0.51100000000E-03 0. -1.
         11   -1    0    0    0    0 -0.00000000000E+00 -0.00000000000E+00 -0.45593999997E+02  0.45594000000E+02  0.51100000000E-03 0.  1.
    9900012    2    1    2    0    0  0.89164243821E+00  0.77330960781E+00 -0.83469332982E-03  0.90007731097E+02  0.89999992347E+02 0.  0.
        -12    1    1    2    0    0 -0.89164243821E+00 -0.77330960781E+00  0.83469332983E-03  0.11802689032E+01  0.00000000000E+00 0.  1.
         11    1    3    3    0    0 -0.77568972205E+01  0.21281473636E+01 -0.44257717442E+01  0.91807364347E+01  0.51100000000E-03 0. -1.
        -11    1    3    3    0    0  0.67549565261E+01  0.19558723894E+02 -0.32395095133E+02  0.38439762056E+02  0.51100000000E-03 0.  1.
         12    1    3    3    0    0  0.18935831326E+01 -0.20913561650E+02  0.36820032184E+02  0.42387232606E+02  0.00000000000E+00 0. -1.
</event>
<event>
 7    1  0.3925070E-015  0.9000777E+02  0.7816164E-02  0.1186339E+00
        -11   -1    0    0    0    0  0.00000000000E+00  0.00000000000E+00  0.45593999997E+02  0.45594000000E+02  0.51100000000E-03 0.  1.
         11   -1    0    0    0    0 -0.00000000000E+00 -0.00000000000E+00 -0.45593999997E+02  0.45594000000E+02  0.51100000000E-03 0. -1.
    9900012    2    1    2    0    0 -0.81557442964E+00  0.53914330255E+00  0.66113868162E+00  0.90007770570E+02  0.90000032342E+02 0.  0.
        -12    1    1    2    0    0  0.81557442964E+00 -0.53914330255E+00 -0.66113868162E+00  0.11802294299E+01  0.00000000000E+00 0.  1.
         11    1    3    3    0    0 -0.27567793737E+01  0.75127898863E+01 -0.76254221270E+01  0.11053909140E+02  0.51100000000E-03 0. -1.
        -11    1    3    3    0    0  0.14410134955E+02  0.33261691825E+02  0.62306357332E+01  0.36780605682E+02  0.51100000000E-03 0.  1.
         12    1    3    3    0    0 -0.12468930011E+02 -0.40235338409E+02  0.20559250754E+01  0.42173255748E+02  0.00000000000E+00 0. -1.
</event>
<event>
 7    1  0.3925070E-015  0.9000772E+02  0.7816164E-02  0.1186339E+00
        -11   -1    0    0    0    0  0.00000000000E+00  0.00000000000E+00  0.45593999997E+02  0.45594000000E+02  0.51100000000E-03 0. -1.
         11   -1    0    0    0    0 -0.00000000000E+00 -0.00000000000E+00 -0.45593999997E+02  0.45594000000E+02  0.51100000000E-03 0.  1.
    9900012    2    1    2    0    0 -0.76127597384E+00  0.85336285441E+00 -0.29204565770E+00  0.90007720399E+02  0.89999981509E+02 0.  0.
        -12    1    1    2    0    0  0.76127597384E+00 -0.85336285441E+00  0.29204565770E+00  0.11802796007E+01  0.00000000000E+00 0.  1.
         11    1    3    3    0    0 -0.21236204848E+02 -0.22682009319E+02  0.23118583005E+02  0.38728785464E+02  0.51100000000E-03 0. -1.
        -11    1    3    3    0    0 -0.57553079652E+01  0.67876427422E+01  0.40475015249E+01  0.97763967097E+01  0.51100000000E-03 0.  1.
        -12    1    3    3    0    0  0.26230236840E+02  0.16747729432E+02 -0.27458130187E+02  0.41502538226E+02  0.00000000000E+00 0.  1.
</event>
<event>
 7    1  0.3925070E-015  0.9000746E+02  0.7816164E-02  0.1186340E+00
        -11   -1    0    0    0    0  0.00000000000E+00  0.00000000000E+00  0.45593999997E+02  0.45594000000E+02  0.51100000000E-03 0.  1.
         11   -1    0    0    0    0 -0.00000000000E+00 -0.00000000000E+00 -0.45593999997E+02  0.45594000000E+02  0.51100000000E-03 0. -1.
    9900012    2    1    2    0    0  0.97074734301E+00 -0.53050524866E-01 -0.66971625838E+00  0.90007455791E+02  0.89999713407E+02 0.  0.
        -12    1    1    2    0    0 -0.97074734301E+00  0.53050524866E-01  0.66971625838E+00  0.11805442088E+01  0.00000000000E+00 0.  1.
         11    1    3    3    0    0  0.21615393123E+02  0.18237513371E+02 -0.27138118839E+02  0.39195785592E+02  0.51100000000E-03 0. -1.
        -11    1    3    3    0    0 -0.64340794063E+01  0.61953832146E+01 -0.34928036551E+01  0.95906114829E+01  0.51100000000E-03 0.  1.
        -12    1    3    3    0    0 -0.14210566374E+02 -0.24485947111E+02  0.29961206236E+02  0.41221058716E+02  0.00000000000E+00 0.  1.
</event>
<event>
 7    1  0.3925070E-015  0.9000774E+02  0.7816164E-02  0.1186339E+00
        -11   -1    0    0    0    0  0.00000000000E+00  0.00000000000E+00  0.45593999997E+02  0.45594000000E+02  0.51100000000E-03 0.  1.
         11   -1    0    0    0    0 -0.00000000000E+00 -0.00000000000E+00 -0.45593999997E+02  0.45594000000E+02  0.51100000000E-03 0. -1.
    9900012    2    1    2    0    0 -0.78547651610E+00  0.81298255492E+00 -0.33927782160E+00  0.90007735863E+02  0.89999997177E+02 0.  0.
        -12    1    1    2    0    0  0.78547651610E+00 -0.81298255492E+00  0.33927782160E+00  0.11802641366E+01  0.00000000000E+00 0.  1.
         11    1    3    3    0    0  0.80811649723E+01  0.15985935079E+01  0.50849313944E+01  0.96807673280E+01  0.51100000000E-03 0. -1.
        -11    1    3    3    0    0 -0.26910664926E+02  0.98610186200E+01  0.28523182826E+02  0.40435078012E+02  0.51100000000E-03 0.  1.
         12    1    3    3    0    0  0.18044023438E+02 -0.10646629573E+02 -0.33947392042E+02  0.39891890524E+02  0.00000000000E+00 0. -1.
</event>
<event>
 7    1  0.3925070E-015  0.9000732E+02  0.7816164E-02  0.1186340E+00
        -11   -1    0    0    0    0  0.00000000000E+00  0.00000000000E+00  0.45593999997E+02  0.45594000000E+02  0.51100000000E-03 0.  1.
         11   -1    0    0    0    0 -0.00000000000E+00 -0.00000000000E+00 -0.45593999997E+02  0.45594000000E+02  0.51100000000E-03 0. -1.
    9900012    2    1    2    0    0  0.96651812702E+00  0.66284245476E+00  0.14311944156E+00  0.90007321981E+02  0.89999577830E+02 0.  0.
        -12    1    1    2    0    0 -0.96651812702E+00 -0.66284245476E+00 -0.14311944156E+00  0.11806780189E+01  0.00000000000E+00 0.  1.
         11    1    3    3    0    0 -0.14024418520E+02 -0.36515647045E+02  0.78686237664E+01  0.39899774864E+02  0.51100000000E-03 0. -1.
        -11    1    3    3    0    0 -0.73776863938E+00  0.83142565948E-01 -0.97369614502E+01  0.97652257421E+01  0.51100000000E-03 0.  1.
        -12    1    3    3    0    0  0.15728705286E+02  0.37095346934E+02  0.20114571254E+01  0.40342321375E+02  0.00000000000E+00 0.  1.
</event>
<event>
 7    1  0.3925070E-015  0.9000785E+02  0.7816164E-02  0.1186339E+00
        -11   -1    0    0    0    0  0.00000000000E+00  0.00000000000E+00  0.45593999997E+02  0.45594000000E+02  0.51100000000E-03 0. -1.
         11   -1    0    0    0    0 -0.00000000000E+00 -0.00000000000E+00 -0.45593999997E+02  0.45594000000E+02  0.51100000000E-03 0.  1.
    9900012    2    1    2    0    0 -0.70997123770E+00  0.41917642335E+00  0.84438993464E+00  0.90007846453E+02  0.90000109226E+02 0.  0.
        -12    1    1    2    0    0  0.70997123770E+00 -0.41917642335E+00 -0.84438993464E+00  0.11801535468E+01  0.00000000000E+00 0.  1.
         11    1    3    3    0    0  0.74497602699E+01 -0.40537063384E+01  0.13124366561E+01  0.85821881472E+01  0.51100000000E-03 0. -1.
        -11    1    3    3    0    0 -0.23703304242E+02 -0.13214328114E+01 -0.35475902770E+02  0.42686443917E+02  0.51100000000E-03 0.  1.
         12    1    3    3    0    0  0.15543572734E+02  0.57943155732E+01  0.35007856049E+02  0.38739214389E+02  0.00000000000E+00 0. -1.
</event>
<event>
 7    1  0.3925070E-015  0.9000765E+02  0.7816164E-02  0.1186339E+00
        -11   -1    0    0    0    0  0.00000000000E+00  0.00000000000E+00  0.45593999997E+02  0.45594000000E+02  0.51100000000E-03 0.  1.
         11   -1    0    0    0    0 -0.00000000000E+00 -0.00000000000E+00 -0.45593999997E+02  0.45594000000E+02  0.51100000000E-03 0. -1.
    9900012    2    1    2    0    0 -0.19954037510E+00 -0.11159807447E+01  0.32861352263E+00  0.90007654190E+02  0.89999914425E+02 0.  0.
        -12    1    1    2    0    0  0.19954037510E+00  0.11159807447E+01 -0.32861352263E+00  0.11803458100E+01  0.00000000000E+00 0.  1.
         11    1    3    3    0    0 -0.25866649910E+01 -0.40134142548E+02  0.63130324749E+01  0.40709883482E+02  0.51100000000E-03 0. -1.
        -11    1    3    3    0    0 -0.40520627645E+00  0.24489243805E+01  0.92548989705E+01  0.95819923796E+01  0.51100000000E-03 0.  1.
        -12    1    3    3    0    0  0.27923308924E+01  0.36569237423E+02 -0.15239317923E+02  0.39715778328E+02  0.00000000000E+00 0.  1.
</event>
<event>
 7    1  0.3925070E-015  0.9000778E+02  0.7816164E-02  0.1186339E+00
        -11   -1    0    0    0    0  0.00000000000E+00  0.00000000000E+00  0.45593999997E+02  0.45594000000E+02  0.51100000000E-03 0.  1.
         11   -1    0    0    0    0 -0.00000000000E+00 -0.00000000000E+00 -0.45593999997E+02  0.45594000000E+02  0.51100000000E-03 0. -1.
    9900012    2    1    2    0    0  0.88492089641E-01  0.31000750945E+00 -0.11353337382E+01  0.90007780443E+02  0.90000042345E+02 0.  0.
        -12    1    1    2    0    0 -0.88492089641E-01 -0.31000750945E+00  0.11353337382E+01  0.11802195571E+01  0.00000000000E+00 0.  1.
         11    1    3    3    0    0  0.91752382971E+01 -0.37710136245E+02  0.62193156487E-02  0.38810300338E+02  0.51100000000E-03 0. -1.
        -11    1    3    3    0    0 -0.10274333316E+02 -0.15648900132E+01 -0.47573299491E+01  0.11429916638E+02  0.51100000000E-03 0.  1.
        -12    1    3    3    0    0  0.11875871090E+01  0.39585033767E+02  0.36157768952E+01  0.39767563466E+02  0.00000000000E+00 0.  1.
</event>
<event>
 7    1  0.3925070E-015  0.9000775E+02  0.7816164E-02  0.1186339E+00
        -11   -1    0    0    0    0  0.00000000000E+00  0.00000000000E+00  0.45593999997E+02  0.45594000000E+02  0.51100000000E-03 0.  1.
         11   -1    0    0    0    0 -0.00000000000E+00 -0.00000000000E+00 -0.45593999997E+02  0.45594000000E+02  0.51100000000E-03 0. -1.
    9900012    2    1    2    0    0  0.54406625019E-02 -0.91477930557E+00 -0.74575414807E+00  0.90007745778E+02  0.90000007222E+02 0.  0.
        -12    1    1    2    0    0 -0.54406625019E-02  0.91477930557E+00  0.74575414807E+00  0.11802542218E+01  0.00000000000E+00 0.  1.
         11    1    3    3    0    0 -0.98161011556E+01  0.36195347406E+01 -0.44900099377E+01  0.11384948974E+02  0.51100000000E-03 0. -1.
        -11    1    3    3    0    0 -0.15233605894E+02 -0.33944185129E+02 -0.83641269368E+01  0.38134355538E+02  0.51100000000E-03 0.  1.
         12    1    3    3    0    0  0.25055147712E+02  0.29409871082E+02  0.12108382726E+02  0.40488441267E+02  0.00000000000E+00 0. -1.
</event>
<event>
 7    1  0.3925070E-015  0.9000777E+02  0.7816164E-02  0.1186339E+00
        -11   -1    0    0    0    0  0.00000000000E+00  0.00000000000E+00  0.45593999997E+02  0.45594000000E+02  0.51100000000E-03 0. -1.
         11   -1    0    0    0    0 -0.00000000000E+00 -0.00000000000E+00 -0.45593999997E+02  0.45594000000E+02  0.51100000000E-03 0.  1.
    9900012    2    1    2    0    0  0.61271516431E+00 -0.55201756306E+00  0.84426809376E+00  0.90007774650E+02  0.90000036475E+02 0.  0.
        -12    1    1    2    0    0 -0.61271516431E+00  0.55201756306E+00 -0.84426809376E+00  0.11802253499E+01  0.00000000000E+00 0.  1.
         11    1    3    3    0    0 -0.26270663568E+02  0.24782927561E+00  0.29126000089E+02  0.39224138807E+02  0.51100000000E-03 0. -1.
        -11    1    3    3    0    0 -0.74529891086E+01  0.20152724183E+01 -0.48126414171E+01  0.90977957354E+01  0.51100000000E-03 0.  1.
        -12    1    3    3    0    0  0.34336367841E+02 -0.28151192570E+01 -0.23469090578E+02  0.41685840108E+02  0.00000000000E+00 0.  1.
</event>
<event>
 7    1  0.3925070E-015  0.9000773E+02  0.7816164E-02  0.1186339E+00
        -11   -1    0    0    0    0  0.00000000000E+00  0.00000000000E+00  0.45593999997E+02  0.45594000000E+02  0.51100000000E-03 0.  1.
         11   -1    0    0    0    0 -0.00000000000E+00 -0.00000000000E+00 -0.45593999997E+02  0.45594000000E+02  0.51100000000E-03 0. -1.
    9900012    2    1    2    0    0  0.11125023017E+01 -0.24812852501E+00 -0.30629707377E+00  0.90007725865E+02  0.89999987047E+02 0.  0.
        -12    1    1    2    0    0 -0.11125023017E+01  0.24812852501E+00  0.30629707377E+00  0.11802741349E+01  0.00000000000E+00 0.  1.
         11    1    3    3    0    0 -0.31772387486E+02 -0.12042465904E+02  0.15792279455E+02  0.37468676014E+02  0.51100000000E-03 0. -1.
        -11    1    3    3    0    0 -0.48284670347E+01  0.40431841962E+01  0.55275789547E+01  0.83794726392E+01  0.51100000000E-03 0.  1.
        -12    1    3    3    0    0  0.37713356823E+02  0.77511531830E+01 -0.21626155483E+02  0.44159577211E+02  0.00000000000E+00 0.  1.
</event>
<event>
 7    1  0.3925070E-015  0.9000773E+02  0.7816164E-02  0.1186339E+00
        -11   -1    0    0    0    0  0.00000000000E+00  0.00000000000E+00  0.45593999997E+02  0.45594000000E+02  0.51100000000E-03 0.  1.
         11   -1    0    0    0    0 -0.00000000000E+00 -0.00000000000E+00 -0.45593999997E+02  0.45594000000E+02  0.51100000000E-03 0. -1.
    9900012    2    1    2    0    0 -0.61653582729E+00 -0.21347946997E+00 -0.98353827497E+00  0.90007729926E+02  0.89999991161E+02 0.  0.
        -12    1    1    2    0    0  0.61653582729E+00  0.21347946997E+00  0.98353827497E+00  0.11802700745E+01  0.00000000000E+00 0.  1.
         11    1    3    3    0    0 -0.29893610520E+02  0.12097747984E+02  0.21136332684E+02  0.38558112192E+02  0.51100000000E-03 0. -1.
        -11    1    3    3    0    0 -0.44519137445E+01 -0.78691005082E+01  0.25873995969E+01  0.94040903724E+01  0.51100000000E-03 0.  1.
        -12    1    3    3    0    0  0.33728988437E+02 -0.44421269455E+01 -0.24707270556E+02  0.42045527362E+02  0.00000000000E+00 0.  1.
</event>
<event>
 7    1  0.3925070E-015  0.9000778E+02  0.7816164E-02  0.1186339E+00
        -11   -1    0    0    0    0  0.00000000000E+00  0.00000000000E+00  0.45593999997E+02  0.45594000000E+02  0.51100000000E-03 0. -1.
         11   -1    0    0    0    0 -0.00000000000E+00 -0.00000000000E+00 -0.45593999997E+02  0.45594000000E+02  0.51100000000E-03 0.  1.
    9900012    2    1    2    0    0  0.10839671595E+01  0.31079926850E+00  0.34834022988E+00  0.90007778875E+02  0.90000040756E+02 0.  0.
        -12    1    1    2    0    0 -0.10839671595E+01 -0.31079926850E+00 -0.34834022988E+00  0.11802211250E+01  0.00000000000E+00 0.  1.
         11    1    3    3    0    0 -0.59267117941E+01 -0.34144956089E+00 -0.50449653158E+01  0.77906466864E+01  0.51100000000E-03 0. -1.
        -11    1    3    3    0    0 -0.62744496275E+01 -0.11580811604E+02 -0.35310403841E+02  0.37686980978E+02  0.51100000000E-03 0.  1.
         12    1    3    3    0    0  0.13285128581E+02  0.12233060434E+02  0.40703709387E+02  0.44530151211E+02  0.00000000000E+00 0. -1.
</event>
<event>
 7    1  0.3925070E-015  0.9000775E+02  0.7816164E-02  0.1186339E+00
        -11   -1    0    0    0    0  0.00000000000E+00  0.00000000000E+00  0.45593999997E+02  0.45594000000E+02  0.51100000000E-03 0.  1.
         11   -1    0    0    0    0 -0.00000000000E+00 -0.00000000000E+00 -0.45593999997E+02  0.45594000000E+02  0.51100000000E-03 0. -1.
    9900012    2    1    2    0    0  0.83131811450E+00 -0.24704446635E+00 -0.80054182561E+00  0.90007750878E+02  0.90000012389E+02 0.  0.
        -12    1    1    2    0    0 -0.83131811450E+00  0.24704446635E+00  0.80054182561E+00  0.11802491222E+01  0.00000000000E+00 0.  1.
         11    1    3    3    0    0  0.54125006007E+01 -0.26655800003E+01 -0.43385243133E+01  0.74312363016E+01  0.51100000000E-03 0. -1.
        -11    1    3    3    0    0  0.22384956987E+02 -0.30790703270E+02 -0.65429737740E+01  0.38625952587E+02  0.51100000000E-03 0.  1.
         12    1    3    3    0    0 -0.26966139473E+02  0.33209238804E+02  0.10080956262E+02  0.43950561989E+02  0.00000000000E+00 0. -1.
</event>
<event>
 7    1  0.3925070E-015  0.9000770E+02  0.7816164E-02  0.1186339E+00
        -11   -1    0    0    0    0  0.00000000000E+00  0.00000000000E+00  0.45593999997E+02  0.45594000000E+02  0.51100000000E-03 0. -1.
         11   -1    0    0    0    0 -0.00000000000E+00 -0.00000000000E+00 -0.45593999997E+02  0.45594000000E+02  0.51100000000E-03 0.  1.
    9900012    2    1    2    0    0 -0.22267271137E+00  0.93029311741E+00 -0.69143243485E+00  0.90007700363E+02  0.89999961208E+02 0.  0.
        -12    1    1    2    0    0  0.22267271137E+00 -0.93029311741E+00  0.69143243485E+00  0.11802996368E+01  0.00000000000E+00 0.  1.
         11    1    3    3    0    0  0.35056875658E+01  0.78085700642E+01 -0.43668613868E+01  0.96090108955E+01  0.51100000000E-03 0. -1.
        -11    1    3    3    0    0 -0.10634296555E+02  0.28443920923E+02 -0.20859040620E+02  0.36840799076E+02  0.51100000000E-03 0.  1.
         12    1    3    3    0    0  0.69059362776E+01 -0.35322197870E+02  0.24534469572E+02  0.43557890392E+02  0.00000000000E+00 0. -1.
</event>
<event>
 7    1  0.3925070E-015  0.9000780E+02  0.7816164E-02  0.1186339E+00
        -11   -1    0    0    0    0  0.00000000000E+00  0.00000000000E+00  0.45593999997E+02  0.45594000000E+02  0.51100000000E-03 0.  1.
         11   -1    0    0    0    0 -0.00000000000E+00 -0.00000000000E+00 -0.45593999997E+02  0.45594000000E+02  0.51100000000E-03 0. -1.
    9900012    2    1    2    0    0 -0.22899418523E+00  0.11569342850E+01  0.43930646610E-01  0.90007802907E+02  0.90000065105E+02 0.  0.
        -12    1    1    2    0    0  0.22899418523E+00 -0.11569342850E+01 -0.43930646610E-01  0.11801970930E+01  0.00000000000E+00 0.  1.
         11    1    3    3    0    0 -0.87527754938E+01  0.54070312494E+01 -0.19259227981E+01  0.10466911897E+02  0.51100000000E-03 0. -1.
        -11    1    3    3    0    0 -0.11901720929E+02 -0.33631327496E+02  0.18428484325E+02  0.40153781702E+02  0.51100000000E-03 0.  1.
         12    1    3    3    0    0  0.20425502237E+02  0.29381230532E+02 -0.16458630880E+02  0.39387109308E+02  0.00000000000E+00 0. -1.
</event>
<event>
 7    1  0.3925070E-015  0.9000772E+02  0.7816164E-02  0.1186339E+00
        -11   -1    0    0    0    0  0.00000000000E+00  0.00000000000E+00  0.45593999997E+02  0.45594000000E+02  0.51100000000E-03 0.  1.
         11   -1    0    0    0    0 -0.00000000000E+00 -0.00000000000E+00 -0.45593999997E+02  0.45594000000E+02  0.51100000000E-03 0. -1.
    9900012    2    1    2    0    0 -0.63714330189E+00  0.22679694125E+00 -0.96730345909E+00  0.90007718499E+02  0.89999979583E+02 0.  0.
        -12    1    1    2    0    0  0.63714330189E+00 -0.22679694125E+00  0.96730345909E+00  0.11802815010E+01  0.00000000000E+00 0.  1.
         11    1    3    3    0    0  0.18765012858E+02  0.19140961396E+02  0.24429187251E+02  0.36266889868E+02  0.51100000000E-03 0. -1.
        -11    1    3    3    0    0 -0.42275562763E+01 -0.47892036632E+01  0.10498463657E+02  0.12289281640E+02  0.51100000000E-03 0.  1.
        -12    1    3    3    0    0 -0.15174599884E+02 -0.14124960791E+02 -0.35894954367E+02  0.41451546991E+02  0.00000000000E+00 0.  1.
</event>
<event>
 7    1  0.3925070E-015  0.9000770E+02  0.7816164E-02  0.1186339E+00
        -11   -1    0    0    0    0  0.00000000000E+00  0.00000000000E+00  0.45593999997E+02  0.45594000000E+02  0.51100000000E-03 0.  1.
         11   -1    0    0    0    0 -0.00000000000E+00 -0.00000000000E+00 -0.45593999997E+02  0.45594000000E+02  0.51100000000E-03 0. -1.
    9900012    2    1    2    0    0  0.77343915757E+00  0.88736082435E+00  0.86580565350E-01  0.90007697684E+02  0.89999958493E+02 0.  0.
        -12    1    1    2    0    0 -0.77343915757E+00 -0.88736082435E+00 -0.86580565350E-01  0.11803023161E+01  0.00000000000E+00 0.  1.
         11    1    3    3    0    0  0.40116197418E+02  0.40854172774E+01 -0.10800599046E+02  0.41745093958E+02  0.51100000000E-03 0. -1.
        -11    1    3    3    0    0 -0.67177301784E+01  0.69095638374E+01  0.10296283751E+02  0.14102603679E+02  0.51100000000E-03 0.  1.
        -12    1    3    3    0    0 -0.32625028082E+02 -0.10107620290E+02  0.59089585981E+00  0.34160000047E+02  0.00000000000E+00 0.  1.
</event>
<event>
 7    1  0.3925070E-015  0.9000772E+02  0.7816164E-02  0.1186339E+00
        -11   -1    0    0    0    0  0.00000000000E+00  0.00000000000E+00  0.45593999997E+02  0.45594000000E+02  0.51100000000E-03 0.  1.
         11   -1    0    0    0    0 -0.00000000000E+00 -0.00000000000E+00 -0.45593999997E+02  0.45594000000E+02  0.51100000000E-03 0. -1.
    9900012    2    1    2    0    0 -0.52175056360E-01  0.40083257442E+00 -0.11089066360E+01  0.90007719137E+02  0.89999980229E+02 0.  0.
        -12    1    1    2    0    0  0.52175056360E-01 -0.40083257442E+00  0.11089066360E+01  0.11802808634E+01  0.00000000000E+00 0.  1.
         11    1    3    3    0    0  0.10567336468E+02  0.37744487720E+01 -0.66151144917E+00  0.11240669963E+02  0.51100000000E-03 0. -1.
        -11    1    3    3    0    0  0.15785181307E+02  0.29134799919E+02 -0.12131121106E+02  0.35287003482E+02  0.51100000000E-03 0.  1.
         12    1    3    3    0    0 -0.26404692831E+02 -0.32508416117E+02  0.11683725919E+02  0.43480045691E+02  0.00000000000E+00 0. -1.
</event>
<event>
 7    1  0.3925070E-015  0.9000772E+02  0.7816164E-02  0.1186339E+00
        -11   -1    0    0    0    0  0.00000000000E+00  0.00000000000E+00  0.45593999997E+02  0.45594000000E+02  0.51100000000E-03 0.  1.
         11   -1    0    0    0    0 -0.00000000000E+00 -0.00000000000E+00 -0.45593999997E+02  0.45594000000E+02  0.51100000000E-03 0. -1.
    9900012    2    1    2    0    0  0.10676874530E+01  0.49909998214E+00 -0.63184400930E-01  0.90007724796E+02  0.89999985963E+02 0.  0.
        -12    1    1    2    0    0 -0.10676874530E+01 -0.49909998214E+00  0.63184400930E-01  0.11802752044E+01  0.00000000000E+00 0.  1.
         11    1    3    3    0    0  0.11169845463E+02 -0.14534106337E+01 -0.63528098698E+01  0.12931977561E+02  0.51100000000E-03 0. -1.
        -11    1    3    3    0    0 -0.17683193542E+02 -0.22226606788E+01  0.39192060219E+02  0.43054072267E+02  0.51100000000E-03 0.  1.
         12    1    3    3    0    0  0.75810355320E+01  0.41751712946E+01 -0.32902434750E+02  0.34021674967E+02  0.00000000000E+00 0. -1.
</event>
<event>
 7    1  0.3925070E-015  0.9000770E+02  0.7816164E-02  0.1186339E+00
        -11   -1    0    0    0    0  0.00000000000E+00  0.00000000000E+00  0.45593999997E+02  0.45594000000E+02  0.51100000000E-03 0. -1.
         11   -1    0    0    0    0 -0.00000000000E+00 -0.00000000000E+00 -0.45593999997E+02  0.45594000000E+02  0.51100000000E-03 0.  1.
    9900012    2    1    2    0    0  0.10139826724E+01  0.38601179780E+00  0.46470052224E+00  0.90007698113E+02  0.89999958929E+02 0.  0.
        -12    1    1    2    0    0 -0.10139826724E+01 -0.38601179780E+00 -0.46470052224E+00  0.11803018865E+01  0.00000000000E+00 0.  1.
         11    1    3    3    0    0  0.64225111935E+01  0.45080790967E+01  0.56053243924E+01  0.96431887350E+01  0.51100000000E-03 0. -1.
        -11    1    3    3    0    0  0.26616341837E+02 -0.14607699446E+02 -0.26640490544E+02  0.40392205592E+02  0.51100000000E-03 0.  1.
         12    1    3    3    0    0 -0.32024870358E+02  0.10485632147E+02  0.21499866674E+02  0.39972303786E+02  0.00000000000E+00 0. -1.
</event>
<event>
 7    1  0.3925070E-015  0.9000769E+02  0.7816164E-02  0.1186339E+00
        -11   -1    0    0    0    0  0.00000000000E+00  0.00000000000E+00  0.45593999997E+02  0.45594000000E+02  0.51100000000E-03 0.  1.
         11   -1    0    0    0    0 -0.00000000000E+00 -0.00000000000E+00 -0.45593999997E+02  0.45594000000E+02  0.51100000000E-03 0. -1.
    9900012    2    1    2    0    0 -0.87019032781E+00  0.50205912973E+00 -0.61954087479E+00  0.90007692637E+02  0.89999953379E+02 0.  0.
        -12    1    1    2    0    0  0.87019032781E+00 -0.50205912973E+00  0.61954087479E+00  0.11803073633E+01  0.00000000000E+00 0.  1.
         11    1    3    3    0    0  0.13166527532E+02 -0.19523729191E+02 -0.33681257380E+02  0.41096965189E+02  0.51100000000E-03 0. -1.
        -11    1    3    3    0    0  0.73339996335E+01  0.14522926521E+01  0.46777643040E+01  0.88191940514E+01  0.51100000000E-03 0.  1.
        -12    1    3    3    0    0 -0.21370717493E+02  0.18573495669E+02  0.28383952201E+02  0.40091533396E+02  0.00000000000E+00 0.  1.
</event>
<event>
 7    1  0.3925070E-015  0.9000672E+02  0.7816164E-02  0.1186341E+00
        -11   -1    0    0    0    0  0.00000000000E+00  0.00000000000E+00  0.45593999997E+02  0.45594000000E+02  0.51100000000E-03 0.  1.
         11   -1    0    0    0    0 -0.00000000000E+00 -0.00000000000E+00 -0.45593999997E+02  0.45594000000E+02  0.51100000000E-03 0. -1.
    9900012    2    1    2    0    0 -0.99536511452E+00 -0.38717528213E+00 -0.50474694431E+00  0.90006718540E+02  0.89998966419E+02 0.  0.
        -12    1    1    2    0    0  0.99536511452E+00  0.38717528213E+00  0.50474694431E+00  0.11812814601E+01  0.00000000000E+00 0.  1.
         11    1    3    3    0    0 -0.88389153173E+01 -0.18310164254E+02 -0.24228565035E+02  0.31629288688E+02  0.51100000000E-03 0. -1.
        -11    1    3    3    0    0 -0.17754451336E+02  0.14026550725E+02 -0.90130372745E+00  0.22644580283E+02  0.51100000000E-03 0.  1.
        -12    1    3    3    0    0  0.25598001539E+02  0.38964382465E+01  0.24625121818E+02  0.35732849569E+02  0.00000000000E+00 0.  1.
</event>
<event>
 7    1  0.3925070E-015  0.9000774E+02  0.7816164E-02  0.1186339E+00
        -11   -1    0    0    0    0  0.00000000000E+00  0.00000000000E+00  0.45593999997E+02  0.45594000000E+02  0.51100000000E-03 0. -1.
         11   -1    0    0    0    0 -0.00000000000E+00 -0.00000000000E+00 -0.45593999997E+02  0.45594000000E+02  0.51100000000E-03 0.  1.
    9900012    2    1    2    0    0 -0.11101633308E+01  0.27227259348E+00  0.29397058103E+00  0.90007739991E+02  0.90000001359E+02 0.  0.
        -12    1    1    2    0    0  0.11101633308E+01 -0.27227259348E+00 -0.29397058103E+00  0.11802600090E+01  0.00000000000E+00 0.  1.
         11    1    3    3    0    0 -0.37222283487E+02 -0.75329271671E+01 -0.35159807114E+01  0.38139290768E+02  0.51100000000E-03 0. -1.
        -11    1    3    3    0    0 -0.48859639995E+01  0.82551706191E+00  0.86815056269E+01  0.99961323938E+01  0.51100000000E-03 0.  1.
        -12    1    3    3    0    0  0.40998084155E+02  0.69796826987E+01 -0.48715543344E+01  0.41872316829E+02  0.00000000000E+00 0.  1.
</event>
<event>
 7    1  0.3925070E-015  0.9000774E+02  0.7816164E-02  0.1186339E+00
        -11   -1    0    0    0    0  0.00000000000E+00  0.00000000000E+00  0.45593999997E+02  0.45594000000E+02  0.51100000000E-03 0.  1.
         11   -1    0    0    0    0 -0.00000000000E+00 -0.00000000000E+00 -0.45593999997E+02  0.45594000000E+02  0.51100000000E-03 0. -1.
    9900012    2    1    2    0    0 -0.72397061021E-01  0.38011210887E+00 -0.11150296248E+01  0.90007738328E+02  0.89999999674E+02 0.  0.
        -12    1    1    2    0    0  0.72397061021E-01 -0.38011210887E+00  0.11150296248E+01  0.11802616718E+01  0.00000000000E+00 0.  1.
         11    1    3    3    0    0 -0.62840419772E+01  0.77315814428E+01 -0.16811267030E+01  0.10104094340E+02  0.51100000000E-03 0. -1.
        -11    1    3    3    0    0 -0.20040053988E+02 -0.85009587806E+01  0.32144821435E+02  0.38822153590E+02  0.51100000000E-03 0.  1.
         12    1    3    3    0    0  0.26251698904E+02  0.11494894467E+01 -0.31578724357E+02  0.41081490398E+02  0.00000000000E+00 0. -1.
</event>
<event>
 7    1  0.3925070E-015  0.9000772E+02  0.7816164E-02  0.1186339E+00
        -11   -1    0    0    0    0  0.00000000000E+00  0.00000000000E+00  0.45593999997E+02  0.45594000000E+02  0.51100000000E-03 0.  1.
         11   -1    0    0    0    0 -0.00000000000E+00 -0.00000000000E+00 -0.45593999997E+02  0.45594000000E+02  0.51100000000E-03 0. -1.
    9900012    2    1    2    0    0 -0.11251837658E+01 -0.30968484170E+00  0.17640312973E+00  0.90007719833E+02  0.89999980935E+02 0.  0.
        -12    1    1    2    0    0  0.11251837658E+01  0.30968484170E+00 -0.17640312973E+00  0.11802801669E+01  0.00000000000E+00 0.  1.
         11    1    3    3    0    0  0.62908544944E+01 -0.67115393058E+01  0.30354687251E+01  0.96867786578E+01  0.51100000000E-03 0. -1.
        -11    1    3    3    0    0  0.27968926496E+02  0.25488910190E+02  0.79961310063E+01  0.38676653208E+02  0.51100000000E-03 0.  1.
         12    1    3    3    0    0 -0.35384964756E+02 -0.19087055726E+02 -0.10855196602E+02  0.41644287968E+02  0.00000000000E+00 0. -1.
</event>
<event>
 7    1  0.3925070E-015  0.9000783E+02  0.7816164E-02  0.1186339E+00
        -11   -1    0    0    0    0  0.00000000000E+00  0.00000000000E+00  0.45593999997E+02  0.45594000000E+02  0.51100000000E-03 0. -1.
         11   -1    0    0    0    0 -0.00000000000E+00 -0.00000000000E+00 -0.45593999997E+02  0.45594000000E+02  0.51100000000E-03 0.  1.
    9900012    2    1    2    0    0 -0.10903678388E+01  0.40323257765E+00 -0.20325598807E+00  0.90007825635E+02  0.90000088133E+02 0.  0.
        -12    1    1    2    0    0  0.10903678388E+01 -0.40323257765E+00  0.20325598807E+00  0.11801743652E+01  0.00000000000E+00 0.  1.
         11    1    3    3    0    0 -0.38283798226E+01 -0.38595315090E+01  0.78020095437E+01  0.95091444787E+01  0.51100000000E-03 0. -1.
        -11    1    3    3    0    0 -0.35247193929E+02  0.11699734810E+02 -0.16869816696E+02  0.40790184973E+02  0.51100000000E-03 0.  1.
         12    1    3    3    0    0  0.37985205913E+02 -0.74369707237E+01  0.88645511644E+01  0.39708496183E+02  0.00000000000E+00 0. -1.
</event>
<event>
 7    1  0.3925070E-015  0.9000772E+02  0.7816164E-02  0.1186339E+00
        -11   -1    0    0    0    0  0.00000000000E+00  0.00000000000E+00  0.45593999997E+02  0.45594000000E+02  0.51100000000E-03 0.  1.
         11   -1    0    0    0    0 -0.00000000000E+00 -0.00000000000E+00 -0.45593999997E+02  0.45594000000E+02  0.51100000000E-03 0. -1.
    9900012    2    1    2    0    0 -0.87850241611E+00  0.49466333118E+00 -0.61368380115E+00  0.90007717782E+02  0.89999978857E+02 0.  0.
        -12    1    1    2    0    0  0.87850241611E+00 -0.49466333118E+00  0.61368380115E+00  0.11802822180E+01  0.00000000000E+00 0.  1.
         11    1    3    3    0    0  0.22762310539E+01 -0.79893476620E+01  0.31003631982E+01  0.88669699502E+01  0.51100000000E-03 0. -1.
        -11    1    3    3    0    0 -0.11347357783E+02 -0.13352638607E+02  0.33162691021E+02  0.37507593397E+02  0.51100000000E-03 0.  1.
         12    1    3    3    0    0  0.81926243133E+01  0.21836649601E+02 -0.36876738020E+02  0.43633154435E+02  0.00000000000E+00 0. -1.
</event>
<event>
 7    1  0.3925070E-015  0.9000761E+02  0.7816164E-02  0.1186339E+00
        -11   -1    0    0    0    0  0.00000000000E+00  0.00000000000E+00  0.45593999997E+02  0.45594000000E+02  0.51100000000E-03 0.  1.
         11   -1    0    0    0    0 -0.00000000000E+00 -0.00000000000E+00 -0.45593999997E+02  0.45594000000E+02  0.51100000000E-03 0. -1.
    9900012    2    1    2    0    0 -0.34042108650E+00 -0.35492782308E+00 -0.10730570701E+01  0.90007613728E+02  0.89999873429E+02 0.  0.
        -12    1    1    2    0    0  0.34042108650E+00  0.35492782308E+00  0.10730570701E+01  0.11803862721E+01  0.00000000000E+00 0.  1.
         11    1    3    3    0    0  0.12188111202E+01  0.34700387947E-01  0.78861768072E+01  0.79798802973E+01  0.51100000000E-03 0. -1.
        -11    1    3    3    0    0 -0.30435215986E+02 -0.36847714260E+00  0.23595266425E+02  0.38512007808E+02  0.51100000000E-03 0.  1.
         12    1    3    3    0    0  0.28875983779E+02 -0.21151068427E-01 -0.32554500302E+02  0.43515725623E+02  0.00000000000E+00 0. -1.
</event>
<event>
 7    1  0.3925070E-015  0.9000787E+02  0.7816164E-02  0.1186339E+00
        -11   -1    0    0    0    0  0.00000000000E+00  0.00000000000E+00  0.45593999997E+02  0.45594000000E+02  0.51100000000E-03 0.  1.
         11   -1    0    0    0    0 -0.00000000000E+00 -0.00000000000E+00 -0.45593999997E+02  0.45594000000E+02  0.51100000000E-03 0. -1.
    9900012    2    1    2    0    0  0.76316381777E+00  0.38095949967E+00 -0.81556907119E+00  0.90007872014E+02  0.90000135125E+02 0.  0.
        -12    1    1    2    0    0 -0.76316381777E+00 -0.38095949967E+00  0.81556907119E+00  0.11801279859E+01  0.00000000000E+00 0.  1.
         11    1    3    3    0    0 -0.95715814121E+01 -0.19152500893E+01  0.28847920539E+01  0.10178672757E+02  0.51100000000E-03 0. -1.
        -11    1    3    3    0    0 -0.11675776145E+02 -0.27108917412E+02  0.20416056876E+02  0.35889170100E+02  0.51100000000E-03 0.  1.
         12    1    3    3    0    0  0.22010521375E+02  0.29405127001E+02 -0.24116418001E+02  0.43940029157E+02  0.00000000000E+00 0. -1.
</event>
<event>
 7    1  0.3925070E-015  0.9000754E+02  0.7816164E-02  0.1186339E+00
        -11   -1    0    0    0    0  0.00000000000E+00  0.00000000000E+00  0.45593999997E+02  0.45594000000E+02  0.51100000000E-03 0.  1.
         11   -1    0    0    0    0 -0.00000000000E+00 -0.00000000000E+00 -0.45593999997E+02  0.45594000000E+02  0.51100000000E-03 0. -1.
    9900012    2    1    2    0    0  0.13342224984E+00 -0.11448683665E+01 -0.25487875080E+00  0.90007538967E+02  0.89999797681E+02 0.  0.
        -12    1    1    2    0    0 -0.13342224984E+00  0.11448683665E+01  0.25487875080E+00  0.11804610332E+01  0.00000000000E+00 0.  1.
         11    1    3    3    0    0 -0.72914125883E+01 -0.98034260201E+01  0.77486663339E+01  0.14467677404E+02  0.51100000000E-03 0. -1.
        -11    1    3    3    0    0  0.15259380690E+02 -0.18745070071E+02  0.23042895992E+02  0.33394631409E+02  0.51100000000E-03 0.  1.
         12    1    3    3    0    0 -0.78345458516E+01  0.27403627724E+02 -0.31046441077E+02  0.42145230153E+02  0.00000000000E+00 0. -1.
</event>
<event>
 7    1  0.3925070E-015  0.9000781E+02  0.7816164E-02  0.1186339E+00
        -11   -1    0    0    0    0  0.00000000000E+00  0.00000000000E+00  0.45593999997E+02  0.45594000000E+02  0.51100000000E-03 0.  1.
         11   -1    0    0    0    0 -0.00000000000E+00 -0.00000000000E+00 -0.45593999997E+02  0.45594000000E+02  0.51100000000E-03 0. -1.
    9900012    2    1    2    0    0  0.41305979033E+00  0.98527379067E+00 -0.50146393679E+00  0.90007809798E+02  0.90000072087E+02 0.  0.
        -12    1    1    2    0    0 -0.41305979033E+00 -0.98527379067E+00  0.50146393679E+00  0.11801902020E+01  0.00000000000E+00 0.  1.
         11    1    3    3    0    0 -0.41195957167E+00  0.31486596290E+02 -0.85851419791E+00  0.31500992103E+02  0.51100000000E-03 0. -1.
        -11    1    3    3    0    0  0.10260073937E+02  0.10480887613E+02 -0.62383994336E+01  0.15938498992E+02  0.51100000000E-03 0.  1.
        -12    1    3    3    0    0 -0.94350545749E+01 -0.40982210112E+02  0.65954496947E+01  0.42568318703E+02  0.00000000000E+00 0.  1.
</event>
<event>
 7    1  0.3925070E-015  0.9000776E+02  0.7816164E-02  0.1186339E+00
        -11   -1    0    0    0    0  0.00000000000E+00  0.00000000000E+00  0.45593999997E+02  0.45594000000E+02  0.51100000000E-03 0.  1.
         11   -1    0    0    0    0 -0.00000000000E+00 -0.00000000000E+00 -0.45593999997E+02  0.45594000000E+02  0.51100000000E-03 0. -1.
    9900012    2    1    2    0    0 -0.93190459504E+00 -0.69014612201E+00  0.21958327728E+00  0.90007760762E+02  0.90000022404E+02 0.  0.
        -12    1    1    2    0    0  0.93190459504E+00  0.69014612201E+00 -0.21958327728E+00  0.11802392383E+01  0.00000000000E+00 0.  1.
         11    1    3    3    0    0  0.40446732914E+01  0.58181548692E+01  0.46998112847E+01  0.85028544906E+01  0.51100000000E-03 0. -1.
        -11    1    3    3    0    0  0.37746962116E+02 -0.15294281648E+01  0.27954716702E+01  0.37881221755E+02  0.51100000000E-03 0.  1.
         12    1    3    3    0    0 -0.42723540003E+02 -0.49788728264E+01 -0.72756996776E+01  0.43623684516E+02  0.00000000000E+00 0. -1.
</event>
<event>
 7    1  0.3925070E-015  0.9000800E+02  0.7816164E-02  0.1186339E+00
        -11   -1    0    0    0    0  0.00000000000E+00  0.00000000000E+00  0.45593999997E+02  0.45594000000E+02  0.51100000000E-03 0.  1.
         11   -1    0    0    0    0 -0.00000000000E+00 -0.00000000000E+00 -0.45593999997E+02  0.45594000000E+02  0.51100000000E-03 0. -1.
    9900012    2    1    2    0    0  0.67568940343E+00  0.85887447508E+00 -0.44518278900E+00  0.90007996081E+02  0.90000260829E+02 0.  0.
        -12    1    1    2    0    0 -0.67568940343E+00 -0.85887447508E+00  0.44518278900E+00  0.11800039193E+01  0.00000000000E+00 0.  1.
         11    1    3    3    0    0  0.59173287230E+01  0.95453708898E+01 -0.22314147905E+01  0.11450244402E+02  0.51100000000E-03 0. -1.
        -11    1    3    3    0    0  0.18258829205E+02  0.19740222221E+01  0.33177406460E+02  0.37921259306E+02  0.51100000000E-03 0.  1.
         12    1    3    3    0    0 -0.23500468525E+02 -0.10660518637E+02 -0.31391174458E+02  0.40636492373E+02  0.00000000000E+00 0. -1.
</event>
<event>
 7    1  0.3925070E-015  0.9000790E+02  0.7816164E-02  0.1186339E+00
        -11   -1    0    0    0    0  0.00000000000E+00  0.00000000000E+00  0.45593999997E+02  0.45594000000E+02  0.51100000000E-03 0.  1.
         11   -1    0    0    0    0 -0.00000000000E+00 -0.00000000000E+00 -0.45593999997E+02  0.45594000000E+02  0.51100000000E-03 0. -1.
    9900012    2    1    2    0    0 -0.96760845614E+00  0.48299870267E+00 -0.47230355364E+00  0.90007904869E+02  0.90000168413E+02 0.  0.
        -12    1    1    2    0    0  0.96760845614E+00 -0.48299870267E+00  0.47230355364E+00  0.11800951309E+01  0.00000000000E+00 0.  1.
         11    1    3    3    0    0  0.22788146815E+02 -0.87816915911E+01 -0.27525551713E+02  0.36797740961E+02  0.51100000000E-03 0. -1.
        -11    1    3    3    0    0 -0.29521650988E+01 -0.13238510851E+02  0.15147298105E+02  0.20332586861E+02  0.51100000000E-03 0.  1.
        -12    1    3    3    0    0 -0.20803590173E+02  0.22503201144E+02  0.11905950054E+02  0.32877577047E+02  0.00000000000E+00 0.  1.
</event>
<event>
 7    1  0.3925070E-015  0.9000779E+02  0.7816164E-02  0.1186339E+00
        -11   -1    0    0    0    0  0.00000000000E+00  0.00000000000E+00  0.45593999997E+02  0.45594000000E+02  0.51100000000E-03 0.  1.
         11   -1    0    0    0    0 -0.00000000000E+00 -0.00000000000E+00 -0.45593999997E+02  0.45594000000E+02  0.51100000000E-03 0. -1.
    9900012    2    1    2    0    0  0.94001499672E+00  0.64473939050E+00 -0.30591037543E+00  0.90007788903E+02  0.90000050916E+02 0.  0.
        -12    1    1    2    0    0 -0.94001499672E+00 -0.64473939050E+00  0.30591037543E+00  0.11802110970E+01  0.00000000000E+00 0.  1.
         11    1    3    3    0    0 -0.62040834491E+01  0.33092983708E+01 -0.48060329961E+01  0.85170452958E+01  0.51100000000E-03 0. -1.
        -11    1    3    3    0    0  0.11461847623E+02 -0.36092777706E+02 -0.17001752079E+02  0.41510506230E+02  0.51100000000E-03 0.  1.
         12    1    3    3    0    0 -0.43177491775E+01  0.33428218726E+02  0.21501874700E+02  0.39980237377E+02  0.00000000000E+00 0. -1.
</event>
<event>
 7    1  0.3925070E-015  0.9000774E+02  0.7816164E-02  0.1186339E+00
        -11   -1    0    0    0    0  0.00000000000E+00  0.00000000000E+00  0.45593999997E+02  0.45594000000E+02  0.51100000000E-03 0.  1.
         11   -1    0    0    0    0 -0.00000000000E+00 -0.00000000000E+00 -0.45593999997E+02  0.45594000000E+02  0.51100000000E-03 0. -1.
    9900012    2    1    2    0    0  0.89881931145E+00 -0.20847778501E+00  0.73599189637E+00  0.90007735956E+02  0.89999997271E+02 0.  0.
        -12    1    1    2    0    0 -0.89881931145E+00  0.20847778501E+00 -0.73599189637E+00  0.11802640438E+01  0.00000000000E+00 0.  1.
         11    1    3    3    0    0  0.59803566717E+01  0.24970221964E+02 -0.23147530115E+02  0.34569998576E+02  0.51100000000E-03 0. -1.
        -11    1    3    3    0    0  0.11711000832E+02  0.51847204902E+01 -0.83678633810E+00  0.12834682649E+02  0.51100000000E-03 0.  1.
        -12    1    3    3    0    0 -0.16792538192E+02 -0.30363420240E+02  0.24720308349E+02  0.42603054732E+02  0.00000000000E+00 0.  1.
</event>
<event>
 7    1  0.3925070E-015  0.9000771E+02  0.7816164E-02  0.1186339E+00
        -11   -1    0    0    0    0  0.00000000000E+00  0.00000000000E+00  0.45593999997E+02  0.45594000000E+02  0.51100000000E-03 0.  1.
         11   -1    0    0    0    0 -0.00000000000E+00 -0.00000000000E+00 -0.45593999997E+02  0.45594000000E+02  0.51100000000E-03 0. -1.
    9900012    2    1    2    0    0  0.54987390840E-01  0.10639446981E+01 -0.50801782169E+00  0.90007710188E+02  0.89999971162E+02 0.  0.
        -12    1    1    2    0    0 -0.54987390840E-01 -0.10639446981E+01  0.50801782169E+00  0.11802898123E+01  0.00000000000E+00 0.  1.
         11    1    3    3    0    0 -0.87698905567E+01 -0.18543413895E+01  0.33558366305E+01  0.95713740976E+01  0.51100000000E-03 0. -1.
        -11    1    3    3    0    0 -0.20316915361E+02  0.12273453195E+02  0.27694014228E+02  0.36474280355E+02  0.51100000000E-03 0.  1.
         12    1    3    3    0    0  0.29141793308E+02 -0.93551671072E+01 -0.31557868680E+02  0.43962055735E+02  0.00000000000E+00 0. -1.
</event>
<event>
 7    1  0.3925070E-015  0.9000775E+02  0.7816164E-02  0.1186339E+00
        -11   -1    0    0    0    0  0.00000000000E+00  0.00000000000E+00  0.45593999997E+02  0.45594000000E+02  0.51100000000E-03 0. -1.
         11   -1    0    0    0    0 -0.00000000000E+00 -0.00000000000E+00 -0.45593999997E+02  0.45594000000E+02  0.51100000000E-03 0.  1.
    9900012    2    1    2    0    0  0.67940705285E+00 -0.96377297996E+00  0.50276705860E-01  0.90007754243E+02  0.90000015799E+02 0.  0.
        -12    1    1    2    0    0 -0.67940705285E+00  0.96377297996E+00 -0.50276705860E-01  0.11802457573E+01  0.00000000000E+00 0.  1.
         11    1    3    3    0    0 -0.30249762102E+02  0.10851205551E+02  0.16225733963E+02  0.36000989043E+02  0.51100000000E-03 0. -1.
        -11    1    3    3    0    0 -0.28335130446E+01  0.48882701836E+01  0.75942814640E+01  0.94655740860E+01  0.51100000000E-03 0.  1.
        -12    1    3    3    0    0  0.33762682200E+02 -0.16703248715E+02 -0.23769738722E+02  0.44541191114E+02  0.00000000000E+00 0.  1.
</event>
<event>
 7    1  0.3925070E-015  0.9000768E+02  0.7816164E-02  0.1186339E+00
        -11   -1    0    0    0    0  0.00000000000E+00  0.00000000000E+00  0.45593999997E+02  0.45594000000E+02  0.51100000000E-03 0.  1.
         11   -1    0    0    0    0 -0.00000000000E+00 -0.00000000000E+00 -0.45593999997E+02  0.45594000000E+02  0.51100000000E-03 0. -1.
    9900012    2    1    2    0    0 -0.41617101324E+00 -0.10046391815E+01 -0.45896875126E+00  0.90007682029E+02  0.89999942632E+02 0.  0.
        -12    1    1    2    0    0  0.41617101324E+00  0.10046391815E+01  0.45896875126E+00  0.11803179707E+01  0.00000000000E+00 0.  1.
         11    1    3    3    0    0 -0.45783925071E+01  0.71674513734E+01  0.75536480121E+00  0.85384198411E+01  0.51100000000E-03 0. -1.
        -11    1    3    3    0    0  0.32378437753E+02  0.20549750327E+01  0.25518851586E+02  0.41277087351E+02  0.51100000000E-03 0.  1.
         12    1    3    3    0    0 -0.28216216259E+02 -0.10227065588E+02 -0.26733185138E+02  0.40192174837E+02  0.00000000000E+00 0. -1.
</event>
<event>
 7    1  0.3925070E-015  0.9000765E+02  0.7816164E-02  0.1186339E+00
        -11   -1    0    0    0    0  0.00000000000E+00  0.00000000000E+00  0.45593999997E+02  0.45594000000E+02  0.51100000000E-03 0. -1.
         11   -1    0    0    0    0 -0.00000000000E+00 -0.00000000000E+00 -0.45593999997E+02  0.45594000000E+02  0.51100000000E-03 0.  1.
    9900012    2    1    2    0    0 -0.60123400156E+00 -0.27058015558E+00 -0.97904288154E+00  0.90007652208E+02  0.89999912418E+02 0.  0.
        -12    1    1    2    0    0  0.60123400156E+00  0.27058015558E+00  0.97904288154E+00  0.11803477916E+01  0.00000000000E+00 0.  1.
         11    1    3    3    0    0  0.33648022418E+01 -0.79438712941E+01 -0.42737513841E+01  0.96276651592E+01  0.51100000000E-03 0. -1.
        -11    1    3    3    0    0 -0.57535744652E+01  0.19677948574E+02 -0.34804631960E+02  0.40394154099E+02  0.51100000000E-03 0.  1.
         12    1    3    3    0    0  0.17875382218E+01 -0.12004657435E+02  0.38099340463E+02  0.39985832950E+02  0.00000000000E+00 0. -1.
</event>
<event>
 7    1  0.3925070E-015  0.9000768E+02  0.7816164E-02  0.1186339E+00
        -11   -1    0    0    0    0  0.00000000000E+00  0.00000000000E+00  0.45593999997E+02  0.45594000000E+02  0.51100000000E-03 0.  1.
         11   -1    0    0    0    0 -0.00000000000E+00 -0.00000000000E+00 -0.45593999997E+02  0.45594000000E+02  0.51100000000E-03 0. -1.
    9900012    2    1    2    0    0 -0.54661211706E+00  0.10178099866E+01  0.24170822122E+00  0.90007684432E+02  0.89999945067E+02 0.  0.
        -12    1    1    2    0    0  0.54661211706E+00 -0.10178099866E+01 -0.24170822122E+00  0.11803155678E+01  0.00000000000E+00 0.  1.
         11    1    3    3    0    0  0.15081458303E+02 -0.33028600405E+02 -0.20225745316E+02  0.41562237706E+02  0.51100000000E-03 0. -1.
        -11    1    3    3    0    0  0.12725774769E+01  0.44166942722E+00  0.90297238837E+01  0.91296461593E+01  0.51100000000E-03 0.  1.
        -12    1    3    3    0    0 -0.16900647897E+02  0.33604740964E+02  0.11437729654E+02  0.39315800567E+02  0.00000000000E+00 0.  1.
</event>
<event>
 7    1  0.3925070E-015  0.9000758E+02  0.7816164E-02  0.1186339E+00
        -11   -1    0    0    0    0  0.00000000000E+00  0.00000000000E+00  0.45593999997E+02  0.45594000000E+02  0.51100000000E-03 0.  1.
         11   -1    0    0    0    0 -0.00000000000E+00 -0.00000000000E+00 -0.45593999997E+02  0.45594000000E+02  0.51100000000E-03 0. -1.
    9900012    2    1    2    0    0 -0.67816229114E+00 -0.57878865082E+00 -0.77362138769E+00  0.90007580394E+02  0.89999839655E+02 0.  0.
        -12    1    1    2    0    0  0.67816229114E+00  0.57878865082E+00  0.77362138769E+00  0.11804196063E+01  0.00000000000E+00 0.  1.
         11    1    3    3    0    0 -0.29610246421E+02  0.17107872947E+02 -0.12698834173E+02  0.36478848659E+02  0.51100000000E-03 0. -1.
        -11    1    3    3    0    0 -0.18588219540E+01  0.92270804668E+01 -0.31766612676E+01  0.99340530534E+01  0.51100000000E-03 0.  1.
        -12    1    3    3    0    0  0.30790906084E+02 -0.26913742065E+02  0.15101874053E+02  0.43594678681E+02  0.00000000000E+00 0.  1.
</event>
<event>
 7    1  0.3925070E-015  0.9000781E+02  0.7816164E-02  0.1186339E+00
        -11   -1    0    0    0    0  0.00000000000E+00  0.00000000000E+00  0.45593999997E+02  0.45594000000E+02  0.51100000000E-03 0.  1.
         11   -1    0    0    0    0 -0.00000000000E+00 -0.00000000000E+00 -0.45593999997E+02  0.45594000000E+02  0.51100000000E-03 0. -1.
    9900012    2    1    2    0    0  0.31217325191E+00  0.60576769840E+00 -0.96355276640E+00  0.90007813329E+02  0.90000075665E+02 0.  0.
        -12    1    1    2    0    0 -0.31217325191E+00 -0.60576769840E+00  0.96355276640E+00  0.11801866705E+01  0.00000000000E+00 0.  1.
         11    1    3    3    0    0 -0.19349553918E+01  0.85673340991E+01 -0.19235033563E+01  0.89912808519E+01  0.51100000000E-03 0. -1.
        -11    1    3    3    0    0  0.83442743296E+01  0.35343704459E+02  0.66381413339E+01  0.36917059466E+02  0.51100000000E-03 0.  1.
         12    1    3    3    0    0 -0.60971456859E+01 -0.43305270860E+02 -0.56781907440E+01  0.44099473012E+02  0.00000000000E+00 0. -1.
</event>
<event>
 7    1  0.3925070E-015  0.9000784E+02  0.7816164E-02  0.1186339E+00
        -11   -1    0    0    0    0  0.00000000000E+00  0.00000000000E+00  0.45593999997E+02  0.45594000000E+02  0.51100000000E-03 0. -1.
         11   -1    0    0    0    0 -0.00000000000E+00 -0.00000000000E+00 -0.45593999997E+02  0.45594000000E+02  0.51100000000E-03 0.  1.
    9900012    2    1    2    0    0  0.95130789758E+00  0.69774546946E+00  0.30679270651E-01  0.90007840403E+02  0.90000103097E+02 0.  0.
        -12    1    1    2    0    0 -0.95130789758E+00 -0.69774546946E+00 -0.30679270651E-01  0.11801595967E+01  0.00000000000E+00 0.  1.
         11    1    3    3    0    0 -0.20088565552E+01 -0.37679997253E+01  0.91649706484E+01  0.10110885908E+02  0.51100000000E-03 0. -1.
        -11    1    3    3    0    0  0.18021882835E+02 -0.28126083432E+02  0.15018346655E+02  0.36625340499E+02  0.51100000000E-03 0.  1.
         12    1    3    3    0    0 -0.15061718383E+02  0.32591828627E+02 -0.24152638033E+02  0.43271613996E+02  0.00000000000E+00 0. -1.
</event>
<event>
 7    1  0.3925070E-015  0.9000779E+02  0.7816164E-02  0.1186339E+00
        -11   -1    0    0    0    0  0.00000000000E+00  0.00000000000E+00  0.45593999997E+02  0.45594000000E+02  0.51100000000E-03 0.  1.
         11   -1    0    0    0    0 -0.00000000000E+00 -0.00000000000E+00 -0.45593999997E+02  0.45594000000E+02  0.51100000000E-03 0. -1.
    9900012    2    1    2    0    0 -0.49760984875E+00 -0.87938535792E+00  0.60987689470E+00  0.90007794935E+02  0.90000057028E+02 0.  0.
        -12    1    1    2    0    0  0.49760984875E+00  0.87938535792E+00 -0.60987689470E+00  0.11802050652E+01  0.00000000000E+00 0.  1.
         11    1    3    3    0    0  0.98261796529E+01  0.25138137174E+01 -0.26788118614E+01  0.10490428934E+02  0.51100000000E-03 0. -1.
        -11    1    3    3    0    0  0.64714222410E+01 -0.20466628007E+02  0.34221703581E+02  0.40396623176E+02  0.51100000000E-03 0.  1.
         12    1    3    3    0    0 -0.16795211743E+02  0.17073428931E+02 -0.30933014825E+02  0.39120742824E+02  0.00000000000E+00 0. -1.
</event>
<event>
 7    1  0.3925070E-015  0.9000773E+02  0.7816164E-02  0.1186339E+00
        -11   -1    0    0    0    0  0.00000000000E+00  0.00000000000E+00  0.45593999997E+02  0.45594000000E+02  0.51100000000E-03 0. -1.
         11   -1    0    0    0    0 -0.00000000000E+00 -0.00000000000E+00 -0.45593999997E+02  0.45594000000E+02  0.51100000000E-03 0.  1.
    9900012    2    1    2    0    0  0.72293918737E+00 -0.93188868970E+00  0.44457329873E-01  0.90007731364E+02  0.89999992618E+02 0.  0.
        -12    1    1    2    0    0 -0.72293918737E+00  0.93188868970E+00 -0.44457329873E-01  0.11802686359E+01  0.00000000000E+00 0.  1.
         11    1    3    3    0    0 -0.59078845849E+01 -0.26016913578E+01  0.49290553792E+01  0.81220370217E+01  0.51100000000E-03 0. -1.
        -11    1    3    3    0    0  0.49716455016E+01 -0.39392111053E+02 -0.85912234795E+01  0.40623451273E+02  0.51100000000E-03 0.  1.
         12    1    3    3    0    0  0.16591782707E+01  0.41061913721E+02  0.37066254302E+01  0.41262243069E+02  0.00000000000E+00 0. -1.
</event>
<event>
 7    1  0.3925070E-015  0.9000781E+02  0.7816164E-02  0.1186339E+00
        -11   -1    0    0    0    0  0.00000000000E+00  0.00000000000E+00  0.45593999997E+02  0.45594000000E+02  0.51100000000E-03 0. -1.
         11   -1    0    0    0    0 -0.00000000000E+00 -0.00000000000E+00 -0.45593999997E+02  0.45594000000E+02  0.51100000000E-03 0.  1.
    9900012    2    1    2    0    0 -0.32190765920E+00 -0.86935503409E+00  0.73037517337E+00  0.90007809079E+02  0.90000071359E+02 0.  0.
        -12    1    1    2    0    0  0.32190765920E+00  0.86935503409E+00 -0.73037517337E+00  0.11801909211E+01  0.00000000000E+00 0.  1.
         11    1    3    3    0    0 -0.12712291170E+02  0.27151516782E+01 -0.10017310694E+02  0.16410999641E+02  0.51100000000E-03 0. -1.
        -11    1    3    3    0    0 -0.24493797410E+02  0.14501756869E+02 -0.62438087249E+01  0.29141589035E+02  0.51100000000E-03 0.  1.
         12    1    3    3    0    0  0.36884180921E+02 -0.18086263581E+02  0.16991494592E+02  0.44455220402E+02  0.00000000000E+00 0. -1.
</event>
<event>
 7    1  0.3925070E-015  0.9000771E+02  0.7816164E-02  0.1186339E+00
        -11   -1    0    0    0    0  0.00000000000E+00  0.00000000000E+00  0.45593999997E+02  0.45594000000E+02  0.51100000000E-03 0.  1.
         11   -1    0    0    0    0 -0.00000000000E+00 -0.00000000000E+00 -0.45593999997E+02  0.45594000000E+02  0.51100000000E-03 0. -1.
    9900012    2    1    2    0    0 -0.86303216903E+00 -0.80377935151E+00 -0.46856428801E-01  0.90007711351E+02  0.89999972341E+02 0.  0.
        -12    1    1    2    0    0  0.86303216903E+00  0.80377935151E+00  0.46856428801E-01  0.11802886493E+01  0.00000000000E+00 0.  1.
         11    1    3    3    0    0 -0.22228171716E+02  0.20841568619E+02 -0.20408002762E+02  0.36673548742E+02  0.51100000000E-03 0. -1.
        -11    1    3    3    0    0 -0.42912475519E+01  0.62568419326E+01 -0.36961369532E+01  0.84394493399E+01  0.51100000000E-03 0.  1.
        -12    1    3    3    0    0  0.25656387099E+02 -0.27902189904E+02  0.24057283286E+02  0.44894713269E+02  0.00000000000E+00 0.  1.
</event>
<event>
 7    1  0.3925070E-015  0.9000801E+02  0.7816164E-02  0.1186338E+00
        -11   -1    0    0    0    0  0.00000000000E+00  0.00000000000E+00  0.45593999997E+02  0.45594000000E+02  0.51100000000E-03 0.  1.
         11   -1    0    0    0    0 -0.00000000000E+00 -0.00000000000E+00 -0.45593999997E+02  0.45594000000E+02  0.51100000000E-03 0. -1.
    9900012    2    1    2    0    0 -0.69392904322E+00 -0.81542807236E+00 -0.49588912407E+00  0.90008014203E+02  0.90000279190E+02 0.  0.
        -12    1    1    2    0    0  0.69392904322E+00  0.81542807236E+00  0.49588912407E+00  0.11799857972E+01  0.00000000000E+00 0.  1.
         11    1    3    3    0    0  0.10852564834E+02 -0.42151502022E+02 -0.34330176448E+01  0.43661343275E+02  0.51100000000E-03 0. -1.
        -11    1    3    3    0    0  0.26658281038E+01  0.19524656458E+01 -0.24754134454E+01  0.41287326825E+01  0.51100000000E-03 0.  1.
        -12    1    3    3    0    0 -0.14212321981E+02  0.39383608304E+02  0.54125419662E+01  0.42217938245E+02  0.00000000000E+00 0.  1.
</event>
<event>
 7    1  0.3925070E-015  0.9000771E+02  0.7816164E-02  0.1186339E+00
        -11   -1    0    0    0    0  0.00000000000E+00  0.00000000000E+00  0.45593999997E+02  0.45594000000E+02  0.51100000000E-03 0.  1.
         11   -1    0    0    0    0 -0.00000000000E+00 -0.00000000000E+00 -0.45593999997E+02  0.45594000000E+02  0.51100000000E-03 0. -1.
    9900012    2    1    2    0    0 -0.43272834074E-02 -0.11263426121E+01 -0.35272060143E+00  0.90007712650E+02  0.89999973657E+02 0.  0.
        -12    1    1    2    0    0  0.43272834074E-02  0.11263426121E+01  0.35272060143E+00  0.11802873497E+01  0.00000000000E+00 0.  1.
         11    1    3    3    0    0  0.21146696284E+02  0.86567216956E+01 -0.26241026919E+02  0.34795302675E+02  0.51100000000E-03 0. -1.
        -11    1    3    3    0    0 -0.45522726188E+01 -0.55790844795E+00 -0.11991726826E+02  0.12838845756E+02  0.51100000000E-03 0.  1.
        -12    1    3    3    0    0 -0.16598750949E+02 -0.92251558597E+01  0.37880033143E+02  0.42373564219E+02  0.00000000000E+00 0.  1.
</event>
<event>
 7    1  0.3925070E-015  0.9000789E+02  0.7816164E-02  0.1186339E+00
        -11   -1    0    0    0    0  0.00000000000E+00  0.00000000000E+00  0.45593999997E+02  0.45594000000E+02  0.51100000000E-03 0. -1.
         11   -1    0    0    0    0 -0.00000000000E+00 -0.00000000000E+00 -0.45593999997E+02  0.45594000000E+02  0.51100000000E-03 0.  1.
    9900012    2    1    2    0    0 -0.39812634342E+00 -0.79096575830E+00 -0.78008862721E+00  0.90007885733E+02  0.90000149025E+02 0.  0.
        -12    1    1    2    0    0  0.39812634342E+00  0.79096575830E+00  0.78008862721E+00  0.11801142667E+01  0.00000000000E+00 0.  1.
         11    1    3    3    0    0  0.56203919501E+01 -0.83600888413E+01  0.33557110748E+00  0.10079310459E+02  0.51100000000E-03 0. -1.
        -11    1    3    3    0    0  0.18044825246E+02 -0.28658836008E+00 -0.33962465492E+02  0.38459679062E+02  0.51100000000E-03 0.  1.
         12    1    3    3    0    0 -0.24063343539E+02  0.78557114431E+01  0.32846805757E+02  0.41468896212E+02  0.00000000000E+00 0. -1.
</event>
<event>
 7    1  0.3925070E-015  0.9000808E+02  0.7816164E-02  0.1186338E+00
        -11   -1    0    0    0    0  0.00000000000E+00  0.00000000000E+00  0.45593999997E+02  0.45594000000E+02  0.51100000000E-03 0.  1.
         11   -1    0    0    0    0 -0.00000000000E+00 -0.00000000000E+00 -0.45593999997E+02  0.45594000000E+02  0.51100000000E-03 0. -1.
    9900012    2    1    2    0    0  0.97433996353E+00 -0.63133065699E+00 -0.21046114300E+00  0.90008080233E+02  0.90000346092E+02 0.  0.
        -12    1    1    2    0    0 -0.97433996353E+00  0.63133065699E+00  0.21046114300E+00  0.11799197666E+01  0.00000000000E+00 0.  1.
         11    1    3    3    0    0 -0.27307549606E+01  0.85805519284E+01 -0.10684103046E+01  0.90677668084E+01  0.51100000000E-03 0. -1.
        -11    1    3    3    0    0  0.20897975933E+02  0.28544562567E+02  0.13037594711E+02  0.37702736324E+02  0.51100000000E-03 0.  1.
         12    1    3    3    0    0 -0.17192881008E+02 -0.37756445152E+02 -0.12179645549E+02  0.43237577101E+02  0.00000000000E+00 0. -1.
</event>
<event>
 7    1  0.3925070E-015  0.9000770E+02  0.7816164E-02  0.1186339E+00
        -11   -1    0    0    0    0  0.00000000000E+00  0.00000000000E+00  0.45593999997E+02  0.45594000000E+02  0.51100000000E-03 0.  1.
         11   -1    0    0    0    0 -0.00000000000E+00 -0.00000000000E+00 -0.45593999997E+02  0.45594000000E+02  0.51100000000E-03 0. -1.
    9900012    2    1    2    0    0 -0.30166141128E+00 -0.11075813735E+01 -0.27456019343E+00  0.90007695206E+02  0.89999955983E+02 0.  0.
        -12    1    1    2    0    0  0.30166141128E+00  0.11075813735E+01  0.27456019343E+00  0.11803047936E+01  0.00000000000E+00 0.  1.
         11    1    3    3    0    0 -0.57754525380E+01 -0.50298145298E+01  0.65687245899E+01  0.10089748719E+02  0.51100000000E-03 0. -1.
        -11    1    3    3    0    0  0.27043028903E+02 -0.29309702662E+02 -0.11795653198E+01  0.39897060756E+02  0.51100000000E-03 0.  1.
         12    1    3    3    0    0 -0.21569237776E+02  0.33231935819E+02 -0.56637194634E+01  0.40020885731E+02  0.00000000000E+00 0. -1.
</event>
<event>
 7    1  0.3925070E-015  0.9000775E+02  0.7816164E-02  0.1186339E+00
        -11   -1    0    0    0    0  0.00000000000E+00  0.00000000000E+00  0.45593999997E+02  0.45594000000E+02  0.51100000000E-03 0.  1.
         11   -1    0    0    0    0 -0.00000000000E+00 -0.00000000000E+00 -0.45593999997E+02  0.45594000000E+02  0.51100000000E-03 0. -1.
    9900012    2    1    2    0    0 -0.50633129371E+00  0.91038583380E+00 -0.55480449204E+00  0.90007753513E+02  0.90000015060E+02 0.  0.
        -12    1    1    2    0    0  0.50633129371E+00 -0.91038583380E+00  0.55480449204E+00  0.11802464869E+01  0.00000000000E+00 0.  1.
         11    1    3    3    0    0  0.12781646964E+00  0.23580470579E+01 -0.89236621187E+01  0.92308433443E+01  0.51100000000E-03 0. -1.
        -11    1    3    3    0    0 -0.16074919658E+02 -0.36033111969E+02  0.15213721095E+02  0.42287651981E+02  0.51100000000E-03 0.  1.
         12    1    3    3    0    0  0.15440771895E+02  0.34585450745E+02 -0.68448634682E+01  0.38489258188E+02  0.00000000000E+00 0. -1.
</event>
<event>
 7    1  0.3925070E-015  0.9000781E+02  0.7816164E-02  0.1186339E+00
        -11   -1    0    0    0    0  0.00000000000E+00  0.00000000000E+00  0.45593999997E+02  0.45594000000E+02  0.51100000000E-03 0.  1.
         11   -1    0    0    0    0 -0.00000000000E+00 -0.00000000000E+00 -0.45593999997E+02  0.45594000000E+02  0.51100000000E-03 0. -1.
    9900012    2    1    2    0    0  0.18850930008E+00 -0.32637573585E+00 -0.11183833912E+01  0.90007814300E+02  0.90000076649E+02 0.  0.
        -12    1    1    2    0    0 -0.18850930008E+00  0.32637573585E+00  0.11183833912E+01  0.11801857001E+01  0.00000000000E+00 0.  1.
         11    1    3    3    0    0  0.25734305818E+02 -0.27428378735E+02 -0.12326523403E+02  0.39579207109E+02  0.51100000000E-03 0. -1.
        -11    1    3    3    0    0  0.66183984000E+01  0.82250122981E+00 -0.17936010518E+01  0.69062805219E+01  0.51100000000E-03 0.  1.
        -12    1    3    3    0    0 -0.32164194918E+02  0.26279501769E+02  0.13001741063E+02  0.43522326668E+02  0.00000000000E+00 0.  1.
</event>
<event>
 7    1  0.3925070E-015  0.9000771E+02  0.7816164E-02  0.1186339E+00
        -11   -1    0    0    0    0  0.00000000000E+00  0.00000000000E+00  0.45593999997E+02  0.45594000000E+02  0.51100000000E-03 0.  1.
         11   -1    0    0    0    0 -0.00000000000E+00 -0.00000000000E+00 -0.45593999997E+02  0.45594000000E+02  0.51100000000E-03 0. -1.
    9900012    2    1    2    0    0  0.40528213512E+00  0.42626404714E+00 -0.10232956815E+01  0.90007708215E+02  0.89999969163E+02 0.  0.
        -12    1    1    2    0    0 -0.40528213512E+00 -0.42626404714E+00  0.10232956815E+01  0.11802917854E+01  0.00000000000E+00 0.  1.
         11    1    3    3    0    0  0.14262048830E+02 -0.18480109032E+02 -0.30808848108E+02  0.38653662035E+02  0.51100000000E-03 0. -1.
        -11    1    3    3    0    0  0.65051879189E+01  0.67980724750E+01 -0.38891286293E+01  0.10181187602E+02  0.51100000000E-03 0.  1.
        -12    1    3    3    0    0 -0.20361954614E+02  0.12108300604E+02  0.33674681056E+02  0.41172858578E+02  0.00000000000E+00 0.  1.
</event>
<event>
 7    1  0.3925070E-015  0.9000779E+02  0.7816164E-02  0.1186339E+00
        -11   -1    0    0    0    0  0.00000000000E+00  0.00000000000E+00  0.45593999997E+02  0.45594000000E+02  0.51100000000E-03 0.  1.
         11   -1    0    0    0    0 -0.00000000000E+00 -0.00000000000E+00 -0.45593999997E+02  0.45594000000E+02  0.51100000000E-03 0. -1.
    9900012    2    1    2    0    0  0.80737422784E+00  0.76935671078E+00  0.38616290717E+00  0.90007794644E+02  0.90000056733E+02 0.  0.
        -12    1    1    2    0    0 -0.80737422784E+00 -0.76935671078E+00 -0.38616290717E+00  0.11802053563E+01  0.00000000000E+00 0.  1.
         11    1    3    3    0    0  0.67288128613E+01  0.21355159057E+01 -0.10229315745E+02  0.12428847556E+02  0.51100000000E-03 0. -1.
        -11    1    3    3    0    0 -0.18719625638E+02  0.18299436525E+02 -0.24163454576E+02  0.35625360327E+02  0.51100000000E-03 0.  1.
        -12    1    3    3    0    0  0.12798187005E+02 -0.19665595720E+02  0.34778933228E+02  0.41953586760E+02  0.00000000000E+00 0.  1.
</event>
<event>
 7    1  0.3925070E-015  0.9000772E+02  0.7816164E-02  0.1186339E+00
        -11   -1    0    0    0    0  0.00000000000E+00  0.00000000000E+00  0.45593999997E+02  0.45594000000E+02  0.51100000000E-03 0.  1.
         11   -1    0    0    0    0 -0.00000000000E+00 -0.00000000000E+00 -0.45593999997E+02  0.45594000000E+02  0.51100000000E-03 0. -1.
    9900012    2    1    2    0    0 -0.32052939277E+00 -0.45343028393E+00 -0.10415044014E+01  0.90007716334E+02  0.89999977390E+02 0.  0.
        -12    1    1    2    0    0  0.32052939277E+00  0.45343028393E+00  0.10415044014E+01  0.11802836660E+01  0.00000000000E+00 0.  1.
         11    1    3    3    0    0 -0.19842684445E+01 -0.37179317809E+02 -0.47086615569E+00  0.37235207924E+02  0.51100000000E-03 0. -1.
        -11    1    3    3    0    0 -0.82779624423E+01 -0.45096768636E+01  0.37303673750E+01  0.10137923289E+02  0.51100000000E-03 0.  1.
        -12    1    3    3    0    0  0.99417014940E+01  0.41235564388E+02 -0.43010056207E+01  0.42634585120E+02  0.00000000000E+00 0.  1.
</event>
<event>
 7    1  0.3925070E-015  0.9000782E+02  0.7816164E-02  0.1186339E+00
        -11   -1    0    0    0    0  0.00000000000E+00  0.00000000000E+00  0.45593999997E+02  0.45594000000E+02  0.51100000000E-03 0.  1.
         11   -1    0    0    0    0 -0.00000000000E+00 -0.00000000000E+00 -0.45593999997E+02  0.45594000000E+02  0.51100000000E-03 0. -1.
    9900012    2    1    2    0    0  0.10036410679E+01 -0.38450082662E+00 -0.48753647158E+00  0.90007818620E+02  0.90000081026E+02 0.  0.
        -12    1    1    2    0    0 -0.10036410679E+01  0.38450082662E+00  0.48753647158E+00  0.11801813801E+01  0.00000000000E+00 0.  1.
         11    1    3    3    0    0 -0.44405113879E+01  0.69359644939E+01  0.38866561796E+01  0.91066921199E+01  0.51100000000E-03 0. -1.
        -11    1    3    3    0    0  0.22075433636E+02  0.31339125729E+02  0.17454670043E+01  0.38373327026E+02  0.51100000000E-03 0.  1.
         12    1    3    3    0    0 -0.16631281180E+02 -0.38659591050E+02 -0.61196596555E+01  0.42527799474E+02  0.00000000000E+00 0. -1.
</event>
<event>
 7    1  0.3925070E-015  0.9000803E+02  0.7816164E-02  0.1186338E+00
        -11   -1    0    0    0    0  0.00000000000E+00  0.00000000000E+00  0.45593999997E+02  0.45594000000E+02  0.51100000000E-03 0. -1.
         11   -1    0    0    0    0 -0.00000000000E+00 -0.00000000000E+00 -0.45593999997E+02  0.45594000000E+02  0.51100000000E-03 0.  1.
    9900012    2    1    2    0    0  0.13120311746E+00  0.79897150060E+00  0.85834641369E+00  0.90008030389E+02  0.90000295590E+02 0.  0.
        -12    1    1    2    0    0 -0.13120311746E+00 -0.79897150060E+00 -0.85834641369E+00  0.11799696109E+01  0.00000000000E+00 0.  1.
         11    1    3    3    0    0  0.40100710624E+01  0.63129881934E+00 -0.93316078775E+01  0.10176350719E+02  0.51100000000E-03 0. -1.
        -11    1    3    3    0    0  0.18881074655E+02 -0.47857067832E+01 -0.28589723838E+02  0.34594367735E+02  0.51100000000E-03 0.  1.
         12    1    3    3    0    0 -0.22759942600E+02  0.49533794645E+01  0.38779678129E+02  0.45237311935E+02  0.00000000000E+00 0. -1.
</event>
<event>
 7    1  0.3925070E-015  0.9000773E+02  0.7816164E-02  0.1186339E+00
        -11   -1    0    0    0    0  0.00000000000E+00  0.00000000000E+00  0.45593999997E+02  0.45594000000E+02  0.51100000000E-03 0. -1.
         11   -1    0    0    0    0 -0.00000000000E+00 -0.00000000000E+00 -0.45593999997E+02  0.45594000000E+02  0.51100000000E-03 0.  1.
    9900012    2    1    2    0    0 -0.51256107533E+00  0.60093009164E+00 -0.87704041305E+00  0.90007730659E+02  0.89999991904E+02 0.  0.
        -12    1    1    2    0    0  0.51256107533E+00 -0.60093009164E+00  0.87704041305E+00  0.11802693409E+01  0.00000000000E+00 0.  1.
         11    1    3    3    0    0 -0.63856994498E+01  0.52178773357E+01 -0.43514997165E+01  0.93241059302E+01  0.51100000000E-03 0. -1.
        -11    1    3    3    0    0 -0.35609617219E+02 -0.64485883541E+01 -0.90678150017E+01  0.37307564909E+02  0.51100000000E-03 0.  1.
         12    1    3    3    0    0  0.41482755593E+02  0.18316411100E+01  0.12542274305E+02  0.43376059820E+02  0.00000000000E+00 0. -1.
</event>
<event>
 7    1  0.3925070E-015  0.9000765E+02  0.7816164E-02  0.1186339E+00
        -11   -1    0    0    0    0  0.00000000000E+00  0.00000000000E+00  0.45593999997E+02  0.45594000000E+02  0.51100000000E-03 0.  1.
         11   -1    0    0    0    0 -0.00000000000E+00 -0.00000000000E+00 -0.45593999997E+02  0.45594000000E+02  0.51100000000E-03 0. -1.
    9900012    2    1    2    0    0  0.90348975409E+00 -0.19093569821E+00 -0.73517646853E+00  0.90007646402E+02  0.89999906534E+02 0.  0.
        -12    1    1    2    0    0 -0.90348975409E+00  0.19093569821E+00  0.73517646853E+00  0.11803535981E+01  0.00000000000E+00 0.  1.
         11    1    3    3    0    0  0.34035327215E+01 -0.92371408940E+01  0.45759335124E+01  0.10855780702E+02  0.51100000000E-03 0. -1.
        -11    1    3    3    0    0 -0.71823675178E+01 -0.27692931253E+02 -0.24295513693E+02  0.37533409523E+02  0.51100000000E-03 0.  1.
         12    1    3    3    0    0  0.46823245504E+01  0.36739136449E+02  0.18984403712E+02  0.41618456177E+02  0.00000000000E+00 0. -1.
</event>
<event>
 7    1  0.3925070E-015  0.9000774E+02  0.7816164E-02  0.1186339E+00
        -11   -1    0    0    0    0  0.00000000000E+00  0.00000000000E+00  0.45593999997E+02  0.45594000000E+02  0.51100000000E-03 0.  1.
         11   -1    0    0    0    0 -0.00000000000E+00 -0.00000000000E+00 -0.45593999997E+02  0.45594000000E+02  0.51100000000E-03 0. -1.
    9900012    2    1    2    0    0 -0.72490860932E+00  0.87005111797E+00 -0.33246825350E+00  0.90007738766E+02  0.90000000118E+02 0.  0.
        -12    1    1    2    0    0  0.72490860932E+00 -0.87005111797E+00  0.33246825350E+00  0.11802612335E+01  0.00000000000E+00 0.  1.
         11    1    3    3    0    0  0.10065706920E+02  0.19244215496E+02 -0.29605566834E+02  0.36717133244E+02  0.51100000000E-03 0. -1.
        -11    1    3    3    0    0 -0.51305403322E+01  0.12212280668E+01 -0.87073271319E+01  0.10179950301E+02  0.51100000000E-03 0.  1.
        -12    1    3    3    0    0 -0.56600751968E+01 -0.19595392444E+02  0.37980425713E+02  0.43110655221E+02  0.00000000000E+00 0.  1.
</event>
<event>
 7    1  0.3925070E-015  0.9000768E+02  0.7816164E-02  0.1186339E+00
        -11   -1    0    0    0    0  0.00000000000E+00  0.00000000000E+00  0.45593999997E+02  0.45594000000E+02  0.51100000000E-03 0. -1.
         11   -1    0    0    0    0 -0.00000000000E+00 -0.00000000000E+00 -0.45593999997E+02  0.45594000000E+02  0.51100000000E-03 0.  1.
    9900012    2    1    2    0    0 -0.32754778984E+00 -0.10446373412E+01  0.44112571344E+00  0.90007683676E+02  0.89999944301E+02 0.  0.
        -12    1    1    2    0    0  0.32754778984E+00  0.10446373412E+01 -0.44112571344E+00  0.11803163239E+01  0.00000000000E+00 0.  1.
         11    1    3    3    0    0 -0.60288437585E+01 -0.11430078818E+02 -0.41011262749E+01  0.13557761461E+02  0.51100000000E-03 0. -1.
        -11    1    3    3    0    0 -0.23726874843E+02 -0.22125578545E+02  0.28115137841E+01  0.32563943646E+02  0.51100000000E-03 0.  1.
         12    1    3    3    0    0  0.29428170812E+02  0.32511020022E+02  0.17307382042E+01  0.43885978569E+02  0.00000000000E+00 0. -1.
</event>
<event>
 7    1  0.3925070E-015  0.9000776E+02  0.7816164E-02  0.1186339E+00
        -11   -1    0    0    0    0  0.00000000000E+00  0.00000000000E+00  0.45593999997E+02  0.45594000000E+02  0.51100000000E-03 0.  1.
         11   -1    0    0    0    0 -0.00000000000E+00 -0.00000000000E+00 -0.45593999997E+02  0.45594000000E+02  0.51100000000E-03 0. -1.
    9900012    2    1    2    0    0  0.46973107178E+00  0.19660601837E+00 -0.10647409722E+01  0.90007756574E+02  0.90000018161E+02 0.  0.
        -12    1    1    2    0    0 -0.46973107178E+00 -0.19660601837E+00  0.10647409722E+01  0.11802434258E+01  0.00000000000E+00 0.  1.
         11    1    3    3    0    0  0.43505653198E+01  0.39445586156E+02 -0.46618818056E+01  0.39957662945E+02  0.51100000000E-03 0. -1.
        -11    1    3    3    0    0  0.12009614627E+02 -0.74078334847E+01 -0.11099467810E+01  0.14154109740E+02  0.51100000000E-03 0.  1.
        -12    1    3    3    0    0 -0.15890448875E+02 -0.31841146653E+02  0.47070876144E+01  0.35895983889E+02  0.00000000000E+00 0.  1.
</event>
<event>
 7    1  0.5360047E-015  0.9000775E+02  0.7816164E-02  0.1186339E+00
        -11   -1    0    0    0    0  0.00000000000E+00  0.00000000000E+00  0.45593999997E+02  0.45594000000E+02  0.51100000000E-03 0. -1.
         11   -1    0    0    0    0 -0.00000000000E+00 -0.00000000000E+00 -0.45593999997E+02  0.45594000000E+02  0.51100000000E-03 0.  1.
    9900012    2    1    2    0    0 -0.13004913978E+00 -0.57825695026E+00  0.10206314505E+01  0.90007753230E+02  0.90000014773E+02 0.  0.
        -12    1    1    2    0    0  0.13004913978E+00  0.57825695026E+00 -0.10206314505E+01  0.11802467695E+01  0.00000000000E+00 0.  1.
         11    1    3    3    0    0 -0.34989111141E+02 -0.11250642002E+02  0.43233315669E+01  0.37006837747E+02  0.51100000000E-03 0. -1.
        -11    1    3    3    0    0 -0.70198789702E+01 -0.96385519257E+00 -0.62326135977E+01  0.94367997810E+01  0.51100000000E-03 0.  1.
        -12    1    3    3    0    0  0.41878940972E+02  0.11636240244E+02  0.29299134812E+01  0.43564115703E+02  0.00000000000E+00 0.  1.
</event>
<event>
 7    1  0.3925070E-015  0.9000782E+02  0.7816164E-02  0.1186339E+00
        -11   -1    0    0    0    0  0.00000000000E+00  0.00000000000E+00  0.45593999997E+02  0.45594000000E+02  0.51100000000E-03 0.  1.
         11   -1    0    0    0    0 -0.00000000000E+00 -0.00000000000E+00 -0.45593999997E+02  0.45594000000E+02  0.51100000000E-03 0. -1.
    9900012    2    1    2    0    0  0.79620435250E+00 -0.78121205176E+00  0.38548904403E+00  0.90007815504E+02  0.90000077869E+02 0.  0.
        -12    1    1    2    0    0 -0.79620435250E+00  0.78121205176E+00 -0.38548904403E+00  0.11801844957E+01  0.00000000000E+00 0.  1.
         11    1    3    3    0    0 -0.23286837045E+02  0.22025160851E+02 -0.22293324771E+02  0.39043268558E+02  0.51100000000E-03 0. -1.
        -11    1    3    3    0    0  0.36305468400E+01  0.68433901155E+01 -0.10700544249E+01  0.78203500793E+01  0.51100000000E-03 0.  1.
        -12    1    3    3    0    0  0.20452494557E+02 -0.29649763018E+02  0.23748868240E+02  0.43144196867E+02  0.00000000000E+00 0.  1.
</event>
<event>
 7    1  0.3925070E-015  0.9000780E+02  0.7816164E-02  0.1186339E+00
        -11   -1    0    0    0    0  0.00000000000E+00  0.00000000000E+00  0.45593999997E+02  0.45594000000E+02  0.51100000000E-03 0.  1.
         11   -1    0    0    0    0 -0.00000000000E+00 -0.00000000000E+00 -0.45593999997E+02  0.45594000000E+02  0.51100000000E-03 0. -1.
    9900012    2    1    2    0    0 -0.98700364952E+00  0.59677501841E+00 -0.25009656690E+00  0.90007803017E+02  0.90000065216E+02 0.  0.
        -12    1    1    2    0    0  0.98700364952E+00 -0.59677501841E+00  0.25009656690E+00  0.11801969834E+01  0.00000000000E+00 0.  1.
         11    1    3    3    0    0 -0.11861405837E+02 -0.70231092627E-01 -0.40380531149E+02  0.42086638936E+02  0.51100000000E-03 0. -1.
        -11    1    3    3    0    0  0.93397035851E+01  0.58261379464E+01  0.45093745141E+01  0.11895730545E+02  0.51100000000E-03 0.  1.
        -12    1    3    3    0    0  0.15346986020E+01 -0.51591318354E+01  0.35621060068E+02  0.36025433536E+02  0.00000000000E+00 0.  1.
</event>
<event>
 7    1  0.3925070E-015  0.9000801E+02  0.7816164E-02  0.1186339E+00
        -11   -1    0    0    0    0  0.00000000000E+00  0.00000000000E+00  0.45593999997E+02  0.45594000000E+02  0.51100000000E-03 0.  1.
         11   -1    0    0    0    0 -0.00000000000E+00 -0.00000000000E+00 -0.45593999997E+02  0.45594000000E+02  0.51100000000E-03 0. -1.
    9900012    2    1    2    0    0 -0.13787616171E+00 -0.60062873440E+00  0.10062876559E+01  0.90008008661E+02  0.90000273575E+02 0.  0.
        -12    1    1    2    0    0  0.13787616171E+00  0.60062873440E+00 -0.10062876559E+01  0.11799913386E+01  0.00000000000E+00 0.  1.
         11    1    3    3    0    0 -0.19297665083E+01  0.41069589036E+01 -0.93739034029E+01  0.10414469525E+02  0.51100000000E-03 0. -1.
        -11    1    3    3    0    0  0.34747833333E+02 -0.18528353434E+02 -0.67665520382E+01  0.39956201384E+02  0.51100000000E-03 0.  1.
         12    1    3    3    0    0 -0.32955942986E+02  0.13820765796E+02  0.17146743097E+02  0.39637337753E+02  0.00000000000E+00 0. -1.
</event>
<event>
 7    1  0.3925070E-015  0.9000772E+02  0.7816164E-02  0.1186339E+00
        -11   -1    0    0    0    0  0.00000000000E+00  0.00000000000E+00  0.45593999997E+02  0.45594000000E+02  0.51100000000E-03 0.  1.
         11   -1    0    0    0    0 -0.00000000000E+00 -0.00000000000E+00 -0.45593999997E+02  0.45594000000E+02  0.51100000000E-03 0. -1.
    9900012    2    1    2    0    0 -0.76327997707E+00  0.49205708167E+00 -0.75389302316E+00  0.90007715634E+02  0.89999976680E+02 0.  0.
        -12    1    1    2    0    0  0.76327997707E+00 -0.49205708167E+00  0.75389302316E+00  0.11802843663E+01  0.00000000000E+00 0.  1.
         11    1    3    3    0    0  0.32192250215E+02  0.82683000249E+01 -0.20060949570E+02  0.38821997078E+02  0.51100000000E-03 0. -1.
        -11    1    3    3    0    0  0.56998942983E+01  0.28133589006E+01  0.65440479186E+01  0.91229571268E+01  0.51100000000E-03 0.  1.
        -12    1    3    3    0    0 -0.38655424491E+02 -0.10589601844E+02  0.12763008628E+02  0.42062761429E+02  0.00000000000E+00 0.  1.
</event>
<event>
 7    1  0.3925070E-015  0.9000770E+02  0.7816164E-02  0.1186339E+00
        -11   -1    0    0    0    0  0.00000000000E+00  0.00000000000E+00  0.45593999997E+02  0.45594000000E+02  0.51100000000E-03 0.  1.
         11   -1    0    0    0    0 -0.00000000000E+00 -0.00000000000E+00 -0.45593999997E+02  0.45594000000E+02  0.51100000000E-03 0. -1.
    9900012    2    1    2    0    0 -0.19051656123E+00 -0.43636160889E+00 -0.10800005196E+01  0.90007699557E+02  0.89999960391E+02 0.  0.
        -12    1    1    2    0    0  0.19051656123E+00  0.43636160889E+00  0.10800005196E+01  0.11803004431E+01  0.00000000000E+00 0.  1.
         11    1    3    3    0    0  0.30460925341E+02 -0.18316750690E+02 -0.10238205455E+02  0.36989081898E+02  0.51100000000E-03 0. -1.
        -11    1    3    3    0    0  0.89688793915E+01  0.85919744906E+00  0.41585111437E+00  0.90195315957E+01  0.51100000000E-03 0.  1.
        -12    1    3    3    0    0 -0.39620321294E+02  0.17021191632E+02  0.87423538208E+01  0.43999086063E+02  0.00000000000E+00 0.  1.
</event>
<event>
 7    1  0.3925070E-015  0.9000761E+02  0.7816164E-02  0.1186339E+00
        -11   -1    0    0    0    0  0.00000000000E+00  0.00000000000E+00  0.45593999997E+02  0.45594000000E+02  0.51100000000E-03 0.  1.
         11   -1    0    0    0    0 -0.00000000000E+00 -0.00000000000E+00 -0.45593999997E+02  0.45594000000E+02  0.51100000000E-03 0. -1.
    9900012    2    1    2    0    0  0.54256408396E+00 -0.66937182259E+00 -0.80677835767E+00  0.90007607802E+02  0.89999867425E+02 0.  0.
        -12    1    1    2    0    0 -0.54256408396E+00  0.66937182259E+00  0.80677835767E+00  0.11803921977E+01  0.00000000000E+00 0.  1.
         11    1    3    3    0    0  0.36030744867E+02 -0.76088670763E+01  0.19306599663E+01  0.36875966185E+02  0.51100000000E-03 0. -1.
        -11    1    3    3    0    0  0.73190764297E+01  0.13859532953E+01  0.54062120920E+01  0.92041770825E+01  0.51100000000E-03 0.  1.
        -12    1    3    3    0    0 -0.42807257213E+02  0.55535419584E+01 -0.81436504160E+01  0.43927464535E+02  0.00000000000E+00 0.  1.
</event>
<event>
 7    1  0.3925070E-015  0.9000775E+02  0.7816164E-02  0.1186339E+00
        -11   -1    0    0    0    0  0.00000000000E+00  0.00000000000E+00  0.45593999997E+02  0.45594000000E+02  0.51100000000E-03 0.  1.
         11   -1    0    0    0    0 -0.00000000000E+00 -0.00000000000E+00 -0.45593999997E+02  0.45594000000E+02  0.51100000000E-03 0. -1.
    9900012    2    1    2    0    0  0.52106745000E+00 -0.79484440177E+00 -0.69978090845E+00  0.90007753318E+02  0.90000014862E+02 0.  0.
        -12    1    1    2    0    0 -0.52106745000E+00  0.79484440177E+00  0.69978090845E+00  0.11802466820E+01  0.00000000000E+00 0.  1.
         11    1    3    3    0    0  0.57997922702E+00  0.33303563671E+02  0.19386062838E+02  0.38539371579E+02  0.51100000000E-03 0. -1.
        -11    1    3    3    0    0 -0.32123710748E+01  0.44666547198E+01 -0.10108772776E+02  0.11509023400E+02  0.51100000000E-03 0.  1.
        -12    1    3    3    0    0  0.31534592978E+01 -0.38565062793E+02 -0.99770709697E+01  0.39959358339E+02  0.00000000000E+00 0.  1.
</event>
<event>
 7    1  0.3925070E-015  0.9000778E+02  0.7816164E-02  0.1186339E+00
        -11   -1    0    0    0    0  0.00000000000E+00  0.00000000000E+00  0.45593999997E+02  0.45594000000E+02  0.51100000000E-03 0.  1.
         11   -1    0    0    0    0 -0.00000000000E+00 -0.00000000000E+00 -0.45593999997E+02  0.45594000000E+02  0.51100000000E-03 0. -1.
    9900012    2    1    2    0    0 -0.85626725717E+00  0.80707140173E+00 -0.91405626860E-01  0.90007782710E+02  0.90000044642E+02 0.  0.
        -12    1    1    2    0    0  0.85626725717E+00 -0.80707140173E+00  0.91405626860E-01  0.11802172901E+01  0.00000000000E+00 0.  1.
         11    1    3    3    0    0  0.30209485498E+01  0.85375756335E+01 -0.45784217571E+01  0.10147821140E+02  0.51100000000E-03 0. -1.
        -11    1    3    3    0    0  0.33582255536E+02 -0.91150038601E+01  0.19020127806E+02  0.39656228317E+02  0.51100000000E-03 0.  1.
         12    1    3    3    0    0 -0.37459471343E+02  0.13844996284E+01 -0.14533111676E+02  0.40203733254E+02  0.00000000000E+00 0. -1.
</event>
<event>
 7    1  0.3925070E-015  0.9000768E+02  0.7816164E-02  0.1186339E+00
        -11   -1    0    0    0    0  0.00000000000E+00  0.00000000000E+00  0.45593999997E+02  0.45594000000E+02  0.51100000000E-03 0.  1.
         11   -1    0    0    0    0 -0.00000000000E+00 -0.00000000000E+00 -0.45593999997E+02  0.45594000000E+02  0.51100000000E-03 0. -1.
    9900012    2    1    2    0    0  0.39535617705E+00  0.26577772544E+00 -0.10799145323E+01  0.90007678136E+02  0.89999938687E+02 0.  0.
        -12    1    1    2    0    0 -0.39535617705E+00 -0.26577772544E+00  0.10799145323E+01  0.11803218642E+01  0.00000000000E+00 0.  1.
         11    1    3    3    0    0  0.44839679624E+01 -0.49397386036E+01  0.49086805818E+01  0.82826403686E+01  0.51100000000E-03 0. -1.
        -11    1    3    3    0    0  0.23019608384E+02  0.32872237900E+01  0.29159669257E+02  0.37296038957E+02  0.51100000000E-03 0.  1.
         12    1    3    3    0    0 -0.27108220169E+02  0.19182925390E+01 -0.35148264371E+02  0.44428998811E+02  0.00000000000E+00 0. -1.
</event>
<event>
 7    1  0.3925070E-015  0.9000748E+02  0.7816164E-02  0.1186340E+00
        -11   -1    0    0    0    0  0.00000000000E+00  0.00000000000E+00  0.45593999997E+02  0.45594000000E+02  0.51100000000E-03 0.  1.
         11   -1    0    0    0    0 -0.00000000000E+00 -0.00000000000E+00 -0.45593999997E+02  0.45594000000E+02  0.51100000000E-03 0. -1.
    9900012    2    1    2    0    0  0.51872604290E+00 -0.22056192730E+00 -0.10372544175E+01  0.90007482741E+02  0.89999740713E+02 0.  0.
        -12    1    1    2    0    0 -0.51872604290E+00  0.22056192730E+00  0.10372544175E+01  0.11805172587E+01  0.00000000000E+00 0.  1.
         11    1    3    3    0    0  0.85046551011E+01  0.48402349416E+00 -0.47928234252E+01  0.97741799542E+01  0.51100000000E-03 0. -1.
        -11    1    3    3    0    0 -0.40871735162E+01 -0.18077819807E+02  0.37639922109E+02  0.41955646735E+02  0.51100000000E-03 0.  1.
         12    1    3    3    0    0 -0.38987555420E+01  0.17373234386E+02 -0.33884353101E+02  0.38277656052E+02  0.00000000000E+00 0. -1.
</event>
<event>
 7    1  0.3925070E-015  0.9000772E+02  0.7816164E-02  0.1186339E+00
        -11   -1    0    0    0    0  0.00000000000E+00  0.00000000000E+00  0.45593999997E+02  0.45594000000E+02  0.51100000000E-03 0.  1.
         11   -1    0    0    0    0 -0.00000000000E+00 -0.00000000000E+00 -0.45593999997E+02  0.45594000000E+02  0.51100000000E-03 0. -1.
    9900012    2    1    2    0    0 -0.82328460159E+00  0.78601760279E+00 -0.31215480857E+00  0.90007719596E+02  0.89999980695E+02 0.  0.
        -12    1    1    2    0    0  0.82328460159E+00 -0.78601760279E+00  0.31215480857E+00  0.11802804038E+01  0.00000000000E+00 0.  1.
         11    1    3    3    0    0 -0.29357258283E+02  0.22290712232E+02 -0.94220554564E+01  0.38046019436E+02  0.51100000000E-03 0. -1.
        -11    1    3    3    0    0 -0.78382309786E+01 -0.12960714232E+00 -0.24594494220E+01  0.82160546861E+01  0.51100000000E-03 0.  1.
        -12    1    3    3    0    0  0.36372204660E+02 -0.21375087487E+02  0.11569350070E+02  0.43745645474E+02  0.00000000000E+00 0.  1.
</event>
<event>
 7    1  0.3925070E-015  0.9000761E+02  0.7816164E-02  0.1186339E+00
        -11   -1    0    0    0    0  0.00000000000E+00  0.00000000000E+00  0.45593999997E+02  0.45594000000E+02  0.51100000000E-03 0. -1.
         11   -1    0    0    0    0 -0.00000000000E+00 -0.00000000000E+00 -0.45593999997E+02  0.45594000000E+02  0.51100000000E-03 0.  1.
    9900012    2    1    2    0    0  0.62359283754E+00 -0.90488581080E+00  0.43085450392E+00  0.90007609403E+02  0.89999869047E+02 0.  0.
        -12    1    1    2    0    0 -0.62359283754E+00  0.90488581080E+00 -0.43085450392E+00  0.11803905969E+01  0.00000000000E+00 0.  1.
         11    1    3    3    0    0 -0.69802862942E+01  0.39472410077E+02  0.97831038515E+01  0.41261418726E+02  0.51100000000E-03 0. -1.
        -11    1    3    3    0    0  0.46939470805E+01 -0.92965828710E+01  0.79070846606E+01  0.13075992519E+02  0.51100000000E-03 0.  1.
        -12    1    3    3    0    0  0.29099320513E+01 -0.31080713017E+02 -0.17259334008E+02  0.35670198158E+02  0.00000000000E+00 0.  1.
</event>
<event>
 7    1  0.3925070E-015  0.9000775E+02  0.7816164E-02  0.1186339E+00
        -11   -1    0    0    0    0  0.00000000000E+00  0.00000000000E+00  0.45593999997E+02  0.45594000000E+02  0.51100000000E-03 0. -1.
         11   -1    0    0    0    0 -0.00000000000E+00 -0.00000000000E+00 -0.45593999997E+02  0.45594000000E+02  0.51100000000E-03 0.  1.
    9900012    2    1    2    0    0  0.24066725742E+00 -0.85270604711E+00  0.77971370634E+00  0.90007753502E+02  0.90000015048E+02 0.  0.
        -12    1    1    2    0    0 -0.24066725742E+00  0.85270604711E+00 -0.77971370634E+00  0.11802464977E+01  0.00000000000E+00 0.  1.
         11    1    3    3    0    0 -0.24032395055E+01  0.47030629610E+01 -0.92639323282E+01  0.10663714352E+02  0.51100000000E-03 0. -1.
        -11    1    3    3    0    0 -0.31481262487E+02 -0.20544067225E+02 -0.72030822311E+01  0.38275487976E+02  0.51100000000E-03 0.  1.
         12    1    3    3    0    0  0.34125169250E+02  0.14988298216E+02  0.17246728266E+02  0.41068551175E+02  0.00000000000E+00 0. -1.
</event>
<event>
 7    1  0.3925070E-015  0.9000778E+02  0.7816164E-02  0.1186339E+00
        -11   -1    0    0    0    0  0.00000000000E+00  0.00000000000E+00  0.45593999997E+02  0.45594000000E+02  0.51100000000E-03 0. -1.
         11   -1    0    0    0    0 -0.00000000000E+00 -0.00000000000E+00 -0.45593999997E+02  0.45594000000E+02  0.51100000000E-03 0.  1.
    9900012    2    1    2    0    0  0.73576720405E+00  0.26632507936E+00  0.88353196240E+00  0.90007783429E+02  0.90000045370E+02 0.  0.
        -12    1    1    2    0    0 -0.73576720405E+00 -0.26632507936E+00 -0.88353196240E+00  0.11802165712E+01  0.00000000000E+00 0.  1.
         11    1    3    3    0    0 -0.43049136530E+01  0.71185894707E+01  0.24599600385E+02  0.25968190869E+02  0.51100000000E-03 0. -1.
        -11    1    3    3    0    0  0.98070303492E+01  0.13716624309E+02  0.13265921440E+02  0.21454796634E+02  0.51100000000E-03 0.  1.
         12    1    3    3    0    0 -0.47663494921E+01 -0.20568888700E+02 -0.36981989863E+02  0.42584795926E+02  0.00000000000E+00 0. -1.
</event>
<event>
 7    1  0.3925070E-015  0.9000899E+02  0.7816164E-02  0.1186337E+00
        -11   -1    0    0    0    0  0.00000000000E+00  0.00000000000E+00  0.45593999997E+02  0.45594000000E+02  0.51100000000E-03 0. -1.
         11   -1    0    0    0    0 -0.00000000000E+00 -0.00000000000E+00 -0.45593999997E+02  0.45594000000E+02  0.51100000000E-03 0.  1.
    9900012    2    1    2    0    0  0.81956407883E+00  0.52434575370E+00  0.66591361743E+00  0.90008989951E+02  0.90001267810E+02 0.  0.
        -12    1    1    2    0    0 -0.81956407883E+00 -0.52434575370E+00 -0.66591361743E+00  0.11790100486E+01  0.00000000000E+00 0.  1.
         11    1    3    3    0    0  0.62618317971E+01  0.42764854526E+01 -0.86956603268E+01  0.11537476937E+02  0.51100000000E-03 0. -1.
        -11    1    3    3    0    0 -0.49989249954E+01 -0.15112219449E+02 -0.31911619482E+02  0.35661181781E+02  0.51100000000E-03 0.  1.
         12    1    3    3    0    0 -0.44334272287E+00  0.11360079750E+02  0.41273193427E+02  0.42810331234E+02  0.00000000000E+00 0. -1.
</event>
<event>
 7    1  0.3925070E-015  0.9000735E+02  0.7816164E-02  0.1186340E+00
        -11   -1    0    0    0    0  0.00000000000E+00  0.00000000000E+00  0.45593999997E+02  0.45594000000E+02  0.51100000000E-03 0.  1.
         11   -1    0    0    0    0 -0.00000000000E+00 -0.00000000000E+00 -0.45593999997E+02  0.45594000000E+02  0.51100000000E-03 0. -1.
    9900012    2    1    2    0    0 -0.18962132201E+00  0.82719233688E+00 -0.82081418867E+00  0.90007347917E+02  0.89999604109E+02 0.  0.
        -12    1    1    2    0    0  0.18962132201E+00 -0.82719233688E+00  0.82081418867E+00  0.11806520827E+01  0.00000000000E+00 0.  1.
         11    1    3    3    0    0  0.14292609731E+01  0.15849143115E+02  0.27862719589E+01  0.16155538868E+02  0.51100000000E-03 0. -1.
        -11    1    3    3    0    0  0.12921768420E+02 -0.12989916314E+02  0.31139858964E+02  0.36130331323E+02  0.51100000000E-03 0.  1.
         12    1    3    3    0    0 -0.14540650715E+02 -0.20320344644E+01 -0.34746945112E+02  0.37721477727E+02  0.00000000000E+00 0. -1.
</event>
<event>
 7    1  0.3925070E-015  0.9000772E+02  0.7816164E-02  0.1186339E+00
        -11   -1    0    0    0    0  0.00000000000E+00  0.00000000000E+00  0.45593999997E+02  0.45594000000E+02  0.51100000000E-03 0. -1.
         11   -1    0    0    0    0 -0.00000000000E+00 -0.00000000000E+00 -0.45593999997E+02  0.45594000000E+02  0.51100000000E-03 0.  1.
    9900012    2    1    2    0    0  0.21372892718E+00 -0.11552014245E+01  0.11358045114E+00  0.90007715753E+02  0.89999976801E+02 0.  0.
        -12    1    1    2    0    0 -0.21372892718E+00  0.11552014245E+01 -0.11358045114E+00  0.11802842473E+01  0.00000000000E+00 0.  1.
         11    1    3    3    0    0 -0.11286578234E+01  0.13808353611E+02  0.36061723640E+02  0.38631495054E+02  0.51100000000E-03 0. -1.
        -11    1    3    3    0    0  0.90799601397E+01  0.46566801851E+01 -0.60986537770E+00  0.10222635791E+02  0.51100000000E-03 0.  1.
        -12    1    3    3    0    0 -0.77375733891E+01 -0.19620235221E+02 -0.35338277811E+02  0.41153584907E+02  0.00000000000E+00 0.  1.
</event>
<event>
 7    1  0.3925070E-015  0.9000772E+02  0.7816164E-02  0.1186339E+00
        -11   -1    0    0    0    0  0.00000000000E+00  0.00000000000E+00  0.45593999997E+02  0.45594000000E+02  0.51100000000E-03 0.  1.
         11   -1    0    0    0    0 -0.00000000000E+00 -0.00000000000E+00 -0.45593999997E+02  0.45594000000E+02  0.51100000000E-03 0. -1.
    9900012    2    1    2    0    0 -0.58640336627E+00  0.93764630870E+00 -0.41231677855E+00  0.90007722645E+02  0.89999983784E+02 0.  0.
        -12    1    1    2    0    0  0.58640336627E+00 -0.93764630870E+00  0.41231677855E+00  0.11802773547E+01  0.00000000000E+00 0.  1.
         11    1    3    3    0    0 -0.44917989963E+01 -0.58392383702E+01 -0.52758816938E+00  0.73858860339E+01  0.51100000000E-03 0. -1.
        -11    1    3    3    0    0 -0.15845824174E+01 -0.19846665370E+02  0.33866148559E+02  0.39285074090E+02  0.51100000000E-03 0.  1.
         12    1    3    3    0    0  0.54899780475E+01  0.26623550049E+02 -0.33750877168E+02  0.43336762521E+02  0.00000000000E+00 0. -1.
</event>
<event>
 7    1  0.3925070E-015  0.9000767E+02  0.7816164E-02  0.1186339E+00
        -11   -1    0    0    0    0  0.00000000000E+00  0.00000000000E+00  0.45593999997E+02  0.45594000000E+02  0.51100000000E-03 0.  1.
         11   -1    0    0    0    0 -0.00000000000E+00 -0.00000000000E+00 -0.45593999997E+02  0.45594000000E+02  0.51100000000E-03 0. -1.
    9900012    2    1    2    0    0  0.42236512958E+00  0.11002736771E+01 -0.64653090062E-01  0.90007671872E+02  0.89999932341E+02 0.  0.
        -12    1    1    2    0    0 -0.42236512958E+00 -0.11002736771E+01  0.64653090062E-01  0.11803281278E+01  0.00000000000E+00 0.  1.
         11    1    3    3    0    0 -0.34880516651E+02 -0.17133694971E+02  0.91876056641E+01  0.39932769042E+02  0.51100000000E-03 0. -1.
        -11    1    3    3    0    0 -0.94123934881E+00 -0.18809249962E+01 -0.83526764162E+01  0.86134205707E+01  0.51100000000E-03 0.  1.
        -12    1    3    3    0    0  0.36244121130E+02  0.20114893645E+02 -0.89958233796E+00  0.41461482260E+02  0.00000000000E+00 0.  1.
</event>
<event>
 7    1  0.3925070E-015  0.9000778E+02  0.7816164E-02  0.1186339E+00
        -11   -1    0    0    0    0  0.00000000000E+00  0.00000000000E+00  0.45593999997E+02  0.45594000000E+02  0.51100000000E-03 0.  1.
         11   -1    0    0    0    0 -0.00000000000E+00 -0.00000000000E+00 -0.45593999997E+02  0.45594000000E+02  0.51100000000E-03 0. -1.
    9900012    2    1    2    0    0  0.98282195074E+00  0.56590217165E+00  0.32669749211E+00  0.90007781585E+02  0.90000043502E+02 0.  0.
        -12    1    1    2    0    0 -0.98282195074E+00 -0.56590217165E+00 -0.32669749211E+00  0.11802184146E+01  0.00000000000E+00 0.  1.
         11    1    3    3    0    0 -0.25543691266E+02 -0.21405826758E+02  0.13078473552E+02  0.35801341503E+02  0.51100000000E-03 0. -1.
        -11    1    3    3    0    0  0.47712159806E+01 -0.23233144930E+01  0.12094739944E+02  0.13207763881E+02  0.51100000000E-03 0.  1.
        -12    1    3    3    0    0  0.21755297236E+02  0.24295043422E+02 -0.24846516004E+02  0.40998676201E+02  0.00000000000E+00 0.  1.
</event>
<event>
 7    1  0.3925070E-015  0.9000777E+02  0.7816164E-02  0.1186339E+00
        -11   -1    0    0    0    0  0.00000000000E+00  0.00000000000E+00  0.45593999997E+02  0.45594000000E+02  0.51100000000E-03 0. -1.
         11   -1    0    0    0    0 -0.00000000000E+00 -0.00000000000E+00 -0.45593999997E+02  0.45594000000E+02  0.51100000000E-03 0.  1.
    9900012    2    1    2    0    0  0.10478019348E+01  0.40603266492E+00  0.36082216395E+00  0.90007769491E+02  0.90000031249E+02 0.  0.
        -12    1    1    2    0    0 -0.10478019348E+01 -0.40603266492E+00 -0.36082216395E+00  0.11802305086E+01  0.00000000000E+00 0.  1.
         11    1    3    3    0    0  0.14814959745E+02 -0.26824147176E+02  0.30302479233E+02  0.43095918042E+02  0.51100000000E-03 0. -1.
        -11    1    3    3    0    0 -0.42559221173E+01 -0.23693986713E+01 -0.56299381302E+01  0.74446710299E+01  0.51100000000E-03 0.  1.
        -12    1    3    3    0    0 -0.95112356934E+01  0.29599578512E+02 -0.24311718939E+02  0.39467180419E+02  0.00000000000E+00 0.  1.
</event>
<event>
 7    1  0.4961261E-015  0.9000772E+02  0.7816164E-02  0.1186339E+00
        -11   -1    0    0    0    0  0.00000000000E+00  0.00000000000E+00  0.45593999997E+02  0.45594000000E+02  0.51100000000E-03 0. -1.
         11   -1    0    0    0    0 -0.00000000000E+00 -0.00000000000E+00 -0.45593999997E+02  0.45594000000E+02  0.51100000000E-03 0.  1.
    9900012    2    1    2    0    0  0.31715417187E+00  0.90869725812E+00  0.68318103670E+00  0.90007722997E+02  0.89999984140E+02 0.  0.
        -12    1    1    2    0    0 -0.31715417187E+00 -0.90869725812E+00 -0.68318103670E+00  0.11802770033E+01  0.00000000000E+00 0.  1.
         11    1    3    3    0    0  0.22095671968E+02  0.10166249184E+02  0.28528876554E+02  0.37489573749E+02  0.51100000000E-03 0. -1.
        -11    1    3    3    0    0  0.61422012510E+01  0.78575839525E+01 -0.72931907387E+00  0.10000008418E+02  0.51100000000E-03 0.  1.
        -12    1    3    3    0    0 -0.27920719047E+02 -0.17115135878E+02 -0.27116376443E+02  0.42518140830E+02  0.00000000000E+00 0.  1.
</event>
<event>
 7    1  0.3925070E-015  0.9000779E+02  0.7816164E-02  0.1186339E+00
        -11   -1    0    0    0    0  0.00000000000E+00  0.00000000000E+00  0.45593999997E+02  0.45594000000E+02  0.51100000000E-03 0.  1.
         11   -1    0    0    0    0 -0.00000000000E+00 -0.00000000000E+00 -0.45593999997E+02  0.45594000000E+02  0.51100000000E-03 0. -1.
    9900012    2    1    2    0    0 -0.22281422596E+00 -0.53806340162E+00 -0.10265123205E+01  0.90007794108E+02  0.90000056190E+02 0.  0.
        -12    1    1    2    0    0  0.22281422596E+00  0.53806340162E+00  0.10265123205E+01  0.11802058920E+01  0.00000000000E+00 0.  1.
         11    1    3    3    0    0  0.45944248991E+00 -0.82164621232E+01  0.76666693288E+01  0.11247184362E+02  0.51100000000E-03 0. -1.
        -11    1    3    3    0    0  0.22781914786E+02  0.18982735936E+02  0.23151631187E+02  0.37621243092E+02  0.51100000000E-03 0.  1.
         12    1    3    3    0    0 -0.23464171501E+02 -0.11304337215E+02 -0.31844812836E+02  0.41139366654E+02  0.00000000000E+00 0. -1.
</event>
<event>
 7    1  0.3925070E-015  0.9000771E+02  0.7816164E-02  0.1186339E+00
        -11   -1    0    0    0    0  0.00000000000E+00  0.00000000000E+00  0.45593999997E+02  0.45594000000E+02  0.51100000000E-03 0.  1.
         11   -1    0    0    0    0 -0.00000000000E+00 -0.00000000000E+00 -0.45593999997E+02  0.45594000000E+02  0.51100000000E-03 0. -1.
    9900012    2    1    2    0    0  0.46095750953E+00  0.51585826505E+00 -0.95629733469E+00  0.90007705051E+02  0.89999965957E+02 0.  0.
        -12    1    1    2    0    0 -0.46095750953E+00 -0.51585826505E+00  0.95629733469E+00  0.11802949494E+01  0.00000000000E+00 0.  1.
         11    1    3    3    0    0  0.28279686247E+00  0.55673975417E+01  0.75608145589E+01  0.93937110083E+01  0.51100000000E-03 0. -1.
        -11    1    3    3    0    0 -0.38099036976E+02  0.57733685277E+01  0.44153309940E+01  0.38786125750E+02  0.51100000000E-03 0.  1.
         12    1    3    3    0    0  0.38277197623E+02 -0.10824907804E+02 -0.12932442888E+02  0.41827868292E+02  0.00000000000E+00 0. -1.
</event>
<event>
 7    1  0.3925070E-015  0.9000752E+02  0.7816164E-02  0.1186339E+00
        -11   -1    0    0    0    0  0.00000000000E+00  0.00000000000E+00  0.45593999997E+02  0.45594000000E+02  0.51100000000E-03 0.  1.
         11   -1    0    0    0    0 -0.00000000000E+00 -0.00000000000E+00 -0.45593999997E+02  0.45594000000E+02  0.51100000000E-03 0. -1.
    9900012    2    1    2    0    0  0.19702290724E+00  0.73031007279E+00 -0.90628892984E+00  0.90007521092E+02  0.89999779570E+02 0.  0.
        -12    1    1    2    0    0 -0.19702290724E+00 -0.73031007279E+00  0.90628892984E+00  0.11804789082E+01  0.00000000000E+00 0.  1.
         11    1    3    3    0    0  0.16471061598E+02 -0.27753886760E+01 -0.34826815875E+01  0.17062465349E+02  0.51100000000E-03 0. -1.
        -11    1    3    3    0    0  0.26048145816E+02  0.10441792894E+02 -0.71703628795E+01  0.28964651619E+02  0.51100000000E-03 0.  1.
         12    1    3    3    0    0 -0.42322184507E+02 -0.69360941454E+01  0.97467555372E+01  0.43980404124E+02  0.00000000000E+00 0. -1.
</event>
<event>
 7    1  0.3925070E-015  0.9000737E+02  0.7816164E-02  0.1186340E+00
        -11   -1    0    0    0    0  0.00000000000E+00  0.00000000000E+00  0.45593999997E+02  0.45594000000E+02  0.51100000000E-03 0. -1.
         11   -1    0    0    0    0 -0.00000000000E+00 -0.00000000000E+00 -0.45593999997E+02  0.45594000000E+02  0.51100000000E-03 0.  1.
    9900012    2    1    2    0    0  0.11375057259E+01 -0.31081610066E+00  0.58037026246E-01  0.90007367025E+02  0.89999623469E+02 0.  0.
        -12    1    1    2    0    0 -0.11375057259E+01  0.31081610066E+00 -0.58037026246E-01  0.11806329749E+01  0.00000000000E+00 0.  1.
         11    1    3    3    0    0  0.13734271701E+02  0.33401044148E+02  0.21571296387E+02  0.42066385599E+02  0.51100000000E-03 0. -1.
        -11    1    3    3    0    0  0.28762703529E+01 -0.70340849325E+00 -0.88772577454E+01  0.93580671076E+01  0.51100000000E-03 0.  1.
        -12    1    3    3    0    0 -0.15473036328E+02 -0.33008451755E+02 -0.12636001615E+02  0.38582914318E+02  0.00000000000E+00 0.  1.
</event>
<event>
 7    1  0.3925070E-015  0.9000783E+02  0.7816164E-02  0.1186339E+00
        -11   -1    0    0    0    0  0.00000000000E+00  0.00000000000E+00  0.45593999997E+02  0.45594000000E+02  0.51100000000E-03 0.  1.
         11   -1    0    0    0    0 -0.00000000000E+00 -0.00000000000E+00 -0.45593999997E+02  0.45594000000E+02  0.51100000000E-03 0. -1.
    9900012    2    1    2    0    0  0.75865254153E+00 -0.79338283325E+00  0.43334209298E+00  0.90007832483E+02  0.90000095072E+02 0.  0.
        -12    1    1    2    0    0 -0.75865254153E+00  0.79338283325E+00 -0.43334209298E+00  0.11801675171E+01  0.00000000000E+00 0.  1.
         11    1    3    3    0    0 -0.10442700542E+02  0.25517504513E+01 -0.23523169970E+01  0.11004309179E+02  0.51100000000E-03 0. -1.
        -11    1    3    3    0    0  0.18047208096E+01 -0.27961424650E+02 -0.27224635139E+02  0.39067621432E+02  0.51100000000E-03 0.  1.
         12    1    3    3    0    0  0.93966322743E+01  0.24616291365E+02  0.30010294229E+02  0.39935901872E+02  0.00000000000E+00 0. -1.
</event>
<event>
 7    1  0.3925070E-015  0.9000790E+02  0.7816164E-02  0.1186339E+00
        -11   -1    0    0    0    0  0.00000000000E+00  0.00000000000E+00  0.45593999997E+02  0.45594000000E+02  0.51100000000E-03 0.  1.
         11   -1    0    0    0    0 -0.00000000000E+00 -0.00000000000E+00 -0.45593999997E+02  0.45594000000E+02  0.51100000000E-03 0. -1.
    9900012    2    1    2    0    0  0.48173620656E+00 -0.21026652107E+00 -0.10565715935E+01  0.90007904531E+02  0.90000168071E+02 0.  0.
        -12    1    1    2    0    0 -0.48173620656E+00  0.21026652107E+00  0.10565715935E+01  0.11800954685E+01  0.00000000000E+00 0.  1.
         11    1    3    3    0    0 -0.25771380004E+02 -0.70541670818E+01 -0.27588301761E+02  0.38406245519E+02  0.51100000000E-03 0. -1.
        -11    1    3    3    0    0 -0.61539434871E+01 -0.66556374512E+01  0.41660090881E+01  0.99761797452E+01  0.51100000000E-03 0.  1.
        -12    1    3    3    0    0  0.32407059698E+02  0.13499538012E+02  0.22365721080E+02  0.41625479267E+02  0.00000000000E+00 0.  1.
</event>
<event>
 7    1  0.3925070E-015  0.9000765E+02  0.7816164E-02  0.1186339E+00
        -11   -1    0    0    0    0  0.00000000000E+00  0.00000000000E+00  0.45593999997E+02  0.45594000000E+02  0.51100000000E-03 0.  1.
         11   -1    0    0    0    0 -0.00000000000E+00 -0.00000000000E+00 -0.45593999997E+02  0.45594000000E+02  0.51100000000E-03 0. -1.
    9900012    2    1    2    0    0 -0.35212917994E+00 -0.11265209153E+01  0.13103452991E-01  0.90007654274E+02  0.89999914511E+02 0.  0.
        -12    1    1    2    0    0  0.35212917994E+00  0.11265209153E+01 -0.13103452991E-01  0.11803457258E+01  0.00000000000E+00 0.  1.
         11    1    3    3    0    0  0.48013551023E+01 -0.30559389831E+01 -0.70911659693E+01  0.90926568698E+01  0.51100000000E-03 0. -1.
        -11    1    3    3    0    0 -0.29845565110E+02 -0.26518882242E+02  0.14592530433E+02  0.42508244104E+02  0.51100000000E-03 0.  1.
         12    1    3    3    0    0  0.24692080828E+02  0.28448300310E+02 -0.74882610105E+01  0.38406753300E+02  0.00000000000E+00 0. -1.
</event>
<event>
 7    1  0.3925070E-015  0.9000768E+02  0.7816164E-02  0.1186339E+00
        -11   -1    0    0    0    0  0.00000000000E+00  0.00000000000E+00  0.45593999997E+02  0.45594000000E+02  0.51100000000E-03 0.  1.
         11   -1    0    0    0    0 -0.00000000000E+00 -0.00000000000E+00 -0.45593999997E+02  0.45594000000E+02  0.51100000000E-03 0. -1.
    9900012    2    1    2    0    0  0.94448452466E+00  0.67260774678E+00 -0.22068140534E+00  0.90007681195E+02  0.89999941787E+02 0.  0.
        -12    1    1    2    0    0 -0.94448452466E+00 -0.67260774678E+00  0.22068140534E+00  0.11803188048E+01  0.00000000000E+00 0.  1.
         11    1    3    3    0    0  0.35059421474E+02 -0.84087115111E+01 -0.27107042137E+01  0.36155461288E+02  0.51100000000E-03 0. -1.
        -11    1    3    3    0    0  0.65398704647E+01 -0.60472905738E+01 -0.43920584426E+01  0.99312540297E+01  0.51100000000E-03 0.  1.
        -12    1    3    3    0    0 -0.40654807414E+02  0.15128609832E+02  0.68820812509E+01  0.43920965878E+02  0.00000000000E+00 0.  1.
</event>
<event>
 7    1  0.3925070E-015  0.9000773E+02  0.7816164E-02  0.1186339E+00
        -11   -1    0    0    0    0  0.00000000000E+00  0.00000000000E+00  0.45593999997E+02  0.45594000000E+02  0.51100000000E-03 0. -1.
         11   -1    0    0    0    0 -0.00000000000E+00 -0.00000000000E+00 -0.45593999997E+02  0.45594000000E+02  0.51100000000E-03 0.  1.
    9900012    2    1    2    0    0  0.99630660663E+00  0.15408652923E+00  0.61373433447E+00  0.90007729122E+02  0.89999990346E+02 0.  0.
        -12    1    1    2    0    0 -0.99630660663E+00 -0.15408652923E+00 -0.61373433447E+00  0.11802708783E+01  0.00000000000E+00 0.  1.
         11    1    3    3    0    0  0.19563474296E+02 -0.21915053213E+02  0.23154295286E+02  0.37404818865E+02  0.51100000000E-03 0. -1.
        -11    1    3    3    0    0  0.23629302373E+01  0.66413239103E+01  0.91883346935E+01  0.11580851320E+02  0.51100000000E-03 0.  1.
        -12    1    3    3    0    0 -0.20930097927E+02  0.15427815832E+02 -0.31728895645E+02  0.41022058937E+02  0.00000000000E+00 0.  1.
</event>
<event>
 7    1  0.3925070E-015  0.9000788E+02  0.7816164E-02  0.1186339E+00
        -11   -1    0    0    0    0  0.00000000000E+00  0.00000000000E+00  0.45593999997E+02  0.45594000000E+02  0.51100000000E-03 0.  1.
         11   -1    0    0    0    0 -0.00000000000E+00 -0.00000000000E+00 -0.45593999997E+02  0.45594000000E+02  0.51100000000E-03 0. -1.
    9900012    2    1    2    0    0 -0.10871746258E+01  0.11938301506E+00  0.44325196865E+00  0.90007884210E+02  0.90000147481E+02 0.  0.
        -12    1    1    2    0    0  0.10871746258E+01 -0.11938301506E+00 -0.44325196865E+00  0.11801157905E+01  0.00000000000E+00 0.  1.
         11    1    3    3    0    0  0.51549939634E+01  0.23596709131E+01  0.82839077184E+01  0.10038183946E+02  0.51100000000E-03 0. -1.
        -11    1    3    3    0    0  0.31167095669E+02 -0.90189804167E+01  0.14863032945E+02  0.35688087771E+02  0.51100000000E-03 0.  1.
         12    1    3    3    0    0 -0.37409264258E+02  0.67786925187E+01 -0.22703688695E+02  0.44281612492E+02  0.00000000000E+00 0. -1.
</event>
<event>
 7    1  0.3925070E-015  0.9000837E+02  0.7816164E-02  0.1186338E+00
        -11   -1    0    0    0    0  0.00000000000E+00  0.00000000000E+00  0.45593999997E+02  0.45594000000E+02  0.51100000000E-03 0. -1.
         11   -1    0    0    0    0 -0.00000000000E+00 -0.00000000000E+00 -0.45593999997E+02  0.45594000000E+02  0.51100000000E-03 0.  1.
    9900012    2    1    2    0    0 -0.39626542249E+00 -0.73964121112E+00  0.82911362962E+00  0.90008370899E+02  0.90000640592E+02 0.  0.
        -12    1    1    2    0    0  0.39626542249E+00  0.73964121112E+00 -0.82911362962E+00  0.11796291015E+01  0.00000000000E+00 0.  1.
         11    1    3    3    0    0  0.13749193136E+01 -0.75111659178E+01 -0.71137303064E+01  0.10436147551E+02  0.51100000000E-03 0. -1.
        -11    1    3    3    0    0 -0.24622143941E+02  0.12780672281E+02 -0.26129045548E+02  0.38109350266E+02  0.51100000000E-03 0.  1.
         12    1    3    3    0    0  0.22850959205E+02 -0.60091475743E+01  0.34071889484E+02  0.41462873082E+02  0.00000000000E+00 0. -1.
</event>
<event>
 7    1  0.3925070E-015  0.9000847E+02  0.7816164E-02  0.1186338E+00
        -11   -1    0    0    0    0  0.00000000000E+00  0.00000000000E+00  0.45593999997E+02  0.45594000000E+02  0.51100000000E-03 0. -1.
         11   -1    0    0    0    0 -0.00000000000E+00 -0.00000000000E+00 -0.45593999997E+02  0.45594000000E+02  0.51100000000E-03 0.  1.
    9900012    2    1    2    0    0 -0.62504214260E+00  0.76437069593E+00  0.64524889954E+00  0.90008471966E+02  0.90000742993E+02 0.  0.
        -12    1    1    2    0    0  0.62504214260E+00 -0.76437069593E+00 -0.64524889954E+00  0.11795280341E+01  0.00000000000E+00 0.  1.
         11    1    3    3    0    0  0.84180780525E+01 -0.12894348335E+02 -0.13580571234E+01  0.15458737869E+02  0.51100000000E-03 0. -1.
        -11    1    3    3    0    0  0.31301611941E+02  0.29011901345E+01  0.78157623896E+01  0.32392807169E+02  0.51100000000E-03 0.  1.
         12    1    3    3    0    0 -0.40344732136E+02  0.10757528896E+02 -0.58124563666E+01  0.42156926929E+02  0.00000000000E+00 0. -1.
</event>
<event>
 7    1  0.3925070E-015  0.9000769E+02  0.7816164E-02  0.1186339E+00
        -11   -1    0    0    0    0  0.00000000000E+00  0.00000000000E+00  0.45593999997E+02  0.45594000000E+02  0.51100000000E-03 0.  1.
         11   -1    0    0    0    0 -0.00000000000E+00 -0.00000000000E+00 -0.45593999997E+02  0.45594000000E+02  0.51100000000E-03 0. -1.
    9900012    2    1    2    0    0 -0.10446238672E+01  0.18225068183E+00 -0.51834699751E+00  0.90007687353E+02  0.89999948026E+02 0.  0.
        -12    1    1    2    0    0  0.10446238672E+01 -0.18225068183E+00  0.51834699751E+00  0.11803126470E+01  0.00000000000E+00 0.  1.
         11    1    3    3    0    0  0.26485310386E+02  0.21268878937E+02 -0.19237082378E+02  0.39037190167E+02  0.51100000000E-03 0. -1.
        -11    1    3    3    0    0  0.39672044091E+01 -0.55770989023E+01 -0.51080465438E+01  0.85401921960E+01  0.51100000000E-03 0.  1.
        -12    1    3    3    0    0 -0.31497138662E+02 -0.15509529353E+02  0.23826781924E+02  0.42430304990E+02  0.00000000000E+00 0.  1.
</event>
<event>
 7    1  0.3925070E-015  0.9000753E+02  0.7816164E-02  0.1186339E+00
        -11   -1    0    0    0    0  0.00000000000E+00  0.00000000000E+00  0.45593999997E+02  0.45594000000E+02  0.51100000000E-03 0. -1.
         11   -1    0    0    0    0 -0.00000000000E+00 -0.00000000000E+00 -0.45593999997E+02  0.45594000000E+02  0.51100000000E-03 0.  1.
    9900012    2    1    2    0    0  0.18731220514E+00  0.16581524542E+00  0.11536580505E+01  0.90007530833E+02  0.89999789439E+02 0.  0.
        -12    1    1    2    0    0 -0.18731220514E+00 -0.16581524542E+00 -0.11536580505E+01  0.11804691674E+01  0.00000000000E+00 0.  1.
         11    1    3    3    0    0 -0.20460642781E+01 -0.33512869827E+02  0.92047825913E+01  0.34814175933E+02  0.51100000000E-03 0. -1.
        -11    1    3    3    0    0  0.36916236156E+01 -0.59832927349E+01  0.94821921502E+01  0.11804229967E+02  0.51100000000E-03 0.  1.
        -12    1    3    3    0    0 -0.14582471323E+01  0.39661977807E+02 -0.17533316691E+02  0.43389124933E+02  0.00000000000E+00 0.  1.
</event>
<event>
 7    1  0.3925070E-015  0.9000780E+02  0.7816164E-02  0.1186339E+00
        -11   -1    0    0    0    0  0.00000000000E+00  0.00000000000E+00  0.45593999997E+02  0.45594000000E+02  0.51100000000E-03 0.  1.
         11   -1    0    0    0    0 -0.00000000000E+00 -0.00000000000E+00 -0.45593999997E+02  0.45594000000E+02  0.51100000000E-03 0. -1.
    9900012    2    1    2    0    0 -0.12166355212E+00  0.78432090952E+00 -0.87345171633E+00  0.90007796962E+02  0.90000059082E+02 0.  0.
        -12    1    1    2    0    0  0.12166355212E+00 -0.78432090952E+00  0.87345171633E+00  0.11802030375E+01  0.00000000000E+00 0.  1.
         11    1    3    3    0    0 -0.90356626891E+01 -0.19869337822E+01 -0.37794780603E+01  0.99937761009E+01  0.51100000000E-03 0. -1.
        -11    1    3    3    0    0  0.36221030130E+01 -0.58821933583E+01  0.40495277597E+02  0.41080254829E+02  0.51100000000E-03 0.  1.
         12    1    3    3    0    0  0.52918961240E+01  0.86534480500E+01 -0.37589251253E+02  0.38933766032E+02  0.00000000000E+00 0. -1.
</event>
<event>
 7    1  0.3925070E-015  0.9000775E+02  0.7816164E-02  0.1186339E+00
        -11   -1    0    0    0    0  0.00000000000E+00  0.00000000000E+00  0.45593999997E+02  0.45594000000E+02  0.51100000000E-03 0.  1.
         11   -1    0    0    0    0 -0.00000000000E+00 -0.00000000000E+00 -0.45593999997E+02  0.45594000000E+02  0.51100000000E-03 0. -1.
    9900012    2    1    2    0    0 -0.11382831411E+01 -0.29059429565E+00 -0.11336988052E+00  0.90007751601E+02  0.90000013122E+02 0.  0.
        -12    1    1    2    0    0  0.11382831411E+01  0.29059429565E+00  0.11336988052E+00  0.11802483992E+01  0.00000000000E+00 0.  1.
         11    1    3    3    0    0  0.47862993740E+01 -0.16943949687E+02  0.73956881769E+01  0.19097180330E+02  0.51100000000E-03 0. -1.
        -11    1    3    3    0    0  0.94527881380E+01 -0.95764566460E+01  0.23753961278E+02  0.27300446922E+02  0.51100000000E-03 0.  1.
         12    1    3    3    0    0 -0.15377370653E+02  0.26229812038E+02 -0.31263019335E+02  0.43610124349E+02  0.00000000000E+00 0. -1.
</event>
<event>
 7    1  0.3925070E-015  0.9000770E+02  0.7816164E-02  0.1186339E+00
        -11   -1    0    0    0    0  0.00000000000E+00  0.00000000000E+00  0.45593999997E+02  0.45594000000E+02  0.51100000000E-03 0. -1.
         11   -1    0    0    0    0 -0.00000000000E+00 -0.00000000000E+00 -0.45593999997E+02  0.45594000000E+02  0.51100000000E-03 0.  1.
    9900012    2    1    2    0    0  0.66900378438E+00 -0.59226263072E+00  0.77121520040E+00  0.90007697508E+02  0.89999958315E+02 0.  0.
        -12    1    1    2    0    0 -0.66900378438E+00  0.59226263072E+00 -0.77121520040E+00  0.11803024920E+01  0.00000000000E+00 0.  1.
         11    1    3    3    0    0 -0.13448293795E+02 -0.36911421843E+02 -0.32609899377E+00  0.39286333619E+02  0.51100000000E-03 0. -1.
        -11    1    3    3    0    0  0.87907806848E+01 -0.40156071003E+01  0.26017849336E+01  0.10008606823E+02  0.51100000000E-03 0.  1.
        -12    1    3    3    0    0  0.53265168941E+01  0.40334766312E+02 -0.15044707394E+01  0.40712757066E+02  0.00000000000E+00 0.  1.
</event>
<event>
 7    1  0.3925070E-015  0.9000782E+02  0.7816164E-02  0.1186339E+00
        -11   -1    0    0    0    0  0.00000000000E+00  0.00000000000E+00  0.45593999997E+02  0.45594000000E+02  0.51100000000E-03 0.  1.
         11   -1    0    0    0    0 -0.00000000000E+00 -0.00000000000E+00 -0.45593999997E+02  0.45594000000E+02  0.51100000000E-03 0. -1.
    9900012    2    1    2    0    0  0.12674135931E+00 -0.11087140030E+01  0.38407484067E+00  0.90007820524E+02  0.90000082955E+02 0.  0.
        -12    1    1    2    0    0 -0.12674135931E+00  0.11087140030E+01 -0.38407484067E+00  0.11801794761E+01  0.00000000000E+00 0.  1.
         11    1    3    3    0    0 -0.68943544323E+01  0.28432660512E+01  0.41768717605E+00  0.74693204319E+01  0.51100000000E-03 0. -1.
        -11    1    3    3    0    0 -0.17128410608E+01  0.25121173056E+02  0.30453823360E+02  0.39515092277E+02  0.51100000000E-03 0.  1.
         12    1    3    3    0    0  0.87339368524E+01 -0.29073153110E+02 -0.30487435695E+02  0.43023407815E+02  0.00000000000E+00 0. -1.
</event>
<event>
 7    1  0.3925070E-015  0.9000887E+02  0.7816164E-02  0.1186337E+00
        -11   -1    0    0    0    0  0.00000000000E+00  0.00000000000E+00  0.45593999997E+02  0.45594000000E+02  0.51100000000E-03 0.  1.
         11   -1    0    0    0    0 -0.00000000000E+00 -0.00000000000E+00 -0.45593999997E+02  0.45594000000E+02  0.51100000000E-03 0. -1.
    9900012    2    1    2    0    0  0.34715622607E+00 -0.36776225660E+00 -0.10651681374E+01  0.90008869098E+02  0.90001145363E+02 0.  0.
        -12    1    1    2    0    0 -0.34715622607E+00  0.36776225660E+00  0.10651681374E+01  0.11791309018E+01  0.00000000000E+00 0.  1.
         11    1    3    3    0    0 -0.76727488026E+00 -0.96568978353E+01 -0.14954398555E+01  0.98020776964E+01  0.51100000000E-03 0. -1.
        -11    1    3    3    0    0 -0.19061587763E+02 -0.16589063041E+02  0.27733617175E+02  0.37519257222E+02  0.51100000000E-03 0.  1.
         12    1    3    3    0    0  0.20176018870E+02  0.25878198619E+02 -0.27303345457E+02  0.42687534180E+02  0.00000000000E+00 0. -1.
</event>
<event>
 7    1  0.3925070E-015  0.9000775E+02  0.7816164E-02  0.1186339E+00
        -11   -1    0    0    0    0  0.00000000000E+00  0.00000000000E+00  0.45593999997E+02  0.45594000000E+02  0.51100000000E-03 0.  1.
         11   -1    0    0    0    0 -0.00000000000E+00 -0.00000000000E+00 -0.45593999997E+02  0.45594000000E+02  0.51100000000E-03 0. -1.
    9900012    2    1    2    0    0  0.42524019997E+00  0.10943616172E+01  0.12053686594E+00  0.90007751843E+02  0.90000013367E+02 0.  0.
        -12    1    1    2    0    0 -0.42524019997E+00 -0.10943616172E+01 -0.12053686594E+00  0.11802481573E+01  0.00000000000E+00 0.  1.
         11    1    3    3    0    0  0.68012617377E+01 -0.82888519258E+01  0.43211825864E+01  0.11560053922E+02  0.51100000000E-03 0. -1.
        -11    1    3    3    0    0  0.24812857663E+02  0.10716051903E+02  0.24174309396E+02  0.36261672725E+02  0.51100000000E-03 0.  1.
         12    1    3    3    0    0 -0.31188879201E+02 -0.13328383596E+01 -0.28374955116E+02  0.42186025195E+02  0.00000000000E+00 0. -1.
</event>
<event>
 7    1  0.3925070E-015  0.9000780E+02  0.7816164E-02  0.1186339E+00
        -11   -1    0    0    0    0  0.00000000000E+00  0.00000000000E+00  0.45593999997E+02  0.45594000000E+02  0.51100000000E-03 0.  1.
         11   -1    0    0    0    0 -0.00000000000E+00 -0.00000000000E+00 -0.45593999997E+02  0.45594000000E+02  0.51100000000E-03 0. -1.
    9900012    2    1    2    0    0  0.87785138714E+00 -0.61636120741E+00 -0.49229817397E+00  0.90007795913E+02  0.90000058019E+02 0.  0.
        -12    1    1    2    0    0 -0.87785138714E+00  0.61636120741E+00  0.49229817397E+00  0.11802040874E+01  0.00000000000E+00 0.  1.
         11    1    3    3    0    0  0.42200099142E+01 -0.36702526580E+02  0.10051069857E+02  0.38287177313E+02  0.51100000000E-03 0. -1.
        -11    1    3    3    0    0 -0.80226405402E+01 -0.41563561742E+01  0.21068628805E+01  0.92777653205E+01  0.51100000000E-03 0.  1.
        -12    1    3    3    0    0  0.46804820132E+01  0.40242521547E+02 -0.12650230912E+02  0.42442853279E+02  0.00000000000E+00 0.  1.
</event>
<event>
 7    1  0.3925070E-015  0.9000772E+02  0.7816164E-02  0.1186339E+00
        -11   -1    0    0    0    0  0.00000000000E+00  0.00000000000E+00  0.45593999997E+02  0.45594000000E+02  0.51100000000E-03 0. -1.
         11   -1    0    0    0    0 -0.00000000000E+00 -0.00000000000E+00 -0.45593999997E+02  0.45594000000E+02  0.51100000000E-03 0.  1.
    9900012    2    1    2    0    0  0.24755544665E+00  0.21526383593E+00  0.11337750742E+01  0.90007716925E+02  0.89999977988E+02 0.  0.
        -12    1    1    2    0    0 -0.24755544665E+00 -0.21526383593E+00 -0.11337750742E+01  0.11802830750E+01  0.00000000000E+00 0.  1.
         11    1    3    3    0    0 -0.35905188409E+02  0.21176966814E+00  0.96983245471E+01  0.37192538235E+02  0.51100000000E-03 0. -1.
        -11    1    3    3    0    0 -0.43504300873E+01 -0.95541105641E+01 -0.15135442104E+01  0.10606511536E+02  0.51100000000E-03 0.  1.
        -12    1    3    3    0    0  0.40503173943E+02  0.95576047319E+01 -0.70510052625E+01  0.42208667154E+02  0.00000000000E+00 0.  1.
</event>
<event>
 7    1  0.3925070E-015  0.9000770E+02  0.7816164E-02  0.1186339E+00
        -11   -1    0    0    0    0  0.00000000000E+00  0.00000000000E+00  0.45593999997E+02  0.45594000000E+02  0.51100000000E-03 0. -1.
         11   -1    0    0    0    0 -0.00000000000E+00 -0.00000000000E+00 -0.45593999997E+02  0.45594000000E+02  0.51100000000E-03 0.  1.
    9900012    2    1    2    0    0 -0.88330998560E+00  0.73559389952E+00  0.26791571545E+00  0.90007697604E+02  0.89999958412E+02 0.  0.
        -12    1    1    2    0    0  0.88330998560E+00 -0.73559389952E+00 -0.26791571545E+00  0.11803023961E+01  0.00000000000E+00 0.  1.
         11    1    3    3    0    0 -0.26271239686E+01 -0.40129924339E+01  0.68548927532E+01  0.83663279604E+01  0.51100000000E-03 0. -1.
        -11    1    3    3    0    0 -0.33704477193E+02  0.27313002985E-02  0.18029663257E+02  0.38223821731E+02  0.51100000000E-03 0.  1.
         12    1    3    3    0    0  0.35448291176E+02  0.47458550331E+01 -0.24616640295E+02  0.43417547912E+02  0.00000000000E+00 0. -1.
</event>
<event>
 7    1  0.3925070E-015  0.9000774E+02  0.7816164E-02  0.1186339E+00
        -11   -1    0    0    0    0  0.00000000000E+00  0.00000000000E+00  0.45593999997E+02  0.45594000000E+02  0.51100000000E-03 0.  1.
         11   -1    0    0    0    0 -0.00000000000E+00 -0.00000000000E+00 -0.45593999997E+02  0.45594000000E+02  0.51100000000E-03 0. -1.
    9900012    2    1    2    0    0  0.13352488162E+00  0.10291588348E+01  0.56215379928E+00  0.90007739988E+02  0.90000001356E+02 0.  0.
        -12    1    1    2    0    0 -0.13352488162E+00 -0.10291588348E+01 -0.56215379928E+00  0.11802600118E+01  0.00000000000E+00 0.  1.
         11    1    3    3    0    0 -0.54644248083E+01 -0.29560965365E+01 -0.52880751796E+01  0.81585651058E+01  0.51100000000E-03 0. -1.
        -11    1    3    3    0    0  0.63783724235E+01  0.42430526649E+02 -0.29357526678E+00  0.42908267422E+02  0.51100000000E-03 0.  1.
         12    1    3    3    0    0 -0.78042273354E+00 -0.38445271277E+02  0.61438042457E+01  0.38940907460E+02  0.00000000000E+00 0. -1.
</event>
<event>
 7    1  0.3925070E-015  0.9000778E+02  0.7816164E-02  0.1186339E+00
        -11   -1    0    0    0    0  0.00000000000E+00  0.00000000000E+00  0.45593999997E+02  0.45594000000E+02  0.51100000000E-03 0. -1.
         11   -1    0    0    0    0 -0.00000000000E+00 -0.00000000000E+00 -0.45593999997E+02  0.45594000000E+02  0.51100000000E-03 0.  1.
    9900012    2    1    2    0    0 -0.41836902307E+00 -0.37214125267E+00  0.10389451045E+01  0.90007776004E+02  0.90000037847E+02 0.  0.
        -12    1    1    2    0    0  0.41836902307E+00  0.37214125267E+00 -0.10389451045E+01  0.11802239964E+01  0.00000000000E+00 0.  1.
         11    1    3    3    0    0  0.28769685510E+02  0.23951261669E+02 -0.84579981387E+01  0.38378320347E+02  0.51100000000E-03 0. -1.
        -11    1    3    3    0    0  0.27932999481E+00  0.60048686046E+01 -0.40242649500E+01  0.72340293650E+01  0.51100000000E-03 0.  1.
        -12    1    3    3    0    0 -0.29467384528E+02 -0.30328271526E+02  0.13521208193E+02  0.44395426292E+02  0.00000000000E+00 0.  1.
</event>
<event>
 7    1  0.3925070E-015  0.9000771E+02  0.7816164E-02  0.1186339E+00
        -11   -1    0    0    0    0  0.00000000000E+00  0.00000000000E+00  0.45593999997E+02  0.45594000000E+02  0.51100000000E-03 0. -1.
         11   -1    0    0    0    0 -0.00000000000E+00 -0.00000000000E+00 -0.45593999997E+02  0.45594000000E+02  0.51100000000E-03 0.  1.
    9900012    2    1    2    0    0 -0.13180424175E+00  0.59006396723E+00  0.10136698816E+01  0.90007714241E+02  0.89999975269E+02 0.  0.
        -12    1    1    2    0    0  0.13180424175E+00 -0.59006396723E+00 -0.10136698816E+01  0.11802857588E+01  0.00000000000E+00 0.  1.
         11    1    3    3    0    0 -0.62819595042E+01  0.22346298513E+02 -0.58565209307E+00  0.23219885036E+02  0.51100000000E-03 0. -1.
        -11    1    3    3    0    0  0.16819277219E+02  0.10170487961E+02 -0.18988210420E+02  0.27329087924E+02  0.51100000000E-03 0.  1.
         12    1    3    3    0    0 -0.10669121957E+02 -0.31926722507E+02  0.20587532395E+02  0.39458741281E+02  0.00000000000E+00 0. -1.
</event>
<event>
 7    1  0.3925070E-015  0.9000779E+02  0.7816164E-02  0.1186339E+00
        -11   -1    0    0    0    0  0.00000000000E+00  0.00000000000E+00  0.45593999997E+02  0.45594000000E+02  0.51100000000E-03 0. -1.
         11   -1    0    0    0    0 -0.00000000000E+00 -0.00000000000E+00 -0.45593999997E+02  0.45594000000E+02  0.51100000000E-03 0.  1.
    9900012    2    1    2    0    0 -0.38452142786E+00 -0.51401115158E+00  0.99036400057E+00  0.90007794490E+02  0.90000056577E+02 0.  0.
        -12    1    1    2    0    0  0.38452142786E+00  0.51401115158E+00 -0.99036400057E+00  0.11802055101E+01  0.00000000000E+00 0.  1.
         11    1    3    3    0    0 -0.86618317269E+01  0.26397590740E+01 -0.31231800837E+01  0.95786173809E+01  0.51100000000E-03 0. -1.
        -11    1    3    3    0    0  0.26466994739E+02  0.26587439168E+02 -0.15312080140E+02  0.40519791837E+02  0.51100000000E-03 0.  1.
         12    1    3    3    0    0 -0.18189684440E+02 -0.29741209394E+02  0.19425624224E+02  0.39909385272E+02  0.00000000000E+00 0. -1.
</event>
<event>
 7    1  0.3925070E-015  0.9000788E+02  0.7816164E-02  0.1186339E+00
        -11   -1    0    0    0    0  0.00000000000E+00  0.00000000000E+00  0.45593999997E+02  0.45594000000E+02  0.51100000000E-03 0.  1.
         11   -1    0    0    0    0 -0.00000000000E+00 -0.00000000000E+00 -0.45593999997E+02  0.45594000000E+02  0.51100000000E-03 0. -1.
    9900012    2    1    2    0    0 -0.76411971465E+00  0.39745192143E+00 -0.80674353916E+00  0.90007880470E+02  0.90000143692E+02 0.  0.
        -12    1    1    2    0    0  0.76411971465E+00 -0.39745192143E+00  0.80674353916E+00  0.11801195304E+01  0.00000000000E+00 0.  1.
         11    1    3    3    0    0  0.36823086370E+02  0.20373620074E+02 -0.12119309966E+02  0.43793855266E+02  0.51100000000E-03 0. -1.
        -11    1    3    3    0    0 -0.51252046049E+01  0.16707912792E+01  0.34848213193E+01  0.64189754345E+01  0.51100000000E-03 0.  1.
        -12    1    3    3    0    0 -0.32462001480E+02 -0.21646959432E+02  0.78277451071E+01  0.39795049770E+02  0.00000000000E+00 0.  1.
</event>
<event>
 7    1  0.3925070E-015  0.9000771E+02  0.7816164E-02  0.1186339E+00
        -11   -1    0    0    0    0  0.00000000000E+00  0.00000000000E+00  0.45593999997E+02  0.45594000000E+02  0.51100000000E-03 0.  1.
         11   -1    0    0    0    0 -0.00000000000E+00 -0.00000000000E+00 -0.45593999997E+02  0.45594000000E+02  0.51100000000E-03 0. -1.
    9900012    2    1    2    0    0  0.11596485769E+01  0.43904581078E-01  0.21532525023E+00  0.90007713002E+02  0.89999974014E+02 0.  0.
        -12    1    1    2    0    0 -0.11596485769E+01 -0.43904581078E-01 -0.21532525023E+00  0.11802869980E+01  0.00000000000E+00 0.  1.
         11    1    3    3    0    0  0.89528292309E+01  0.13551260843E+01  0.44562387450E+01  0.10091956300E+02  0.51100000000E-03 0. -1.
        -11    1    3    3    0    0  0.35075535350E+02 -0.55415206835E+01  0.49940418966E+01  0.35860034667E+02  0.51100000000E-03 0.  1.
         12    1    3    3    0    0 -0.42868716004E+02  0.42302991802E+01 -0.92349553914E+01  0.44055722036E+02  0.00000000000E+00 0. -1.
</event>
<event>
 7    1  0.3925070E-015  0.9000784E+02  0.7816164E-02  0.1186339E+00
        -11   -1    0    0    0    0  0.00000000000E+00  0.00000000000E+00  0.45593999997E+02  0.45594000000E+02  0.51100000000E-03 0. -1.
         11   -1    0    0    0    0 -0.00000000000E+00 -0.00000000000E+00 -0.45593999997E+02  0.45594000000E+02  0.51100000000E-03 0.  1.
    9900012    2    1    2    0    0 -0.10984957370E+00 -0.11618401009E+01 -0.17562352460E+00  0.90007837735E+02  0.90000100393E+02 0.  0.
        -12    1    1    2    0    0  0.10984957370E+00  0.11618401009E+01  0.17562352460E+00  0.11801622648E+01  0.00000000000E+00 0.  1.
         11    1    3    3    0    0 -0.65596358148E+01  0.56867720738E+01  0.22696970480E+01  0.89732783080E+01  0.51100000000E-03 0. -1.
        -11    1    3    3    0    0  0.11407145585E+00 -0.28558572196E+02 -0.32600882324E+02  0.43340772798E+02  0.51100000000E-03 0.  1.
         12    1    3    3    0    0  0.63357147853E+01  0.21709960021E+02  0.30155561751E+02  0.37693786630E+02  0.00000000000E+00 0. -1.
</event>
<event>
 7    1  0.3925070E-015  0.9000759E+02  0.7816164E-02  0.1186339E+00
        -11   -1    0    0    0    0  0.00000000000E+00  0.00000000000E+00  0.45593999997E+02  0.45594000000E+02  0.51100000000E-03 0.  1.
         11   -1    0    0    0    0 -0.00000000000E+00 -0.00000000000E+00 -0.45593999997E+02  0.45594000000E+02  0.51100000000E-03 0. -1.
    9900012    2    1    2    0    0 -0.54807022455E+00 -0.10367680253E+01 -0.13450310376E+00  0.90007593293E+02  0.89999852724E+02 0.  0.
        -12    1    1    2    0    0  0.54807022455E+00  0.10367680253E+01  0.13450310376E+00  0.11804067072E+01  0.00000000000E+00 0.  1.
         11    1    3    3    0    0 -0.35975821212E+01 -0.30889667838E+02 -0.29034731400E+02  0.42545620268E+02  0.51100000000E-03 0. -1.
        -11    1    3    3    0    0  0.10578821561E+01  0.96877473326E+01 -0.25278061749E+01  0.10067838266E+02  0.51100000000E-03 0.  1.
        -12    1    3    3    0    0  0.19916297405E+01  0.20165152480E+02  0.31428034472E+02  0.37394134758E+02  0.00000000000E+00 0.  1.
</event>
<event>
 7    1  0.3925070E-015  0.9000766E+02  0.7816164E-02  0.1186339E+00
        -11   -1    0    0    0    0  0.00000000000E+00  0.00000000000E+00  0.45593999997E+02  0.45594000000E+02  0.51100000000E-03 0. -1.
         11   -1    0    0    0    0 -0.00000000000E+00 -0.00000000000E+00 -0.45593999997E+02  0.45594000000E+02  0.51100000000E-03 0.  1.
    9900012    2    1    2    0    0 -0.87929086449E+00  0.75928353177E+00  0.20863821781E+00  0.90007663687E+02  0.89999924048E+02 0.  0.
        -12    1    1    2    0    0  0.87929086449E+00 -0.75928353177E+00 -0.20863821781E+00  0.11803363131E+01  0.00000000000E+00 0.  1.
         11    1    3    3    0    0 -0.60627773850E+01  0.30227267239E+01 -0.70797811069E+01  0.97988492820E+01  0.51100000000E-03 0. -1.
        -11    1    3    3    0    0  0.10796408545E+02  0.22535900938E+02 -0.27475012924E+02  0.37139003810E+02  0.51100000000E-03 0.  1.
         12    1    3    3    0    0 -0.56129220242E+01 -0.24799344130E+02  0.34763432249E+02  0.43069810595E+02  0.00000000000E+00 0. -1.
</event>
<event>
 7    1  0.3925070E-015  0.9000771E+02  0.7816164E-02  0.1186339E+00
        -11   -1    0    0    0    0  0.00000000000E+00  0.00000000000E+00  0.45593999997E+02  0.45594000000E+02  0.51100000000E-03 0.  1.
         11   -1    0    0    0    0 -0.00000000000E+00 -0.00000000000E+00 -0.45593999997E+02  0.45594000000E+02  0.51100000000E-03 0. -1.
    9900012    2    1    2    0    0 -0.10971217949E+01  0.42613776177E+00 -0.88401389508E-01  0.90007710023E+02  0.89999970995E+02 0.  0.
        -12    1    1    2    0    0  0.10971217949E+01 -0.42613776177E+00  0.88401389508E-01  0.11802899773E+01  0.00000000000E+00 0.  1.
         11    1    3    3    0    0 -0.68025095641E+01 -0.44072563676E+01  0.54912697978E+01  0.97904080259E+01  0.51100000000E-03 0. -1.
        -11    1    3    3    0    0  0.32190469243E+02 -0.17464137056E+02  0.15407194828E+02  0.39731650430E+02  0.51100000000E-03 0.  1.
         12    1    3    3    0    0 -0.26485081473E+02  0.22297531186E+02 -0.20986866016E+02  0.40485651567E+02  0.00000000000E+00 0. -1.
</event>
<event>
 7    1  0.3925070E-015  0.9000776E+02  0.7816164E-02  0.1186339E+00
        -11   -1    0    0    0    0  0.00000000000E+00  0.00000000000E+00  0.45593999997E+02  0.45594000000E+02  0.51100000000E-03 0.  1.
         11   -1    0    0    0    0 -0.00000000000E+00 -0.00000000000E+00 -0.45593999997E+02  0.45594000000E+02  0.51100000000E-03 0. -1.
    9900012    2    1    2    0    0  0.32047544297E+00  0.11170201766E+01 -0.20621588574E+00  0.90007761221E+02  0.90000022869E+02 0.  0.
        -12    1    1    2    0    0 -0.32047544297E+00 -0.11170201766E+01  0.20621588574E+00  0.11802387792E+01  0.00000000000E+00 0.  1.
         11    1    3    3    0    0 -0.16072070095E+02  0.19905162827E+02 -0.52260663925E+01  0.26112041561E+02  0.51100000000E-03 0. -1.
        -11    1    3    3    0    0 -0.11408791813E+02  0.11627208847E+02  0.14278286220E+02  0.21661532121E+02  0.51100000000E-03 0.  1.
        -12    1    3    3    0    0  0.27801337350E+02 -0.30415351497E+02 -0.92584357134E+01  0.42234187538E+02  0.00000000000E+00 0.  1.
</event>
<event>
 7    1  0.3925070E-015  0.9000774E+02  0.7816164E-02  0.1186339E+00
        -11   -1    0    0    0    0  0.00000000000E+00  0.00000000000E+00  0.45593999997E+02  0.45594000000E+02  0.51100000000E-03 0.  1.
         11   -1    0    0    0    0 -0.00000000000E+00 -0.00000000000E+00 -0.45593999997E+02  0.45594000000E+02  0.51100000000E-03 0. -1.
    9900012    2    1    2    0    0  0.10100109072E+01 -0.24800799325E+00  0.55802674032E+00  0.90007735691E+02  0.89999997002E+02 0.  0.
        -12    1    1    2    0    0 -0.10100109072E+01  0.24800799325E+00 -0.55802674032E+00  0.11802643095E+01  0.00000000000E+00 0.  1.
         11    1    3    3    0    0 -0.39409132456E+01  0.24395229145E+02 -0.27647695851E+02  0.37081708272E+02  0.51100000000E-03 0. -1.
        -11    1    3    3    0    0 -0.92173493713E+01 -0.81876687099E+01 -0.49558138296E+01  0.13287495600E+02  0.51100000000E-03 0.  1.
        -12    1    3    3    0    0  0.14168273524E+02 -0.16455568428E+02  0.33161536421E+02  0.39638531819E+02  0.00000000000E+00 0.  1.
</event>
<event>
 7    1  0.3925070E-015  0.9000785E+02  0.7816164E-02  0.1186339E+00
        -11   -1    0    0    0    0  0.00000000000E+00  0.00000000000E+00  0.45593999997E+02  0.45594000000E+02  0.51100000000E-03 0.  1.
         11   -1    0    0    0    0 -0.00000000000E+00 -0.00000000000E+00 -0.45593999997E+02  0.45594000000E+02  0.51100000000E-03 0. -1.
    9900012    2    1    2    0    0  0.17341382656E+00  0.15180664051E+00 -0.11574225825E+01  0.90007853973E+02  0.90000116845E+02 0.  0.
        -12    1    1    2    0    0 -0.17341382656E+00 -0.15180664051E+00  0.11574225825E+01  0.11801460274E+01  0.00000000000E+00 0.  1.
         11    1    3    3    0    0  0.20949102746E+01 -0.41084244108E+02 -0.10536584891E+02  0.42465555270E+02  0.51100000000E-03 0. -1.
        -11    1    3    3    0    0  0.20087923823E+01  0.15279007514E+02 -0.66485439339E+01  0.16783517335E+02  0.51100000000E-03 0.  1.
        -12    1    3    3    0    0 -0.39302888303E+01  0.25957043235E+02  0.16027706243E+02  0.30758781367E+02  0.00000000000E+00 0.  1.
</event>
<event>
 7    1  0.3925070E-015  0.9000749E+02  0.7816164E-02  0.1186340E+00
        -11   -1    0    0    0    0  0.00000000000E+00  0.00000000000E+00  0.45593999997E+02  0.45594000000E+02  0.51100000000E-03 0.  1.
         11   -1    0    0    0    0 -0.00000000000E+00 -0.00000000000E+00 -0.45593999997E+02  0.45594000000E+02  0.51100000000E-03 0. -1.
    9900012    2    1    2    0    0  0.78097788385E+00  0.73387766418E+00 -0.49508553646E+00  0.90007486311E+02  0.89999744330E+02 0.  0.
        -12    1    1    2    0    0 -0.78097788385E+00 -0.73387766418E+00  0.49508553646E+00  0.11805136888E+01  0.00000000000E+00 0.  1.
         11    1    3    3    0    0  0.49035349543E+01 -0.60730718946E+01 -0.51340376594E+01  0.93426548815E+01  0.51100000000E-03 0. -1.
        -11    1    3    3    0    0 -0.61312336384E+01 -0.11988988422E+02  0.39103282595E+02  0.41356916946E+02  0.51100000000E-03 0.  1.
         12    1    3    3    0    0  0.20086765679E+01  0.18795937980E+02 -0.34464330473E+02  0.39307914483E+02  0.00000000000E+00 0. -1.
</event>
<event>
 7    1  0.3925070E-015  0.9000780E+02  0.7816164E-02  0.1186339E+00
        -11   -1    0    0    0    0  0.00000000000E+00  0.00000000000E+00  0.45593999997E+02  0.45594000000E+02  0.51100000000E-03 0.  1.
         11   -1    0    0    0    0 -0.00000000000E+00 -0.00000000000E+00 -0.45593999997E+02  0.45594000000E+02  0.51100000000E-03 0. -1.
    9900012    2    1    2    0    0 -0.10122943148E+01  0.35874893749E+00 -0.48931557549E+00  0.90007800732E+02  0.90000062902E+02 0.  0.
        -12    1    1    2    0    0  0.10122943148E+01 -0.35874893749E+00  0.48931557549E+00  0.11801992681E+01  0.00000000000E+00 0.  1.
         11    1    3    3    0    0 -0.12198168378E+02  0.98602699620E+00 -0.23471933619E+02  0.26470724000E+02  0.51100000000E-03 0. -1.
        -11    1    3    3    0    0 -0.76197845801E+00 -0.96170735390E+01 -0.17719495816E+02  0.20175461503E+02  0.51100000000E-03 0.  1.
        -12    1    3    3    0    0  0.11947852521E+02  0.89897954803E+01  0.40702113859E+02  0.43361615229E+02  0.00000000000E+00 0.  1.
</event>
<event>
 7    1  0.3925070E-015  0.9000798E+02  0.7816164E-02  0.1186339E+00
        -11   -1    0    0    0    0  0.00000000000E+00  0.00000000000E+00  0.45593999997E+02  0.45594000000E+02  0.51100000000E-03 0. -1.
         11   -1    0    0    0    0 -0.00000000000E+00 -0.00000000000E+00 -0.45593999997E+02  0.45594000000E+02  0.51100000000E-03 0.  1.
    9900012    2    1    2    0    0  0.52535088916E+00 -0.60123483052E+00  0.86888908641E+00  0.90007980880E+02  0.90000245428E+02 0.  0.
        -12    1    1    2    0    0 -0.52535088916E+00  0.60123483052E+00 -0.86888908641E+00  0.11800191196E+01  0.00000000000E+00 0.  1.
         11    1    3    3    0    0  0.87753283542E+01  0.64003396035E+01 -0.80510030039E-01  0.10861731763E+02  0.51100000000E-03 0. -1.
        -11    1    3    3    0    0  0.56570358104E+01 -0.34156265572E+02 -0.21955523528E+02  0.40996311366E+02  0.51100000000E-03 0.  1.
         12    1    3    3    0    0 -0.13907013275E+02  0.27154691138E+02  0.22904922645E+02  0.38149937751E+02  0.00000000000E+00 0. -1.
</event>
<event>
 7    1  0.3925070E-015  0.9000760E+02  0.7816164E-02  0.1186339E+00
        -11   -1    0    0    0    0  0.00000000000E+00  0.00000000000E+00  0.45593999997E+02  0.45594000000E+02  0.51100000000E-03 0.  1.
         11   -1    0    0    0    0 -0.00000000000E+00 -0.00000000000E+00 -0.45593999997E+02  0.45594000000E+02  0.51100000000E-03 0. -1.
    9900012    2    1    2    0    0  0.13766622717E+00 -0.95528487487E+00 -0.67957827166E+00  0.90007598454E+02  0.89999857954E+02 0.  0.
        -12    1    1    2    0    0 -0.13766622717E+00  0.95528487487E+00  0.67957827166E+00  0.11804015459E+01  0.00000000000E+00 0.  1.
         11    1    3    3    0    0  0.77373268196E+01 -0.26127879233E+01 -0.44189079076E+01  0.92854528377E+01  0.51100000000E-03 0. -1.
        -11    1    3    3    0    0 -0.18682405474E+02 -0.14036240751E+02 -0.32308888360E+02  0.39873708079E+02  0.51100000000E-03 0.  1.
         12    1    3    3    0    0  0.11082744881E+02  0.15693743799E+02  0.36048217996E+02  0.40848437537E+02  0.00000000000E+00 0. -1.
</event>
<event>
 7    1  0.3925070E-015  0.9000771E+02  0.7816164E-02  0.1186339E+00
        -11   -1    0    0    0    0  0.00000000000E+00  0.00000000000E+00  0.45593999997E+02  0.45594000000E+02  0.51100000000E-03 0. -1.
         11   -1    0    0    0    0 -0.00000000000E+00 -0.00000000000E+00 -0.45593999997E+02  0.45594000000E+02  0.51100000000E-03 0.  1.
    9900012    2    1    2    0    0 -0.35467527850E+00  0.48699616131E+00  0.10149460180E+01  0.90007713919E+02  0.89999974942E+02 0.  0.
        -12    1    1    2    0    0  0.35467527850E+00 -0.48699616131E+00 -0.10149460180E+01  0.11802860813E+01  0.00000000000E+00 0.  1.
         11    1    3    3    0    0  0.56924643120E+01  0.66836245970E+01  0.32802224268E+02  0.33956750506E+02  0.51100000000E-03 0. -1.
        -11    1    3    3    0    0  0.12951485327E+02 -0.81036935494E+00  0.53131521975E+01  0.14022384148E+02  0.51100000000E-03 0.  1.
        -12    1    3    3    0    0 -0.18998624917E+02 -0.53862590808E+01 -0.37100430448E+02  0.42028579265E+02  0.00000000000E+00 0.  1.
</event>
<event>
 7    1  0.3925070E-015  0.9000753E+02  0.7816164E-02  0.1186339E+00
        -11   -1    0    0    0    0  0.00000000000E+00  0.00000000000E+00  0.45593999997E+02  0.45594000000E+02  0.51100000000E-03 0.  1.
         11   -1    0    0    0    0 -0.00000000000E+00 -0.00000000000E+00 -0.45593999997E+02  0.45594000000E+02  0.51100000000E-03 0. -1.
    9900012    2    1    2    0    0  0.10362552103E+01 -0.35579417542E+00  0.43943744760E+00  0.90007525677E+02  0.89999784216E+02 0.  0.
        -12    1    1    2    0    0 -0.10362552103E+01  0.35579417542E+00 -0.43943744760E+00  0.11804743227E+01  0.00000000000E+00 0.  1.
         11    1    3    3    0    0  0.95009511366E+01  0.77978818758E+01  0.34554289664E+01  0.12767733701E+02  0.51100000000E-03 0. -1.
        -11    1    3    3    0    0  0.18377706470E+02  0.20373212093E+02  0.17973706265E+02  0.32800335109E+02  0.51100000000E-03 0.  1.
         12    1    3    3    0    0 -0.26842402397E+02 -0.28526888144E+02 -0.20989697784E+02  0.44439456868E+02  0.00000000000E+00 0. -1.
</event>
<event>
 7    1  0.3925070E-015  0.9000773E+02  0.7816164E-02  0.1186339E+00
        -11   -1    0    0    0    0  0.00000000000E+00  0.00000000000E+00  0.45593999997E+02  0.45594000000E+02  0.51100000000E-03 0.  1.
         11   -1    0    0    0    0 -0.00000000000E+00 -0.00000000000E+00 -0.45593999997E+02  0.45594000000E+02  0.51100000000E-03 0. -1.
    9900012    2    1    2    0    0  0.42001248389E+00 -0.64932839061E+00 -0.89162382026E+00  0.90007732707E+02  0.89999993979E+02 0.  0.
        -12    1    1    2    0    0 -0.42001248389E+00  0.64932839061E+00  0.89162382026E+00  0.11802672928E+01  0.00000000000E+00 0.  1.
         11    1    3    3    0    0 -0.96153273599E+01 -0.13046040788E+01  0.45698093235E+01  0.10725654738E+02  0.51100000000E-03 0. -1.
        -11    1    3    3    0    0 -0.25319827466E+02 -0.21271093714E+02 -0.15445989251E+02  0.36498379072E+02  0.51100000000E-03 0.  1.
         12    1    3    3    0    0  0.35355167309E+02  0.21926369402E+02  0.99845561075E+01  0.42783698897E+02  0.00000000000E+00 0. -1.
</event>
<event>
 7    1  0.3925070E-015  0.9000772E+02  0.7816164E-02  0.1186339E+00
        -11   -1    0    0    0    0  0.00000000000E+00  0.00000000000E+00  0.45593999997E+02  0.45594000000E+02  0.51100000000E-03 0. -1.
         11   -1    0    0    0    0 -0.00000000000E+00 -0.00000000000E+00 -0.45593999997E+02  0.45594000000E+02  0.51100000000E-03 0.  1.
    9900012    2    1    2    0    0  0.84725460945E+00 -0.57700834280E+00  0.58504460057E+00  0.90007721988E+02  0.89999983118E+02 0.  0.
        -12    1    1    2    0    0 -0.84725460945E+00  0.57700834280E+00 -0.58504460057E+00  0.11802780120E+01  0.00000000000E+00 0.  1.
         11    1    3    3    0    0  0.24361833620E+02 -0.98078128422E+01  0.11853775324E+02  0.28813262915E+02  0.51100000000E-03 0. -1.
        -11    1    3    3    0    0 -0.14233868115E+02 -0.16607740226E+02  0.12227108912E+02  0.25058376435E+02  0.51100000000E-03 0.  1.
        -12    1    3    3    0    0 -0.92807108961E+01  0.25838544726E+02 -0.23495839635E+02  0.36136082638E+02  0.00000000000E+00 0.  1.
</event>
<event>
 7    1  0.3925070E-015  0.9000774E+02  0.7816164E-02  0.1186339E+00
        -11   -1    0    0    0    0  0.00000000000E+00  0.00000000000E+00  0.45593999997E+02  0.45594000000E+02  0.51100000000E-03 0.  1.
         11   -1    0    0    0    0 -0.00000000000E+00 -0.00000000000E+00 -0.45593999997E+02  0.45594000000E+02  0.51100000000E-03 0. -1.
    9900012    2    1    2    0    0  0.96604633773E+00  0.19942011077E+00  0.64808263018E+00  0.90007735198E+02  0.89999996503E+02 0.  0.
        -12    1    1    2    0    0 -0.96604633773E+00 -0.19942011077E+00 -0.64808263018E+00  0.11802648020E+01  0.00000000000E+00 0.  1.
         11    1    3    3    0    0 -0.11243065759E+01  0.15579016018E+01 -0.45295539084E+01  0.49201607238E+01  0.51100000000E-03 0. -1.
        -11    1    3    3    0    0 -0.17711883487E+02 -0.25975694153E+02 -0.25927705877E+02  0.40751606542E+02  0.51100000000E-03 0.  1.
         12    1    3    3    0    0  0.19802236401E+02  0.24617212662E+02  0.31105342416E+02  0.44335967933E+02  0.00000000000E+00 0. -1.
</event>
<event>
 7    1  0.3925070E-015  0.9000770E+02  0.7816164E-02  0.1186339E+00
        -11   -1    0    0    0    0  0.00000000000E+00  0.00000000000E+00  0.45593999997E+02  0.45594000000E+02  0.51100000000E-03 0.  1.
         11   -1    0    0    0    0 -0.00000000000E+00 -0.00000000000E+00 -0.45593999997E+02  0.45594000000E+02  0.51100000000E-03 0. -1.
    9900012    2    1    2    0    0 -0.46862798820E+00  0.87427777680E+00  0.63962790967E+00  0.90007704408E+02  0.89999965306E+02 0.  0.
        -12    1    1    2    0    0  0.46862798820E+00 -0.87427777680E+00 -0.63962790967E+00  0.11802955923E+01  0.00000000000E+00 0.  1.
         11    1    3    3    0    0 -0.27184483897E+01 -0.34663326755E+02 -0.15179437172E+02  0.37938786175E+02  0.51100000000E-03 0. -1.
        -11    1    3    3    0    0  0.17406721283E+00  0.18921539322E+00 -0.88881046391E+01  0.88918224339E+01  0.51100000000E-03 0.  1.
        -12    1    3    3    0    0  0.20757531887E+01  0.35348389138E+02  0.24707169720E+02  0.43177095798E+02  0.00000000000E+00 0.  1.
</event>
<event>
 7    1  0.3925070E-015  0.9000780E+02  0.7816164E-02  0.1186339E+00
        -11   -1    0    0    0    0  0.00000000000E+00  0.00000000000E+00  0.45593999997E+02  0.45594000000E+02  0.51100000000E-03 0.  1.
         11   -1    0    0    0    0 -0.00000000000E+00 -0.00000000000E+00 -0.45593999997E+02  0.45594000000E+02  0.51100000000E-03 0. -1.
    9900012    2    1    2    0    0  0.66238284916E+00 -0.50831683187E+00 -0.83410444250E+00  0.90007802024E+02  0.90000064211E+02 0.  0.
        -12    1    1    2    0    0 -0.66238284916E+00  0.50831683187E+00  0.83410444250E+00  0.11801979755E+01  0.00000000000E+00 0.  1.
         11    1    3    3    0    0 -0.24791417453E+02 -0.14426078031E+02 -0.19585943984E+02  0.34732338082E+02  0.51100000000E-03 0. -1.
        -11    1    3    3    0    0 -0.54621745173E+01 -0.73478315176E+01 -0.54205774353E+01  0.10639954815E+02  0.51100000000E-03 0.  1.
        -12    1    3    3    0    0  0.30915974819E+02  0.21265592716E+02  0.24172416977E+02  0.44635509128E+02  0.00000000000E+00 0.  1.
</event>
<event>
 7    1  0.3925070E-015  0.9000775E+02  0.7816164E-02  0.1186339E+00
        -11   -1    0    0    0    0  0.00000000000E+00  0.00000000000E+00  0.45593999997E+02  0.45594000000E+02  0.51100000000E-03 0. -1.
         11   -1    0    0    0    0 -0.00000000000E+00 -0.00000000000E+00 -0.45593999997E+02  0.45594000000E+02  0.51100000000E-03 0.  1.
    9900012    2    1    2    0    0  0.14255431115E+00 -0.98294730954E+00  0.63756035913E+00  0.90007749875E+02  0.90000011374E+02 0.  0.
        -12    1    1    2    0    0 -0.14255431115E+00  0.98294730954E+00 -0.63756035913E+00  0.11802501245E+01  0.00000000000E+00 0.  1.
         11    1    3    3    0    0  0.22683097872E+02  0.24542599291E+02  0.15215207227E+02  0.36720084970E+02  0.51100000000E-03 0. -1.
        -11    1    3    3    0    0  0.13498446228E+01 -0.55323664334E+01  0.11388252254E+02  0.12732692116E+02  0.51100000000E-03 0.  1.
        -12    1    3    3    0    0 -0.23890388183E+02 -0.19993180167E+02 -0.25965899122E+02  0.40554972789E+02  0.00000000000E+00 0.  1.
</event>
<event>
 7    1  0.3925070E-015  0.9000781E+02  0.7816164E-02  0.1186339E+00
        -11   -1    0    0    0    0  0.00000000000E+00  0.00000000000E+00  0.45593999997E+02  0.45594000000E+02  0.51100000000E-03 0. -1.
         11   -1    0    0    0    0 -0.00000000000E+00 -0.00000000000E+00 -0.45593999997E+02  0.45594000000E+02  0.51100000000E-03 0.  1.
    9900012    2    1    2    0    0  0.97375337661E-02  0.84658521775E-01  0.11771048849E+01  0.90007814508E+02  0.90000076860E+02 0.  0.
        -12    1    1    2    0    0 -0.97375337661E-02 -0.84658521775E-01 -0.11771048849E+01  0.11801854918E+01  0.00000000000E+00 0.  1.
         11    1    3    3    0    0 -0.95179962186E+01  0.37669096458E+02  0.18119521373E+02  0.42870387624E+02  0.51100000000E-03 0. -1.
        -11    1    3    3    0    0 -0.17823990876E+01 -0.89127653444E+01  0.39412009030E+01  0.99069368329E+01  0.51100000000E-03 0.  1.
        -12    1    3    3    0    0  0.11310132840E+02 -0.28671672592E+02 -0.20883617391E+02  0.37230490051E+02  0.00000000000E+00 0.  1.
</event>
<event>
 7    1  0.3925070E-015  0.9000776E+02  0.7816164E-02  0.1186339E+00
        -11   -1    0    0    0    0  0.00000000000E+00  0.00000000000E+00  0.45593999997E+02  0.45594000000E+02  0.51100000000E-03 0. -1.
         11   -1    0    0    0    0 -0.00000000000E+00 -0.00000000000E+00 -0.45593999997E+02  0.45594000000E+02  0.51100000000E-03 0.  1.
    9900012    2    1    2    0    0  0.67673053771E+00  0.94768323654E+00 -0.19209555124E+00  0.90007759161E+02  0.90000020782E+02 0.  0.
        -12    1    1    2    0    0 -0.67673053771E+00 -0.94768323654E+00  0.19209555124E+00  0.11802408391E+01  0.00000000000E+00 0.  1.
         11    1    3    3    0    0  0.30437880249E+02 -0.29312702259E+02 -0.23988876316E+01  0.42325568276E+02  0.51100000000E-03 0. -1.
        -11    1    3    3    0    0 -0.40225438369E+01  0.25673026983E+01 -0.72784509546E+01  0.87033183685E+01  0.51100000000E-03 0.  1.
        -12    1    3    3    0    0 -0.25738605875E+02  0.27693082797E+02  0.94852430350E+01  0.38978872516E+02  0.00000000000E+00 0.  1.
</event>
<event>
 7    1  0.3925070E-015  0.9000779E+02  0.7816164E-02  0.1186339E+00
        -11   -1    0    0    0    0  0.00000000000E+00  0.00000000000E+00  0.45593999997E+02  0.45594000000E+02  0.51100000000E-03 0.  1.
         11   -1    0    0    0    0 -0.00000000000E+00 -0.00000000000E+00 -0.45593999997E+02  0.45594000000E+02  0.51100000000E-03 0. -1.
    9900012    2    1    2    0    0 -0.53640264537E+00  0.11495451183E+00 -0.10449645084E+01  0.90007791052E+02  0.90000053094E+02 0.  0.
        -12    1    1    2    0    0  0.53640264537E+00 -0.11495451183E+00  0.10449645084E+01  0.11802089483E+01  0.00000000000E+00 0.  1.
         11    1    3    3    0    0 -0.49756876947E+01  0.73249406991E+01  0.72790454438E+00  0.88849349782E+01  0.51100000000E-03 0. -1.
        -11    1    3    3    0    0  0.13455597738E+02  0.34767510760E+02  0.51463891511E+01  0.37634003726E+02  0.51100000000E-03 0.  1.
         12    1    3    3    0    0 -0.90163126882E+01 -0.41977496947E+02 -0.69192582039E+01  0.43488852348E+02  0.00000000000E+00 0. -1.
</event>
<event>
 7    1  0.3925070E-015  0.9000831E+02  0.7816164E-02  0.1186338E+00
        -11   -1    0    0    0    0  0.00000000000E+00  0.00000000000E+00  0.45593999997E+02  0.45594000000E+02  0.51100000000E-03 0.  1.
         11   -1    0    0    0    0 -0.00000000000E+00 -0.00000000000E+00 -0.45593999997E+02  0.45594000000E+02  0.51100000000E-03 0. -1.
    9900012    2    1    2    0    0 -0.64497721038E+00 -0.95098791352E+00 -0.26703039068E+00  0.90008305615E+02  0.90000574447E+02 0.  0.
        -12    1    1    2    0    0  0.64497721038E+00  0.95098791352E+00  0.26703039068E+00  0.11796943855E+01  0.00000000000E+00 0.  1.
         11    1    3    3    0    0  0.45444912165E+01  0.41659129664E+01  0.67072158408E+01  0.91101029553E+01  0.51100000000E-03 0. -1.
        -11    1    3    3    0    0  0.19189262155E+02 -0.14774788852E+02  0.28105937357E+02  0.37100753128E+02  0.51100000000E-03 0.  1.
         12    1    3    3    0    0 -0.24378730582E+02  0.96578879717E+01 -0.35080183589E+02  0.43797449531E+02  0.00000000000E+00 0. -1.
</event>
<event>
 7    1  0.3925070E-015  0.9000772E+02  0.7816164E-02  0.1186339E+00
        -11   -1    0    0    0    0  0.00000000000E+00  0.00000000000E+00  0.45593999997E+02  0.45594000000E+02  0.51100000000E-03 0.  1.
         11   -1    0    0    0    0 -0.00000000000E+00 -0.00000000000E+00 -0.45593999997E+02  0.45594000000E+02  0.51100000000E-03 0. -1.
    9900012    2    1    2    0    0 -0.38407511963E+00 -0.89997406962E+00 -0.65999971466E+00  0.90007717556E+02  0.89999978628E+02 0.  0.
        -12    1    1    2    0    0  0.38407511963E+00  0.89997406962E+00  0.65999971466E+00  0.11802824437E+01  0.00000000000E+00 0.  1.
         11    1    3    3    0    0 -0.95248090325E+01  0.60863851715E+01  0.24401168891E+02  0.26892064166E+02  0.51100000000E-03 0. -1.
        -11    1    3    3    0    0  0.17077843375E+02 -0.34166448883E+01  0.14466779969E+02  0.22640978768E+02  0.51100000000E-03 0.  1.
         12    1    3    3    0    0 -0.79371094625E+01 -0.35697143528E+01 -0.39527948576E+02  0.40474674622E+02  0.00000000000E+00 0. -1.
</event>
<event>
 7    1  0.3925070E-015  0.9000733E+02  0.7816164E-02  0.1186340E+00
        -11   -1    0    0    0    0  0.00000000000E+00  0.00000000000E+00  0.45593999997E+02  0.45594000000E+02  0.51100000000E-03 0. -1.
         11   -1    0    0    0    0 -0.00000000000E+00 -0.00000000000E+00 -0.45593999997E+02  0.45594000000E+02  0.51100000000E-03 0.  1.
    9900012    2    1    2    0    0 -0.10685944120E+01 -0.49179921279E+00  0.10106916099E+00  0.90007332622E+02  0.89999588611E+02 0.  0.
        -12    1    1    2    0    0  0.10685944120E+01  0.49179921279E+00 -0.10106916099E+00  0.11806673784E+01  0.00000000000E+00 0.  1.
         11    1    3    3    0    0 -0.79618917399E+00 -0.26919643124E+01 -0.76571116600E+01  0.81554857792E+01  0.51100000000E-03 0. -1.
        -11    1    3    3    0    0  0.20169693368E+02 -0.91861402221E+01 -0.30079899215E+02  0.37363110682E+02  0.51100000000E-03 0.  1.
         12    1    3    3    0    0 -0.20442098606E+02  0.11386305322E+02  0.37838080036E+02  0.44488736160E+02  0.00000000000E+00 0. -1.
</event>
<event>
 7    1  0.3925070E-015  0.9000775E+02  0.7816164E-02  0.1186339E+00
        -11   -1    0    0    0    0  0.00000000000E+00  0.00000000000E+00  0.45593999997E+02  0.45594000000E+02  0.51100000000E-03 0.  1.
         11   -1    0    0    0    0 -0.00000000000E+00 -0.00000000000E+00 -0.45593999997E+02  0.45594000000E+02  0.51100000000E-03 0. -1.
    9900012    2    1    2    0    0  0.57221651835E+00  0.68874917655E-01 -0.10299624447E+01  0.90007746580E+02  0.90000008035E+02 0.  0.
        -12    1    1    2    0    0 -0.57221651835E+00 -0.68874917655E-01  0.10299624447E+01  0.11802534201E+01  0.00000000000E+00 0.  1.
         11    1    3    3    0    0 -0.28027328813E+02  0.23044112640E+02  0.21219583173E+02  0.42033712637E+02  0.51100000000E-03 0. -1.
        -11    1    3    3    0    0  0.45091856717E+01  0.28523786012E+01 -0.85771001427E+01  0.10101260626E+02  0.51100000000E-03 0.  1.
        -12    1    3    3    0    0  0.24090359660E+02 -0.25827616324E+02 -0.13672445475E+02  0.37872773317E+02  0.00000000000E+00 0.  1.
</event>
<event>
 7    1  0.3925070E-015  0.9000776E+02  0.7816164E-02  0.1186339E+00
        -11   -1    0    0    0    0  0.00000000000E+00  0.00000000000E+00  0.45593999997E+02  0.45594000000E+02  0.51100000000E-03 0.  1.
         11   -1    0    0    0    0 -0.00000000000E+00 -0.00000000000E+00 -0.45593999997E+02  0.45594000000E+02  0.51100000000E-03 0. -1.
    9900012    2    1    2    0    0 -0.84692496562E+00  0.49477418142E-01  0.82051562156E+00  0.90007756043E+02  0.90000017623E+02 0.  0.
        -12    1    1    2    0    0  0.84692496562E+00 -0.49477418142E-01 -0.82051562156E+00  0.11802439568E+01  0.00000000000E+00 0.  1.
         11    1    3    3    0    0 -0.31384206524E+02 -0.18223423514E+02 -0.43196121770E+01  0.36547511999E+02  0.51100000000E-03 0. -1.
        -11    1    3    3    0    0 -0.36948301802E+01 -0.74603546388E+01 -0.46415639861E+01  0.95316723557E+01  0.51100000000E-03 0.  1.
        -12    1    3    3    0    0  0.34232111739E+02  0.25733255571E+02  0.97816917847E+01  0.43928571688E+02  0.00000000000E+00 0.  1.
</event>
<event>
 7    1  0.4174048E-015  0.9000771E+02  0.7816164E-02  0.1186339E+00
        -11   -1    0    0    0    0  0.00000000000E+00  0.00000000000E+00  0.45593999997E+02  0.45594000000E+02  0.51100000000E-03 0. -1.
         11   -1    0    0    0    0 -0.00000000000E+00 -0.00000000000E+00 -0.45593999997E+02  0.45594000000E+02  0.51100000000E-03 0.  1.
    9900012    2    1    2    0    0  0.88799121777E+00 -0.12311243113E+00  0.76772163787E+00  0.90007711227E+02  0.89999972216E+02 0.  0.
        -12    1    1    2    0    0 -0.88799121777E+00  0.12311243113E+00 -0.76772163787E+00  0.11802887726E+01  0.00000000000E+00 0.  1.
         11    1    3    3    0    0 -0.11273786534E+02 -0.31311762746E+02  0.24756122782E+02  0.41477588702E+02  0.51100000000E-03 0. -1.
        -11    1    3    3    0    0  0.81353021893E+01  0.40478719332E+01  0.34567344241E+01  0.97220070993E+01  0.51100000000E-03 0.  1.
        -12    1    3    3    0    0  0.40264755624E+01  0.27140778381E+02 -0.27445135568E+02  0.38808115426E+02  0.00000000000E+00 0.  1.
</event>
<event>
 7    1  0.3925070E-015  0.9000769E+02  0.7816164E-02  0.1186339E+00
        -11   -1    0    0    0    0  0.00000000000E+00  0.00000000000E+00  0.45593999997E+02  0.45594000000E+02  0.51100000000E-03 0.  1.
         11   -1    0    0    0    0 -0.00000000000E+00 -0.00000000000E+00 -0.45593999997E+02  0.45594000000E+02  0.51100000000E-03 0. -1.
    9900012    2    1    2    0    0  0.50061540781E-01 -0.10701882001E+01 -0.49529387157E+00  0.90007692853E+02  0.89999953599E+02 0.  0.
        -12    1    1    2    0    0 -0.50061540781E-01  0.10701882001E+01  0.49529387157E+00  0.11803071468E+01  0.00000000000E+00 0.  1.
         11    1    3    3    0    0  0.24410738561E+01 -0.31030317046E+01 -0.78795938884E+01  0.88133788888E+01  0.51100000000E-03 0. -1.
        -11    1    3    3    0    0  0.21437473511E+02 -0.14934340919E+02  0.33153305660E+02  0.42210679759E+02  0.51100000000E-03 0.  1.
         12    1    3    3    0    0 -0.23828485826E+02  0.16967184423E+02 -0.25769005644E+02  0.38983634206E+02  0.00000000000E+00 0. -1.
</event>
<event>
 7    1  0.3925070E-015  0.9000771E+02  0.7816164E-02  0.1186339E+00
        -11   -1    0    0    0    0  0.00000000000E+00  0.00000000000E+00  0.45593999997E+02  0.45594000000E+02  0.51100000000E-03 0.  1.
         11   -1    0    0    0    0 -0.00000000000E+00 -0.00000000000E+00 -0.45593999997E+02  0.45594000000E+02  0.51100000000E-03 0. -1.
    9900012    2    1    2    0    0  0.34674447893E+00  0.11056028141E+01 -0.22468867280E+00  0.90007714307E+02  0.89999975336E+02 0.  0.
        -12    1    1    2    0    0 -0.34674447893E+00 -0.11056028141E+01  0.22468867280E+00  0.11802856925E+01  0.00000000000E+00 0.  1.
         11    1    3    3    0    0  0.87551466510E+01 -0.17910709919E+02 -0.32151368885E+02  0.37830631030E+02  0.51100000000E-03 0. -1.
        -11    1    3    3    0    0  0.61883047572E+01 -0.59359915929E+01 -0.67882741028E+00  0.86018555483E+01  0.51100000000E-03 0.  1.
        -12    1    3    3    0    0 -0.14596706929E+02  0.24952304326E+02  0.32605507622E+02  0.43575227729E+02  0.00000000000E+00 0.  1.
</event>
<event>
 7    1  0.3925070E-015  0.9000770E+02  0.7816164E-02  0.1186339E+00
        -11   -1    0    0    0    0  0.00000000000E+00  0.00000000000E+00  0.45593999997E+02  0.45594000000E+02  0.51100000000E-03 0.  1.
         11   -1    0    0    0    0 -0.00000000000E+00 -0.00000000000E+00 -0.45593999997E+02  0.45594000000E+02  0.51100000000E-03 0. -1.
    9900012    2    1    2    0    0  0.27351391889E+00  0.11381696125E+01  0.15122820646E+00  0.90007699233E+02  0.89999960063E+02 0.  0.
        -12    1    1    2    0    0 -0.27351391889E+00 -0.11381696125E+01 -0.15122820646E+00  0.11803007672E+01  0.00000000000E+00 0.  1.
         11    1    3    3    0    0  0.20829330478E+00 -0.73214793716E+01  0.77435077965E+00  0.73652607341E+01  0.51100000000E-03 0. -1.
        -11    1    3    3    0    0  0.65729573328E+01 -0.31246140047E+02 -0.20316869363E+02  0.37845742388E+02  0.51100000000E-03 0.  1.
         12    1    3    3    0    0 -0.65077367187E+01  0.39705789031E+02  0.19693746790E+02  0.44796696110E+02  0.00000000000E+00 0. -1.
</event>
<event>
 7    1  0.3925070E-015  0.9000776E+02  0.7816164E-02  0.1186339E+00
        -11   -1    0    0    0    0  0.00000000000E+00  0.00000000000E+00  0.45593999997E+02  0.45594000000E+02  0.51100000000E-03 0. -1.
         11   -1    0    0    0    0 -0.00000000000E+00 -0.00000000000E+00 -0.45593999997E+02  0.45594000000E+02  0.51100000000E-03 0.  1.
    9900012    2    1    2    0    0 -0.11647705481E+01 -0.14926074621E+00 -0.11834664475E+00  0.90007756327E+02  0.90000017910E+02 0.  0.
        -12    1    1    2    0    0  0.11647705481E+01  0.14926074621E+00  0.11834664475E+00  0.11802436734E+01  0.00000000000E+00 0.  1.
         11    1    3    3    0    0  0.29718684241E+01 -0.64574611476E+01  0.74053097503E+01  0.10264960748E+02  0.51100000000E-03 0. -1.
        -11    1    3    3    0    0  0.30714919919E+02  0.24601823091E+02 -0.89425791977E+01  0.40356235305E+02  0.51100000000E-03 0.  1.
         12    1    3    3    0    0 -0.34851558891E+02 -0.18293622690E+02  0.14189228027E+01  0.39386560273E+02  0.00000000000E+00 0. -1.
</event>
<event>
 7    1  0.3925070E-015  0.9000769E+02  0.7816164E-02  0.1186339E+00
        -11   -1    0    0    0    0  0.00000000000E+00  0.00000000000E+00  0.45593999997E+02  0.45594000000E+02  0.51100000000E-03 0.  1.
         11   -1    0    0    0    0 -0.00000000000E+00 -0.00000000000E+00 -0.45593999997E+02  0.45594000000E+02  0.51100000000E-03 0. -1.
    9900012    2    1    2    0    0 -0.74532740478E+00 -0.83008656427E+00 -0.38544099179E+00  0.90007694360E+02  0.89999955126E+02 0.  0.
        -12    1    1    2    0    0  0.74532740478E+00  0.83008656427E+00  0.38544099179E+00  0.11803056395E+01  0.00000000000E+00 0.  1.
         11    1    3    3    0    0 -0.36032777130E+02 -0.19723798009E+02 -0.12605207709E+02  0.42968366239E+02  0.51100000000E-03 0. -1.
        -11    1    3    3    0    0  0.44702877626E+01  0.94345552069E+00  0.10365041060E+02  0.11327297005E+02  0.51100000000E-03 0.  1.
        -12    1    3    3    0    0  0.30817161963E+02  0.17950255924E+02  0.18547256568E+01  0.35712031116E+02  0.00000000000E+00 0.  1.
</event>
<event>
 7    1  0.3925070E-015  0.9000794E+02  0.7816164E-02  0.1186339E+00
        -11   -1    0    0    0    0  0.00000000000E+00  0.00000000000E+00  0.45593999997E+02  0.45594000000E+02  0.51100000000E-03 0. -1.
         11   -1    0    0    0    0 -0.00000000000E+00 -0.00000000000E+00 -0.45593999997E+02  0.45594000000E+02  0.51100000000E-03 0.  1.
    9900012    2    1    2    0    0 -0.35068737274E+00 -0.93588185832E+00  0.62745023814E+00  0.90007936321E+02  0.90000200280E+02 0.  0.
        -12    1    1    2    0    0  0.35068737274E+00  0.93588185832E+00 -0.62745023814E+00  0.11800636794E+01  0.00000000000E+00 0.  1.
         11    1    3    3    0    0  0.38469985952E+01  0.30296713124E+01 -0.13867077934E+01  0.50893285626E+01  0.51100000000E-03 0. -1.
        -11    1    3    3    0    0  0.20204602697E+02 -0.16522197366E+02 -0.31948281356E+02  0.41254110799E+02  0.51100000000E-03 0.  1.
         12    1    3    3    0    0 -0.24402288665E+02  0.12556644195E+02  0.33962439388E+02  0.43664496959E+02  0.00000000000E+00 0. -1.
</event>
<event>
 7    1  0.3925070E-015  0.9000771E+02  0.7816164E-02  0.1186339E+00
        -11   -1    0    0    0    0  0.00000000000E+00  0.00000000000E+00  0.45593999997E+02  0.45594000000E+02  0.51100000000E-03 0. -1.
         11   -1    0    0    0    0 -0.00000000000E+00 -0.00000000000E+00 -0.45593999997E+02  0.45594000000E+02  0.51100000000E-03 0.  1.
    9900012    2    1    2    0    0 -0.16351996154E-01 -0.78221124652E+00  0.88372267111E+00  0.90007708688E+02  0.89999969643E+02 0.  0.
        -12    1    1    2    0    0  0.16351996154E-01  0.78221124652E+00 -0.88372267111E+00  0.11802913121E+01  0.00000000000E+00 0.  1.
         11    1    3    3    0    0  0.18223276590E+01 -0.96977706091E+00 -0.97880879861E+01  0.10003400038E+02  0.51100000000E-03 0. -1.
        -11    1    3    3    0    0 -0.23429947259E+01 -0.28892920278E+02 -0.21904714917E+02  0.36333276791E+02  0.51100000000E-03 0.  1.
         12    1    3    3    0    0  0.50431507070E+00  0.29080486093E+02  0.32576525575E+02  0.43671031859E+02  0.00000000000E+00 0. -1.
</event>
<event>
 7    1  0.3925070E-015  0.9000776E+02  0.7816164E-02  0.1186339E+00
        -11   -1    0    0    0    0  0.00000000000E+00  0.00000000000E+00  0.45593999997E+02  0.45594000000E+02  0.51100000000E-03 0.  1.
         11   -1    0    0    0    0 -0.00000000000E+00 -0.00000000000E+00 -0.45593999997E+02  0.45594000000E+02  0.51100000000E-03 0. -1.
    9900012    2    1    2    0    0  0.99373897861E+00  0.62648074260E+00 -0.11389465582E+00  0.90007759655E+02  0.90000021283E+02 0.  0.
        -12    1    1    2    0    0 -0.99373897861E+00 -0.62648074260E+00  0.11389465582E+00  0.11802403446E+01  0.00000000000E+00 0.  1.
         11    1    3    3    0    0 -0.84289400382E+01  0.35533536376E+01 -0.50834352656E+01  0.10464925542E+02  0.51100000000E-03 0. -1.
        -11    1    3    3    0    0 -0.14117496506E+02  0.33263747260E+02  0.49854727934E+00  0.36139025153E+02  0.51100000000E-03 0.  1.
         12    1    3    3    0    0  0.23540175523E+02 -0.36190620155E+02  0.44709933304E+01  0.43403808960E+02  0.00000000000E+00 0. -1.
</event>
<event>
 7    1  0.3925070E-015  0.9000780E+02  0.7816164E-02  0.1186339E+00
        -11   -1    0    0    0    0  0.00000000000E+00  0.00000000000E+00  0.45593999997E+02  0.45594000000E+02  0.51100000000E-03 0.  1.
         11   -1    0    0    0    0 -0.00000000000E+00 -0.00000000000E+00 -0.45593999997E+02  0.45594000000E+02  0.51100000000E-03 0. -1.
    9900012    2    1    2    0    0 -0.22165044773E+00  0.35767850887E+00 -0.11026381407E+01  0.90007799294E+02  0.90000061445E+02 0.  0.
        -12    1    1    2    0    0  0.22165044773E+00 -0.35767850887E+00  0.11026381407E+01  0.11802007058E+01  0.00000000000E+00 0.  1.
         11    1    3    3    0    0 -0.12458548490E+01  0.40373221643E+01 -0.99399888612E+01  0.10800717725E+02  0.51100000000E-03 0. -1.
        -11    1    3    3    0    0 -0.35745909851E+02 -0.29189014564E+01  0.19620399627E+02  0.40880926341E+02  0.51100000000E-03 0.  1.
         12    1    3    3    0    0  0.36770114252E+02 -0.76074219907E+00 -0.10783048906E+02  0.38326155227E+02  0.00000000000E+00 0. -1.
</event>
<event>
 7    1  0.3925070E-015  0.9000770E+02  0.7816164E-02  0.1186339E+00
        -11   -1    0    0    0    0  0.00000000000E+00  0.00000000000E+00  0.45593999997E+02  0.45594000000E+02  0.51100000000E-03 0.  1.
         11   -1    0    0    0    0 -0.00000000000E+00 -0.00000000000E+00 -0.45593999997E+02  0.45594000000E+02  0.51100000000E-03 0. -1.
    9900012    2    1    2    0    0  0.51574607371E+00 -0.80466974939E+00 -0.69255355658E+00  0.90007695867E+02  0.89999956652E+02 0.  0.
        -12    1    1    2    0    0 -0.51574607371E+00  0.80466974939E+00  0.69255355658E+00  0.11803041332E+01  0.00000000000E+00 0.  1.
         11    1    3    3    0    0  0.82471311642E+01  0.34833524935E+02  0.89405413458E+01  0.36896109709E+02  0.51100000000E-03 0. -1.
        -11    1    3    3    0    0 -0.56589253794E+00  0.49276538958E+01  0.70899409853E+01  0.86527030873E+01  0.51100000000E-03 0.  1.
        -12    1    3    3    0    0 -0.71654925525E+01 -0.40565848580E+02 -0.16723035888E+02  0.44458883070E+02  0.00000000000E+00 0.  1.
</event>
<event>
 7    1  0.3925070E-015  0.9000768E+02  0.7816164E-02  0.1186339E+00
        -11   -1    0    0    0    0  0.00000000000E+00  0.00000000000E+00  0.45593999997E+02  0.45594000000E+02  0.51100000000E-03 0.  1.
         11   -1    0    0    0    0 -0.00000000000E+00 -0.00000000000E+00 -0.45593999997E+02  0.45594000000E+02  0.51100000000E-03 0. -1.
    9900012    2    1    2    0    0 -0.68918510144E+00  0.57355827840E+00 -0.76759478662E+00  0.90007683534E+02  0.89999944157E+02 0.  0.
        -12    1    1    2    0    0  0.68918510144E+00 -0.57355827840E+00  0.76759478662E+00  0.11803164657E+01  0.00000000000E+00 0.  1.
         11    1    3    3    0    0 -0.30229874963E+02  0.22863191598E+02  0.84359624034E+01  0.38829580635E+02  0.51100000000E-03 0. -1.
        -11    1    3    3    0    0 -0.61132423900E+01  0.46262927323E+00 -0.62890028440E+01  0.87827851731E+01  0.51100000000E-03 0.  1.
        -12    1    3    3    0    0  0.35653932252E+02 -0.22752262593E+02 -0.29145543460E+01  0.42395317727E+02  0.00000000000E+00 0.  1.
</event>
<event>
 7    1  0.3925070E-015  0.9000780E+02  0.7816164E-02  0.1186339E+00
        -11   -1    0    0    0    0  0.00000000000E+00  0.00000000000E+00  0.45593999997E+02  0.45594000000E+02  0.51100000000E-03 0.  1.
         11   -1    0    0    0    0 -0.00000000000E+00 -0.00000000000E+00 -0.45593999997E+02  0.45594000000E+02  0.51100000000E-03 0. -1.
    9900012    2    1    2    0    0  0.54991969277E-01  0.78812925543E+00  0.87675572189E+00  0.90007799832E+02  0.90000061990E+02 0.  0.
        -12    1    1    2    0    0 -0.54991969277E-01 -0.78812925543E+00 -0.87675572189E+00  0.11802001677E+01  0.00000000000E+00 0.  1.
         11    1    3    3    0    0 -0.16384902652E+01  0.21065761884E+01  0.84657314043E+01  0.88764250720E+01  0.51100000000E-03 0. -1.
        -11    1    3    3    0    0  0.32790727320E+02  0.23629583237E+02 -0.82822011018E+01  0.41257530918E+02  0.51100000000E-03 0.  1.
         12    1    3    3    0    0 -0.31097245086E+02 -0.24948030170E+02  0.69322541938E+00  0.39873843842E+02  0.00000000000E+00 0. -1.
</event>
<event>
 7    1  0.3925070E-015  0.9000765E+02  0.7816164E-02  0.1186339E+00
        -11   -1    0    0    0    0  0.00000000000E+00  0.00000000000E+00  0.45593999997E+02  0.45594000000E+02  0.51100000000E-03 0.  1.
         11   -1    0    0    0    0 -0.00000000000E+00 -0.00000000000E+00 -0.45593999997E+02  0.45594000000E+02  0.51100000000E-03 0. -1.
    9900012    2    1    2    0    0 -0.10086899649E+01  0.19065374581E+00 -0.58260719398E+00  0.90007646054E+02  0.89999906182E+02 0.  0.
        -12    1    1    2    0    0  0.10086899649E+01 -0.19065374581E+00  0.58260719398E+00  0.11803539463E+01  0.00000000000E+00 0.  1.
         11    1    3    3    0    0  0.13822809755E+02  0.32085544214E+02 -0.10362122398E+02  0.36440716210E+02  0.51100000000E-03 0. -1.
        -11    1    3    3    0    0  0.10411783937E+01  0.86548331735E+01 -0.80212680129E+00  0.87540617644E+01  0.51100000000E-03 0.  1.
        -12    1    3    3    0    0 -0.15872678114E+02 -0.40549723642E+02  0.10581642006E+02  0.44812868079E+02  0.00000000000E+00 0.  1.
</event>
<event>
 7    1  0.3925070E-015  0.9000795E+02  0.7816164E-02  0.1186339E+00
        -11   -1    0    0    0    0  0.00000000000E+00  0.00000000000E+00  0.45593999997E+02  0.45594000000E+02  0.51100000000E-03 0.  1.
         11   -1    0    0    0    0 -0.00000000000E+00 -0.00000000000E+00 -0.45593999997E+02  0.45594000000E+02  0.51100000000E-03 0. -1.
    9900012    2    1    2    0    0  0.10491016578E+00 -0.28382379205E+00 -0.11405896594E+01  0.90007954722E+02  0.90000218924E+02 0.  0.
        -12    1    1    2    0    0 -0.10491016578E+00  0.28382379205E+00  0.11405896594E+01  0.11800452783E+01  0.00000000000E+00 0.  1.
         11    1    3    3    0    0 -0.87256741919E+01 -0.29390153859E+02 -0.21772138263E+02  0.37602453893E+02  0.51100000000E-03 0. -1.
        -11    1    3    3    0    0  0.76350445284E+01 -0.45201034924E+01 -0.49293102194E+01  0.10150041381E+02  0.51100000000E-03 0.  1.
        -12    1    3    3    0    0  0.11955398292E+01  0.33626433559E+02  0.25560858823E+02  0.42255459448E+02  0.00000000000E+00 0.  1.
</event>
<event>
 7    1  0.3925070E-015  0.9000768E+02  0.7816164E-02  0.1186339E+00
        -11   -1    0    0    0    0  0.00000000000E+00  0.00000000000E+00  0.45593999997E+02  0.45594000000E+02  0.51100000000E-03 0. -1.
         11   -1    0    0    0    0 -0.00000000000E+00 -0.00000000000E+00 -0.45593999997E+02  0.45594000000E+02  0.51100000000E-03 0.  1.
    9900012    2    1    2    0    0  0.10857966390E+01  0.35111519080E+00  0.30152302579E+00  0.90007681249E+02  0.89999941842E+02 0.  0.
        -12    1    1    2    0    0 -0.10857966390E+01 -0.35111519080E+00 -0.30152302579E+00  0.11803187508E+01  0.00000000000E+00 0.  1.
         11    1    3    3    0    0 -0.17976727891E+00  0.90095066813E+01  0.14667495812E+01  0.91298894577E+01  0.51100000000E-03 0. -1.
        -11    1    3    3    0    0 -0.10323771254E+02  0.75785340475E+01 -0.37390511293E+02  0.39522965048E+02  0.51100000000E-03 0.  1.
         12    1    3    3    0    0  0.11589335172E+02 -0.16236925538E+02  0.36225284737E+02  0.41354826743E+02  0.00000000000E+00 0. -1.
</event>
<event>
 7    1  0.3925070E-015  0.9000773E+02  0.7816164E-02  0.1186339E+00
        -11   -1    0    0    0    0  0.00000000000E+00  0.00000000000E+00  0.45593999997E+02  0.45594000000E+02  0.51100000000E-03 0. -1.
         11   -1    0    0    0    0 -0.00000000000E+00 -0.00000000000E+00 -0.45593999997E+02  0.45594000000E+02  0.51100000000E-03 0.  1.
    9900012    2    1    2    0    0 -0.19918931342E+00 -0.10151591881E+01  0.56817273299E+00  0.90007726805E+02  0.89999987999E+02 0.  0.
        -12    1    1    2    0    0  0.19918931342E+00  0.10151591881E+01 -0.56817273299E+00  0.11802731948E+01  0.00000000000E+00 0.  1.
         11    1    3    3    0    0 -0.47710300535E-01  0.83287755223E+01  0.42357391307E+01  0.93441031789E+01  0.51100000000E-03 0. -1.
        -11    1    3    3    0    0  0.35657461585E+02  0.12481684408E+02 -0.76265969988E+01  0.38541042985E+02  0.51100000000E-03 0.  1.
         12    1    3    3    0    0 -0.35808940597E+02 -0.21825619118E+02  0.39590306010E+01  0.42122580642E+02  0.00000000000E+00 0. -1.
</event>
<event>
 7    1  0.3925070E-015  0.9000808E+02  0.7816164E-02  0.1186338E+00
        -11   -1    0    0    0    0  0.00000000000E+00  0.00000000000E+00  0.45593999997E+02  0.45594000000E+02  0.51100000000E-03 0. -1.
         11   -1    0    0    0    0 -0.00000000000E+00 -0.00000000000E+00 -0.45593999997E+02  0.45594000000E+02  0.51100000000E-03 0.  1.
    9900012    2    1    2    0    0 -0.74095210999E+00 -0.90979807548E+00 -0.12437979174E+00  0.90008079282E+02  0.90000345128E+02 0.  0.
        -12    1    1    2    0    0  0.74095210999E+00  0.90979807548E+00  0.12437979174E+00  0.11799207177E+01  0.00000000000E+00 0.  1.
         11    1    3    3    0    0  0.76253481251E+01  0.68672934568E+01  0.19049601788E+00  0.10263622287E+02  0.51100000000E-03 0. -1.
        -11    1    3    3    0    0  0.50616456176E+01  0.28725990692E+02 -0.20761688845E+02  0.35802940124E+02  0.51100000000E-03 0.  1.
         12    1    3    3    0    0 -0.13427945853E+02 -0.36503082224E+02  0.20446813035E+02  0.43941516872E+02  0.00000000000E+00 0. -1.
</event>
<event>
 7    1  0.3925070E-015  0.9000778E+02  0.7816164E-02  0.1186339E+00
        -11   -1    0    0    0    0  0.00000000000E+00  0.00000000000E+00  0.45593999997E+02  0.45594000000E+02  0.51100000000E-03 0. -1.
         11   -1    0    0    0    0 -0.00000000000E+00 -0.00000000000E+00 -0.45593999997E+02  0.45594000000E+02  0.51100000000E-03 0.  1.
    9900012    2    1    2    0    0  0.58498520675E+00 -0.27593701153E+00  0.98720314665E+00  0.90007780114E+02  0.90000042012E+02 0.  0.
        -12    1    1    2    0    0 -0.58498520675E+00  0.27593701153E+00 -0.98720314665E+00  0.11802198860E+01  0.00000000000E+00 0.  1.
         11    1    3    3    0    0 -0.57350592753E+01 -0.10266569424E+02  0.24609432159E+01  0.12014557603E+02  0.51100000000E-03 0. -1.
        -11    1    3    3    0    0 -0.18138903617E+02  0.33455216925E+02  0.14240522822E+02  0.40633285056E+02  0.51100000000E-03 0.  1.
         12    1    3    3    0    0  0.24458948099E+02 -0.23464584512E+02 -0.15714262891E+02  0.37359937455E+02  0.00000000000E+00 0. -1.
</event>
<event>
 7    1  0.3925070E-015  0.9000770E+02  0.7816164E-02  0.1186339E+00
        -11   -1    0    0    0    0  0.00000000000E+00  0.00000000000E+00  0.45593999997E+02  0.45594000000E+02  0.51100000000E-03 0. -1.
         11   -1    0    0    0    0 -0.00000000000E+00 -0.00000000000E+00 -0.45593999997E+02  0.45594000000E+02  0.51100000000E-03 0.  1.
    9900012    2    1    2    0    0 -0.37230222459E+00  0.46735118865E+00  0.10178805043E+01  0.90007700546E+02  0.89999961393E+02 0.  0.
        -12    1    1    2    0    0  0.37230222459E+00 -0.46735118865E+00 -0.10178805043E+01  0.11802994540E+01  0.00000000000E+00 0.  1.
         11    1    3    3    0    0 -0.10182568298E+02  0.27424943547E+02  0.31509696087E+02  0.42996199523E+02  0.51100000000E-03 0. -1.
        -11    1    3    3    0    0  0.60948545799E+01  0.19613034859E+01 -0.35914302386E+01  0.73411399070E+01  0.51100000000E-03 0.  1.
        -12    1    3    3    0    0  0.37154114932E+01 -0.28918895845E+02 -0.26900385344E+02  0.39670361116E+02  0.00000000000E+00 0.  1.
</event>
<event>
 7    1  0.3925070E-015  0.9000783E+02  0.7816164E-02  0.1186339E+00
        -11   -1    0    0    0    0  0.00000000000E+00  0.00000000000E+00  0.45593999997E+02  0.45594000000E+02  0.51100000000E-03 0.  1.
         11   -1    0    0    0    0 -0.00000000000E+00 -0.00000000000E+00 -0.45593999997E+02  0.45594000000E+02  0.51100000000E-03 0. -1.
    9900012    2    1    2    0    0  0.92263318732E+00 -0.40943014109E+00 -0.61147751749E+00  0.90007834845E+02  0.90000097465E+02 0.  0.
        -12    1    1    2    0    0 -0.92263318732E+00  0.40943014109E+00  0.61147751749E+00  0.11801651550E+01  0.00000000000E+00 0.  1.
         11    1    3    3    0    0 -0.70437229206E+01 -0.48540422331E+01 -0.52455037996E+01  0.10034493956E+02  0.51100000000E-03 0. -1.
        -11    1    3    3    0    0 -0.18876119545E+01 -0.37059650589E+02  0.38648147525E+01  0.37308411572E+02  0.51100000000E-03 0.  1.
         12    1    3    3    0    0  0.98539680624E+01  0.41504262681E+02  0.76921152964E+00  0.42664929317E+02  0.00000000000E+00 0. -1.
</event>
<event>
 7    1  0.3925070E-015  0.9000769E+02  0.7816164E-02  0.1186339E+00
        -11   -1    0    0    0    0  0.00000000000E+00  0.00000000000E+00  0.45593999997E+02  0.45594000000E+02  0.51100000000E-03 0.  1.
         11   -1    0    0    0    0 -0.00000000000E+00 -0.00000000000E+00 -0.45593999997E+02  0.45594000000E+02  0.51100000000E-03 0. -1.
    9900012    2    1    2    0    0 -0.34966056064E+00 -0.97766817655E+00  0.56127771450E+00  0.90007690615E+02  0.89999951331E+02 0.  0.
        -12    1    1    2    0    0  0.34966056064E+00  0.97766817655E+00 -0.56127771450E+00  0.11803093848E+01  0.00000000000E+00 0.  1.
         11    1    3    3    0    0  0.35659722203E+02 -0.85560190547E+01 -0.14009624625E+02  0.39256729767E+02  0.51100000000E-03 0. -1.
        -11    1    3    3    0    0  0.12411662149E+01  0.65520402335E+01 -0.53010470985E+01  0.85188511782E+01  0.51100000000E-03 0.  1.
        -12    1    3    3    0    0 -0.37250548978E+02  0.10263106446E+01  0.19871949438E+02  0.42232109670E+02  0.00000000000E+00 0.  1.
</event>
<event>
 7    1  0.3925070E-015  0.9000782E+02  0.7816164E-02  0.1186339E+00
        -11   -1    0    0    0    0  0.00000000000E+00  0.00000000000E+00  0.45593999997E+02  0.45594000000E+02  0.51100000000E-03 0.  1.
         11   -1    0    0    0    0 -0.00000000000E+00 -0.00000000000E+00 -0.45593999997E+02  0.45594000000E+02  0.51100000000E-03 0. -1.
    9900012    2    1    2    0    0 -0.38488530919E+00 -0.11041405322E+01 -0.15986843165E+00  0.90007821653E+02  0.90000084098E+02 0.  0.
        -12    1    1    2    0    0  0.38488530919E+00  0.11041405322E+01  0.15986843165E+00  0.11801783474E+01  0.00000000000E+00 0.  1.
         11    1    3    3    0    0 -0.71763526405E+01 -0.16443526569E+02 -0.16376260395E+01  0.18015865856E+02  0.51100000000E-03 0. -1.
        -11    1    3    3    0    0 -0.19418644902E+02 -0.16388543100E+02  0.13953039642E+02  0.28988884599E+02  0.51100000000E-03 0.  1.
         12    1    3    3    0    0  0.26210112234E+02  0.31727929136E+02 -0.12475282034E+02  0.43003071198E+02  0.00000000000E+00 0. -1.
</event>
<event>
 7    1  0.3925070E-015  0.9000772E+02  0.7816164E-02  0.1186339E+00
        -11   -1    0    0    0    0  0.00000000000E+00  0.00000000000E+00  0.45593999997E+02  0.45594000000E+02  0.51100000000E-03 0.  1.
         11   -1    0    0    0    0 -0.00000000000E+00 -0.00000000000E+00 -0.45593999997E+02  0.45594000000E+02  0.51100000000E-03 0. -1.
    9900012    2    1    2    0    0  0.91035501414E+00 -0.15430012516E+00 -0.73519115602E+00  0.90007720026E+02  0.89999981131E+02 0.  0.
        -12    1    1    2    0    0 -0.91035501414E+00  0.15430012516E+00  0.73519115602E+00  0.11802799737E+01  0.00000000000E+00 0.  1.
         11    1    3    3    0    0  0.67742264514E+01  0.85645988210E+01 -0.17488757477E+02  0.20617932373E+02  0.51100000000E-03 0. -1.
        -11    1    3    3    0    0  0.24335136075E+02  0.20324206630E+01 -0.11192548218E+02  0.26862664004E+02  0.51100000000E-03 0.  1.
        -12    1    3    3    0    0 -0.30199007512E+02 -0.10751319609E+02  0.27946114539E+02  0.42527123649E+02  0.00000000000E+00 0.  1.
</event>
<event>
 7    1  0.3925070E-015  0.9000708E+02  0.7816164E-02  0.1186340E+00
        -11   -1    0    0    0    0  0.00000000000E+00  0.00000000000E+00  0.45593999997E+02  0.45594000000E+02  0.51100000000E-03 0. -1.
         11   -1    0    0    0    0 -0.00000000000E+00 -0.00000000000E+00 -0.45593999997E+02  0.45594000000E+02  0.51100000000E-03 0.  1.
    9900012    2    1    2    0    0  0.13408177329E+00  0.10378359190E+01  0.54726134127E+00  0.90007078202E+02  0.89999330832E+02 0.  0.
        -12    1    1    2    0    0 -0.13408177329E+00 -0.10378359190E+01 -0.54726134127E+00  0.11809217977E+01  0.00000000000E+00 0.  1.
         11    1    3    3    0    0 -0.75457332324E+01  0.14033701596E+01  0.48301108547E+01  0.90684898936E+01  0.51100000000E-03 0. -1.
        -11    1    3    3    0    0 -0.15017497890E+02  0.35291873637E+02  0.82243650054E+00  0.38362976810E+02  0.51100000000E-03 0.  1.
         12    1    3    3    0    0  0.22697312896E+02 -0.35657407877E+02 -0.51052860140E+01  0.42575611499E+02  0.00000000000E+00 0. -1.
</event>
<event>
 7    1  0.3925070E-015  0.9000794E+02  0.7816164E-02  0.1186339E+00
        -11   -1    0    0    0    0  0.00000000000E+00  0.00000000000E+00  0.45593999997E+02  0.45594000000E+02  0.51100000000E-03 0.  1.
         11   -1    0    0    0    0 -0.00000000000E+00 -0.00000000000E+00 -0.45593999997E+02  0.45594000000E+02  0.51100000000E-03 0. -1.
    9900012    2    1    2    0    0  0.20011822589E+00 -0.11595588120E+01 -0.88982750520E-01  0.90007939886E+02  0.90000203892E+02 0.  0.
        -12    1    1    2    0    0 -0.20011822589E+00  0.11595588120E+01  0.88982750520E-01  0.11800601140E+01  0.00000000000E+00 0.  1.
         11    1    3    3    0    0  0.34306850384E+02 -0.16185114652E+02 -0.45889040118E+01  0.38209631769E+02  0.51100000000E-03 0. -1.
        -11    1    3    3    0    0 -0.78474312001E+01 -0.38993745580E+01 -0.12478045077E+02  0.15247586943E+02  0.51100000000E-03 0.  1.
        -12    1    3    3    0    0 -0.26259300958E+02  0.18924930398E+02  0.16977966338E+02  0.36550721174E+02  0.00000000000E+00 0.  1.
</event>
<event>
 7    1  0.3925070E-015  0.9000773E+02  0.7816164E-02  0.1186339E+00
        -11   -1    0    0    0    0  0.00000000000E+00  0.00000000000E+00  0.45593999997E+02  0.45594000000E+02  0.51100000000E-03 0. -1.
         11   -1    0    0    0    0 -0.00000000000E+00 -0.00000000000E+00 -0.45593999997E+02  0.45594000000E+02  0.51100000000E-03 0.  1.
    9900012    2    1    2    0    0 -0.11768260978E+01  0.90029865280E-01 -0.43917276398E-02  0.90007727011E+02  0.89999988208E+02 0.  0.
        -12    1    1    2    0    0  0.11768260978E+01 -0.90029865280E-01  0.43917276398E-02  0.11802729889E+01  0.00000000000E+00 0.  1.
         11    1    3    3    0    0 -0.37924333500E+01  0.18070404153E+01  0.39363150225E+02  0.39586683894E+02  0.51100000000E-03 0. -1.
        -11    1    3    3    0    0 -0.68620815663E+01  0.64444477176E+01 -0.31994682705E+00  0.94192057011E+01  0.51100000000E-03 0.  1.
        -12    1    3    3    0    0  0.94776888185E+01 -0.81614582676E+01 -0.39047595126E+02  0.41001837416E+02  0.00000000000E+00 0.  1.
</event>
<event>
 7    1  0.3925070E-015  0.9000777E+02  0.7816164E-02  0.1186339E+00
        -11   -1    0    0    0    0  0.00000000000E+00  0.00000000000E+00  0.45593999997E+02  0.45594000000E+02  0.51100000000E-03 0.  1.
         11   -1    0    0    0    0 -0.00000000000E+00 -0.00000000000E+00 -0.45593999997E+02  0.45594000000E+02  0.51100000000E-03 0. -1.
    9900012    2    1    2    0    0 -0.97676636454E+00 -0.53401480002E-01  0.66032201109E+00  0.90007767223E+02  0.90000028951E+02 0.  0.
        -12    1    1    2    0    0  0.97676636454E+00  0.53401480002E-01 -0.66032201109E+00  0.11802327767E+01  0.00000000000E+00 0.  1.
         11    1    3    3    0    0  0.29896577145E+02  0.18622622761E+02 -0.21039215752E+02  0.41027503009E+02  0.51100000000E-03 0. -1.
        -11    1    3    3    0    0 -0.14804003201E+01  0.44077190136E+01  0.78483112347E+01  0.91222563825E+01  0.51100000000E-03 0.  1.
        -12    1    3    3    0    0 -0.29392943189E+02 -0.23083743255E+02  0.13851226528E+02  0.39858007832E+02  0.00000000000E+00 0.  1.
</event>
<event>
 7    1  0.3925070E-015  0.9000775E+02  0.7816164E-02  0.1186339E+00
        -11   -1    0    0    0    0  0.00000000000E+00  0.00000000000E+00  0.45593999997E+02  0.45594000000E+02  0.51100000000E-03 0.  1.
         11   -1    0    0    0    0 -0.00000000000E+00 -0.00000000000E+00 -0.45593999997E+02  0.45594000000E+02  0.51100000000E-03 0. -1.
    9900012    2    1    2    0    0  0.13044873851E+00 -0.45720659065E+00 -0.10802525236E+01  0.90007745682E+02  0.90000007125E+02 0.  0.
        -12    1    1    2    0    0 -0.13044873851E+00  0.45720659065E+00  0.10802525236E+01  0.11802543177E+01  0.00000000000E+00 0.  1.
         11    1    3    3    0    0 -0.20718658992E+02 -0.16654798082E+02 -0.13735251474E+02  0.29921601944E+02  0.51100000000E-03 0. -1.
        -11    1    3    3    0    0  0.23178894040E+01 -0.11450559960E+02 -0.13428568318E+02  0.17799280379E+02  0.51100000000E-03 0.  1.
        -12    1    3    3    0    0  0.18531218327E+02  0.27648151451E+02  0.26083567268E+02  0.42286863359E+02  0.00000000000E+00 0.  1.
</event>
<event>
 7    1  0.3925070E-015  0.9000772E+02  0.7816164E-02  0.1186339E+00
        -11   -1    0    0    0    0  0.00000000000E+00  0.00000000000E+00  0.45593999997E+02  0.45594000000E+02  0.51100000000E-03 0.  1.
         11   -1    0    0    0    0 -0.00000000000E+00 -0.00000000000E+00 -0.45593999997E+02  0.45594000000E+02  0.51100000000E-03 0. -1.
    9900012    2    1    2    0    0 -0.11202404886E+01 -0.19403885160E+00 -0.31696130770E+00  0.90007722787E+02  0.89999983928E+02 0.  0.
        -12    1    1    2    0    0  0.11202404886E+01  0.19403885160E+00  0.31696130770E+00  0.11802772127E+01  0.00000000000E+00 0.  1.
         11    1    3    3    0    0 -0.37649694141E+01 -0.45259385271E+01  0.70505154808E+01  0.91852535646E+01  0.51100000000E-03 0. -1.
        -11    1    3    3    0    0  0.35566700935E+02 -0.10641589593E+02  0.12975385239E+02  0.39326762730E+02  0.51100000000E-03 0.  1.
         12    1    3    3    0    0 -0.32921972009E+02  0.14973489268E+02 -0.20342862028E+02  0.41495706493E+02  0.00000000000E+00 0. -1.
</event>
<event>
 7    1  0.3925070E-015  0.9000776E+02  0.7816164E-02  0.1186339E+00
        -11   -1    0    0    0    0  0.00000000000E+00  0.00000000000E+00  0.45593999997E+02  0.45594000000E+02  0.51100000000E-03 0. -1.
         11   -1    0    0    0    0 -0.00000000000E+00 -0.00000000000E+00 -0.45593999997E+02  0.45594000000E+02  0.51100000000E-03 0.  1.
    9900012    2    1    2    0    0  0.28784078220E+00 -0.64594103430E+00  0.94491595755E+00  0.90007763455E+02  0.90000025132E+02 0.  0.
        -12    1    1    2    0    0 -0.28784078220E+00  0.64594103430E+00 -0.94491595755E+00  0.11802365452E+01  0.00000000000E+00 0.  1.
         11    1    3    3    0    0  0.24905842234E+01  0.40648740806E+02  0.62023606952E+01  0.41194567814E+02  0.51100000000E-03 0. -1.
        -11    1    3    3    0    0  0.72648228691E+01 -0.10215508519E+02  0.66753306310E+01  0.14201912016E+02  0.51100000000E-03 0.  1.
        -12    1    3    3    0    0 -0.94675663103E+01 -0.31079173321E+02 -0.11932775369E+02  0.34611283625E+02  0.00000000000E+00 0.  1.
</event>
<event>
 7    1  0.3925070E-015  0.9000762E+02  0.7816164E-02  0.1186339E+00
        -11   -1    0    0    0    0  0.00000000000E+00  0.00000000000E+00  0.45593999997E+02  0.45594000000E+02  0.51100000000E-03 0. -1.
         11   -1    0    0    0    0 -0.00000000000E+00 -0.00000000000E+00 -0.45593999997E+02  0.45594000000E+02  0.51100000000E-03 0.  1.
    9900012    2    1    2    0    0  0.83784678212E+00 -0.75656161155E+00  0.34485601632E+00  0.90007619394E+02  0.89999879170E+02 0.  0.
        -12    1    1    2    0    0 -0.83784678212E+00  0.75656161155E+00 -0.34485601632E+00  0.11803806057E+01  0.00000000000E+00 0.  1.
         11    1    3    3    0    0  0.31856409575E+02  0.12164595515E+02  0.25007373093E+02  0.42286841030E+02  0.51100000000E-03 0. -1.
        -11    1    3    3    0    0 -0.81628544563E+01  0.61344170028E+01 -0.22205273363E+01  0.10449593617E+02  0.51100000000E-03 0.  1.
        -12    1    3    3    0    0 -0.22855708337E+02 -0.19055574130E+02 -0.22441989740E+02  0.37271184747E+02  0.00000000000E+00 0.  1.
</event>
<event>
 7    1  0.3925070E-015  0.9000756E+02  0.7816164E-02  0.1186339E+00
        -11   -1    0    0    0    0  0.00000000000E+00  0.00000000000E+00  0.45593999997E+02  0.45594000000E+02  0.51100000000E-03 0. -1.
         11   -1    0    0    0    0 -0.00000000000E+00 -0.00000000000E+00 -0.45593999997E+02  0.45594000000E+02  0.51100000000E-03 0.  1.
    9900012    2    1    2    0    0 -0.27633330625E+00 -0.96367412672E+00  0.62321665479E+00  0.90007564946E+02  0.89999824003E+02 0.  0.
        -12    1    1    2    0    0  0.27633330625E+00  0.96367412672E+00 -0.62321665479E+00  0.11804350543E+01  0.00000000000E+00 0.  1.
         11    1    3    3    0    0 -0.34594310051E+02 -0.21007171368E+01  0.70553526992E+01  0.35368874768E+02  0.51100000000E-03 0. -1.
        -11    1    3    3    0    0  0.20578363966E+02  0.54879737995E+01  0.16917752153E+02  0.27199214292E+02  0.51100000000E-03 0.  1.
        -12    1    3    3    0    0  0.13739612778E+02 -0.43509307894E+01 -0.23349888197E+02  0.27439475885E+02  0.00000000000E+00 0.  1.
</event>
<event>
 7    1  0.3925070E-015  0.9000727E+02  0.7816164E-02  0.1186340E+00
        -11   -1    0    0    0    0  0.00000000000E+00  0.00000000000E+00  0.45593999997E+02  0.45594000000E+02  0.51100000000E-03 0.  1.
         11   -1    0    0    0    0 -0.00000000000E+00 -0.00000000000E+00 -0.45593999997E+02  0.45594000000E+02  0.51100000000E-03 0. -1.
    9900012    2    1    2    0    0 -0.19400949489E+00  0.65891472678E+00 -0.96036796710E+00  0.90007273557E+02  0.89999528767E+02 0.  0.
        -12    1    1    2    0    0  0.19400949489E+00 -0.65891472678E+00  0.96036796710E+00  0.11807264431E+01  0.00000000000E+00 0.  1.
         11    1    3    3    0    0 -0.26463262363E+01  0.81145600903E+01 -0.19256432523E+01  0.87496988636E+01  0.51100000000E-03 0. -1.
        -11    1    3    3    0    0  0.29758195762E+01  0.29195980224E+02  0.24046450824E+02  0.37940645235E+02  0.51100000000E-03 0.  1.
         12    1    3    3    0    0 -0.52350283477E+00 -0.36651625588E+02 -0.23081175538E+02  0.43316929458E+02  0.00000000000E+00 0. -1.
</event>
<event>
 7    1  0.3925070E-015  0.9000774E+02  0.7816164E-02  0.1186339E+00
        -11   -1    0    0    0    0  0.00000000000E+00  0.00000000000E+00  0.45593999997E+02  0.45594000000E+02  0.51100000000E-03 0.  1.
         11   -1    0    0    0    0 -0.00000000000E+00 -0.00000000000E+00 -0.45593999997E+02  0.45594000000E+02  0.51100000000E-03 0. -1.
    9900012    2    1    2    0    0 -0.81194221296E+00  0.42195774251E+00  0.74545721664E+00  0.90007743691E+02  0.90000005107E+02 0.  0.
        -12    1    1    2    0    0  0.81194221296E+00 -0.42195774251E+00 -0.74545721664E+00  0.11802563092E+01  0.00000000000E+00 0.  1.
         11    1    3    3    0    0 -0.22501406018E+01 -0.88314327527E+00 -0.74007097759E+01  0.77854723827E+01  0.51100000000E-03 0. -1.
        -11    1    3    3    0    0  0.13087848816E+02  0.38943263683E+02  0.11548122463E+02  0.42675856238E+02  0.51100000000E-03 0.  1.
         12    1    3    3    0    0 -0.11649650427E+02 -0.37638162665E+02 -0.34019554703E+01  0.39546415070E+02  0.00000000000E+00 0. -1.
</event>
<event>
 7    1  0.3925070E-015  0.9000781E+02  0.7816164E-02  0.1186339E+00
        -11   -1    0    0    0    0  0.00000000000E+00  0.00000000000E+00  0.45593999997E+02  0.45594000000E+02  0.51100000000E-03 0. -1.
         11   -1    0    0    0    0 -0.00000000000E+00 -0.00000000000E+00 -0.45593999997E+02  0.45594000000E+02  0.51100000000E-03 0.  1.
    9900012    2    1    2    0    0 -0.72503057019E+00 -0.89588188577E+00  0.25410109836E+00  0.90007813130E+02  0.90000075463E+02 0.  0.
        -12    1    1    2    0    0  0.72503057019E+00  0.89588188577E+00 -0.25410109836E+00  0.11801868704E+01  0.00000000000E+00 0.  1.
         11    1    3    3    0    0 -0.22564712387E+02 -0.10283618086E+02  0.30348718383E+02  0.39191373462E+02  0.51100000000E-03 0. -1.
        -11    1    3    3    0    0 -0.88417400655E+01 -0.44832019810E-01 -0.61408557701E+01  0.10765151515E+02  0.51100000000E-03 0.  1.
        -12    1    3    3    0    0  0.30681421883E+02  0.94325682200E+01 -0.23953761515E+02  0.40051288152E+02  0.00000000000E+00 0.  1.
</event>
<event>
 7    1  0.3925070E-015  0.9000792E+02  0.7816164E-02  0.1186339E+00
        -11   -1    0    0    0    0  0.00000000000E+00  0.00000000000E+00  0.45593999997E+02  0.45594000000E+02  0.51100000000E-03 0.  1.
         11   -1    0    0    0    0 -0.00000000000E+00 -0.00000000000E+00 -0.45593999997E+02  0.45594000000E+02  0.51100000000E-03 0. -1.
    9900012    2    1    2    0    0  0.53327461092E+00  0.68385485022E+00 -0.80034512627E+00  0.90007918821E+02  0.90000182550E+02 0.  0.
        -12    1    1    2    0    0 -0.53327461092E+00 -0.68385485022E+00  0.80034512627E+00  0.11800811786E+01  0.00000000000E+00 0.  1.
         11    1    3    3    0    0  0.48381326950E+01 -0.14749760027E+01  0.98069383033E+01  0.11034451564E+02  0.51100000000E-03 0. -1.
        -11    1    3    3    0    0  0.10301076380E+02 -0.33220892016E+02  0.90575701502E+01  0.35941333006E+02  0.51100000000E-03 0.  1.
         12    1    3    3    0    0 -0.14605934464E+02  0.35379722869E+02 -0.19664853580E+02  0.43032134251E+02  0.00000000000E+00 0. -1.
</event>
<event>
 7    1  0.3925070E-015  0.9000775E+02  0.7816164E-02  0.1186339E+00
        -11   -1    0    0    0    0  0.00000000000E+00  0.00000000000E+00  0.45593999997E+02  0.45594000000E+02  0.51100000000E-03 0. -1.
         11   -1    0    0    0    0 -0.00000000000E+00 -0.00000000000E+00 -0.45593999997E+02  0.45594000000E+02  0.51100000000E-03 0.  1.
    9900012    2    1    2    0    0 -0.97622141809E+00 -0.14398405282E+00 -0.64748807656E+00  0.90007754062E+02  0.90000015616E+02 0.  0.
        -12    1    1    2    0    0  0.97622141809E+00  0.14398405282E+00  0.64748807656E+00  0.11802459379E+01  0.00000000000E+00 0.  1.
         11    1    3    3    0    0 -0.26322413730E+02 -0.27693337648E+02 -0.11762789651E+02  0.39976913779E+02  0.51100000000E-03 0. -1.
        -11    1    3    3    0    0  0.17340427823E+02  0.16485894265E+01 -0.54612521615E+01  0.18254685964E+02  0.51100000000E-03 0.  1.
        -12    1    3    3    0    0  0.80057644889E+01  0.25900764169E+02  0.16576553736E+02  0.31776154319E+02  0.00000000000E+00 0.  1.
</event>
<event>
 7    1  0.3925070E-015  0.9000779E+02  0.7816164E-02  0.1186339E+00
        -11   -1    0    0    0    0  0.00000000000E+00  0.00000000000E+00  0.45593999997E+02  0.45594000000E+02  0.51100000000E-03 0.  1.
         11   -1    0    0    0    0 -0.00000000000E+00 -0.00000000000E+00 -0.45593999997E+02  0.45594000000E+02  0.51100000000E-03 0. -1.
    9900012    2    1    2    0    0 -0.88657100078E+00  0.62088575278E+00 -0.47051479955E+00  0.90007791784E+02  0.90000053835E+02 0.  0.
        -12    1    1    2    0    0  0.88657100078E+00 -0.62088575278E+00  0.47051479955E+00  0.11802082164E+01  0.00000000000E+00 0.  1.
         11    1    3    3    0    0 -0.30050343217E+02 -0.17980660700E+02 -0.18040844884E+02  0.39392884777E+02  0.51100000000E-03 0. -1.
        -11    1    3    3    0    0  0.14391550644E+01 -0.84608011510E+01  0.17093775204E+01  0.87509025354E+01  0.51100000000E-03 0.  1.
        -12    1    3    3    0    0  0.27724617152E+02  0.27062347604E+02  0.15860952564E+02  0.41864004471E+02  0.00000000000E+00 0.  1.
</event>
<event>
 7    1  0.3925070E-015  0.9000804E+02  0.7816164E-02  0.1186338E+00
        -11   -1    0    0    0    0  0.00000000000E+00  0.00000000000E+00  0.45593999997E+02  0.45594000000E+02  0.51100000000E-03 0.  1.
         11   -1    0    0    0    0 -0.00000000000E+00 -0.00000000000E+00 -0.45593999997E+02  0.45594000000E+02  0.51100000000E-03 0. -1.
    9900012    2    1    2    0    0 -0.57963605838E+00  0.52708339726E+00 -0.88233214028E+00  0.90008040308E+02  0.90000305640E+02 0.  0.
        -12    1    1    2    0    0  0.57963605838E+00 -0.52708339726E+00  0.88233214028E+00  0.11799596915E+01  0.00000000000E+00 0.  1.
         11    1    3    3    0    0  0.34000505268E+02  0.75496985040E+00 -0.14832639641E+02  0.37102716032E+02  0.51100000000E-03 0. -1.
        -11    1    3    3    0    0  0.78810319801E+01  0.29763422995E+01  0.29449225851E+01  0.89242281374E+01  0.51100000000E-03 0.  1.
        -12    1    3    3    0    0 -0.42461173307E+02 -0.32042287526E+01  0.11005384916E+02  0.43981096139E+02  0.00000000000E+00 0.  1.
</event>
<event>
 7    1  0.3925070E-015  0.9000775E+02  0.7816164E-02  0.1186339E+00
        -11   -1    0    0    0    0  0.00000000000E+00  0.00000000000E+00  0.45593999997E+02  0.45594000000E+02  0.51100000000E-03 0.  1.
         11   -1    0    0    0    0 -0.00000000000E+00 -0.00000000000E+00 -0.45593999997E+02  0.45594000000E+02  0.51100000000E-03 0. -1.
    9900012    2    1    2    0    0 -0.68183987366E-01 -0.10928852117E+01  0.44039568306E+00  0.90007747697E+02  0.90000009166E+02 0.  0.
        -12    1    1    2    0    0  0.68183987366E-01  0.10928852117E+01 -0.44039568306E+00  0.11802523034E+01  0.00000000000E+00 0.  1.
         11    1    3    3    0    0 -0.85737596955E+01  0.65512308278E+00 -0.45648497177E+01  0.97353168811E+01  0.51100000000E-03 0. -1.
        -11    1    3    3    0    0 -0.24610989888E+02 -0.27235624452E+02 -0.56650925883E+01  0.37142608105E+02  0.51100000000E-03 0.  1.
         12    1    3    3    0    0  0.33116565596E+02  0.25487616157E+02  0.10670337989E+02  0.43129822711E+02  0.00000000000E+00 0. -1.
</event>
<event>
 7    1  0.3925070E-015  0.9000773E+02  0.7816164E-02  0.1186339E+00
        -11   -1    0    0    0    0  0.00000000000E+00  0.00000000000E+00  0.45593999997E+02  0.45594000000E+02  0.51100000000E-03 0. -1.
         11   -1    0    0    0    0 -0.00000000000E+00 -0.00000000000E+00 -0.45593999997E+02  0.45594000000E+02  0.51100000000E-03 0.  1.
    9900012    2    1    2    0    0 -0.26040378463E+00  0.11447257138E+01  0.12181987318E+00  0.90007725806E+02  0.89999986987E+02 0.  0.
        -12    1    1    2    0    0  0.26040378463E+00 -0.11447257138E+01 -0.12181987318E+00  0.11802741938E+01  0.00000000000E+00 0.  1.
         11    1    3    3    0    0 -0.84793042598E+01 -0.31759360895E+01  0.11327339408E+01  0.91251442299E+01  0.51100000000E-03 0. -1.
        -11    1    3    3    0    0 -0.17847963158E+02  0.35470815340E+02 -0.52092830893E+01  0.40048285360E+02  0.51100000000E-03 0.  1.
         12    1    3    3    0    0  0.26066863633E+02 -0.31150153536E+02  0.41983690216E+01  0.40834296216E+02  0.00000000000E+00 0. -1.
</event>
<event>
 7    1  0.3925070E-015  0.9000771E+02  0.7816164E-02  0.1186339E+00
        -11   -1    0    0    0    0  0.00000000000E+00  0.00000000000E+00  0.45593999997E+02  0.45594000000E+02  0.51100000000E-03 0.  1.
         11   -1    0    0    0    0 -0.00000000000E+00 -0.00000000000E+00 -0.45593999997E+02  0.45594000000E+02  0.51100000000E-03 0. -1.
    9900012    2    1    2    0    0  0.71229586740E-01  0.11277582810E+01  0.34083022676E+00  0.90007712900E+02  0.89999973911E+02 0.  0.
        -12    1    1    2    0    0 -0.71229586740E-01 -0.11277582810E+01 -0.34083022676E+00  0.11802870998E+01  0.00000000000E+00 0.  1.
         11    1    3    3    0    0  0.76654108845E+01  0.53202229611E+01  0.10049555308E+01  0.93847340008E+01  0.51100000000E-03 0. -1.
        -11    1    3    3    0    0 -0.28302816203E+02  0.19519960873E+02  0.22890541574E+02  0.41304420724E+02  0.51100000000E-03 0.  1.
         12    1    3    3    0    0  0.20708634905E+02 -0.23712425553E+02 -0.23554666878E+02  0.39318558176E+02  0.00000000000E+00 0. -1.
</event>
<event>
 7    1  0.3925070E-015  0.9000766E+02  0.7816164E-02  0.1186339E+00
        -11   -1    0    0    0    0  0.00000000000E+00  0.00000000000E+00  0.45593999997E+02  0.45594000000E+02  0.51100000000E-03 0.  1.
         11   -1    0    0    0    0 -0.00000000000E+00 -0.00000000000E+00 -0.45593999997E+02  0.45594000000E+02  0.51100000000E-03 0. -1.
    9900012    2    1    2    0    0 -0.94558103299E+00  0.70425896262E+00 -0.55557234296E-01  0.90007664970E+02  0.89999925348E+02 0.  0.
        -12    1    1    2    0    0  0.94558103299E+00 -0.70425896262E+00  0.55557234296E-01  0.11803350298E+01  0.00000000000E+00 0.  1.
         11    1    3    3    0    0  0.21518447007E+01 -0.34365184289E+02 -0.86363686871E+01  0.35499059019E+02  0.51100000000E-03 0. -1.
        -11    1    3    3    0    0 -0.36732211604E+01 -0.61235107829E+01 -0.74343217760E+01  0.10308204428E+02  0.51100000000E-03 0.  1.
        -12    1    3    3    0    0  0.57579542671E+00  0.41192954035E+02  0.16015133229E+02  0.44200401523E+02  0.00000000000E+00 0.  1.
</event>
<event>
 7    1  0.3925070E-015  0.9000775E+02  0.7816164E-02  0.1186339E+00
        -11   -1    0    0    0    0  0.00000000000E+00  0.00000000000E+00  0.45593999997E+02  0.45594000000E+02  0.51100000000E-03 0. -1.
         11   -1    0    0    0    0 -0.00000000000E+00 -0.00000000000E+00 -0.45593999997E+02  0.45594000000E+02  0.51100000000E-03 0.  1.
    9900012    2    1    2    0    0 -0.87536912053E+00  0.78675492020E+00 -0.88017573524E-01  0.90007745157E+02  0.90000006593E+02 0.  0.
        -12    1    1    2    0    0  0.87536912053E+00 -0.78675492020E+00  0.88017573524E-01  0.11802548432E+01  0.00000000000E+00 0.  1.
         11    1    3    3    0    0 -0.43628897915E+01  0.96991853835E+01  0.47557992783E+01  0.11650177315E+02  0.51100000000E-03 0. -1.
        -11    1    3    3    0    0 -0.33073450323E+02 -0.21282396748E+02  0.87658543659E+00  0.39339063664E+02  0.51100000000E-03 0.  1.
         12    1    3    3    0    0  0.36560970994E+02  0.12369966285E+02 -0.57204022884E+01  0.39018504178E+02  0.00000000000E+00 0. -1.
</event>
<event>
 7    1  0.3925070E-015  0.9000788E+02  0.7816164E-02  0.1186339E+00
        -11   -1    0    0    0    0  0.00000000000E+00  0.00000000000E+00  0.45593999997E+02  0.45594000000E+02  0.51100000000E-03 0.  1.
         11   -1    0    0    0    0 -0.00000000000E+00 -0.00000000000E+00 -0.45593999997E+02  0.45594000000E+02  0.51100000000E-03 0. -1.
    9900012    2    1    2    0    0 -0.31066727901E+00 -0.28367035302E-01 -0.11381373770E+01  0.90007883253E+02  0.90000146512E+02 0.  0.
        -12    1    1    2    0    0  0.31066727901E+00  0.28367035302E-01  0.11381373770E+01  0.11801167467E+01  0.00000000000E+00 0.  1.
         11    1    3    3    0    0  0.18832970378E+02 -0.33866935096E+02 -0.25984169526E+01  0.38838149248E+02  0.51100000000E-03 0. -1.
        -11    1    3    3    0    0  0.75598647856E+01  0.10550457665E+01 -0.38598392641E+01  0.85535394166E+01  0.51100000000E-03 0.  1.
        -12    1    3    3    0    0 -0.26703502443E+02  0.32783522295E+02  0.53201188397E+01  0.42616194589E+02  0.00000000000E+00 0.  1.
</event>
<event>
 7    1  0.3925070E-015  0.9000765E+02  0.7816164E-02  0.1186339E+00
        -11   -1    0    0    0    0  0.00000000000E+00  0.00000000000E+00  0.45593999997E+02  0.45594000000E+02  0.51100000000E-03 0. -1.
         11   -1    0    0    0    0 -0.00000000000E+00 -0.00000000000E+00 -0.45593999997E+02  0.45594000000E+02  0.51100000000E-03 0.  1.
    9900012    2    1    2    0    0 -0.43994024432E+00  0.32740101619E+00  0.10452160204E+01  0.90007654553E+02  0.89999914793E+02 0.  0.
        -12    1    1    2    0    0  0.43994024432E+00 -0.32740101619E+00 -0.10452160204E+01  0.11803454466E+01  0.00000000000E+00 0.  1.
         11    1    3    3    0    0 -0.40613729431E+01  0.62316512424E+01  0.17274267871E+02  0.18807672853E+02  0.51100000000E-03 0. -1.
        -11    1    3    3    0    0  0.19294778859E+02 -0.31539749335E+02  0.15971275352E+00  0.36973906850E+02  0.51100000000E-03 0.  1.
         12    1    3    3    0    0 -0.15673346160E+02  0.25635499109E+02 -0.16388764604E+02  0.34226074851E+02  0.00000000000E+00 0. -1.
</event>
<event>
 7    1  0.3925070E-015  0.9000776E+02  0.7816164E-02  0.1186339E+00
        -11   -1    0    0    0    0  0.00000000000E+00  0.00000000000E+00  0.45593999997E+02  0.45594000000E+02  0.51100000000E-03 0.  1.
         11   -1    0    0    0    0 -0.00000000000E+00 -0.00000000000E+00 -0.45593999997E+02  0.45594000000E+02  0.51100000000E-03 0. -1.
    9900012    2    1    2    0    0 -0.84412274785E+00  0.73243941276E+00 -0.37942609408E+00  0.90007756437E+02  0.90000018022E+02 0.  0.
        -12    1    1    2    0    0  0.84412274785E+00 -0.73243941276E+00  0.37942609408E+00  0.11802435629E+01  0.00000000000E+00 0.  1.
         11    1    3    3    0    0  0.10514863755E+02  0.34040238718E+02 -0.94430748864E+01  0.36857453457E+02  0.51100000000E-03 0. -1.
        -11    1    3    3    0    0  0.65182373424E+01  0.33702205304E+01 -0.61793133547E+01  0.95932120936E+01  0.51100000000E-03 0.  1.
        -12    1    3    3    0    0 -0.17877223845E+02 -0.36678019836E+02  0.15242962147E+02  0.43557090887E+02  0.00000000000E+00 0.  1.
</event>
<event>
 7    1  0.3925070E-015  0.9000771E+02  0.7816164E-02  0.1186339E+00
        -11   -1    0    0    0    0  0.00000000000E+00  0.00000000000E+00  0.45593999997E+02  0.45594000000E+02  0.51100000000E-03 0. -1.
         11   -1    0    0    0    0 -0.00000000000E+00 -0.00000000000E+00 -0.45593999997E+02  0.45594000000E+02  0.51100000000E-03 0.  1.
    9900012    2    1    2    0    0 -0.12081518691E+00 -0.23968168972E-01  0.11738461260E+01  0.90007709565E+02  0.89999970532E+02 0.  0.
        -12    1    1    2    0    0  0.12081518691E+00  0.23968168972E-01 -0.11738461260E+01  0.11802904346E+01  0.00000000000E+00 0.  1.
         11    1    3    3    0    0 -0.11702341049E+02  0.43600292834E+01  0.25184765554E+01  0.12739598337E+02  0.51100000000E-03 0. -1.
        -11    1    3    3    0    0 -0.23927398572E+02 -0.94559895989E+01 -0.23718443392E+02  0.34992866400E+02  0.51100000000E-03 0.  1.
         12    1    3    3    0    0  0.35508924434E+02  0.50719921465E+01  0.22373812962E+02  0.42275244828E+02  0.00000000000E+00 0. -1.
</event>
<event>
 7    1  0.3925070E-015  0.9000771E+02  0.7816164E-02  0.1186339E+00
        -11   -1    0    0    0    0  0.00000000000E+00  0.00000000000E+00  0.45593999997E+02  0.45594000000E+02  0.51100000000E-03 0.  1.
         11   -1    0    0    0    0 -0.00000000000E+00 -0.00000000000E+00 -0.45593999997E+02  0.45594000000E+02  0.51100000000E-03 0. -1.
    9900012    2    1    2    0    0 -0.76868605827E+00  0.57085866000E+00 -0.69016043796E+00  0.90007712198E+02  0.89999973199E+02 0.  0.
        -12    1    1    2    0    0  0.76868605827E+00 -0.57085866000E+00  0.69016043796E+00  0.11802878022E+01  0.00000000000E+00 0.  1.
         11    1    3    3    0    0 -0.22088683037E+01 -0.13071458282E+01  0.85317378575E+01  0.89094489464E+01  0.51100000000E-03 0. -1.
        -11    1    3    3    0    0 -0.32961097455E+02 -0.19640466358E+01 -0.26567147177E+02  0.42380475858E+02  0.51100000000E-03 0.  1.
         12    1    3    3    0    0  0.34401279700E+02  0.38420511240E+01  0.17345248882E+02  0.38717787393E+02  0.00000000000E+00 0. -1.
</event>
<event>
 7    1  0.3925070E-015  0.9000769E+02  0.7816164E-02  0.1186339E+00
        -11   -1    0    0    0    0  0.00000000000E+00  0.00000000000E+00  0.45593999997E+02  0.45594000000E+02  0.51100000000E-03 0. -1.
         11   -1    0    0    0    0 -0.00000000000E+00 -0.00000000000E+00 -0.45593999997E+02  0.45594000000E+02  0.51100000000E-03 0.  1.
    9900012    2    1    2    0    0  0.10013969669E+01  0.62395998785E+00  0.31614894116E-01  0.90007694339E+02  0.89999955104E+02 0.  0.
        -12    1    1    2    0    0 -0.10013969669E+01 -0.62395998785E+00 -0.31614894116E-01  0.11803056610E+01  0.00000000000E+00 0.  1.
         11    1    3    3    0    0 -0.11087220938E+02  0.17774724001E+02 -0.20553176200E+01  0.21049741381E+02  0.51100000000E-03 0. -1.
        -11    1    3    3    0    0 -0.20052619265E+02  0.37402914548E+01 -0.16611586389E+02  0.26306693486E+02  0.51100000000E-03 0.  1.
         12    1    3    3    0    0  0.32141237170E+02 -0.20891055468E+02  0.18698518903E+02  0.42651259472E+02  0.00000000000E+00 0. -1.
</event>
<event>
 7    1  0.3925070E-015  0.9000770E+02  0.7816164E-02  0.1186339E+00
        -11   -1    0    0    0    0  0.00000000000E+00  0.00000000000E+00  0.45593999997E+02  0.45594000000E+02  0.51100000000E-03 0.  1.
         11   -1    0    0    0    0 -0.00000000000E+00 -0.00000000000E+00 -0.45593999997E+02  0.45594000000E+02  0.51100000000E-03 0. -1.
    9900012    2    1    2    0    0 -0.45015902048E+00  0.61945123777E+00 -0.89818518133E+00  0.90007703597E+02  0.89999964484E+02 0.  0.
        -12    1    1    2    0    0  0.45015902048E+00 -0.61945123777E+00  0.89818518133E+00  0.11802964033E+01  0.00000000000E+00 0.  1.
         11    1    3    3    0    0 -0.78145654784E+01 -0.31932677311E+02 -0.19174570225E+02  0.38058211433E+02  0.51100000000E-03 0. -1.
        -11    1    3    3    0    0 -0.96433290523E+00 -0.73331733286E+01  0.56012801437E+01  0.92779150960E+01  0.51100000000E-03 0.  1.
        -12    1    3    3    0    0  0.83287393632E+01  0.39885301877E+02  0.12675104900E+02  0.42671577068E+02  0.00000000000E+00 0.  1.
</event>
<event>
 7    1  0.3925070E-015  0.9000774E+02  0.7816164E-02  0.1186339E+00
        -11   -1    0    0    0    0  0.00000000000E+00  0.00000000000E+00  0.45593999997E+02  0.45594000000E+02  0.51100000000E-03 0. -1.
         11   -1    0    0    0    0 -0.00000000000E+00 -0.00000000000E+00 -0.45593999997E+02  0.45594000000E+02  0.51100000000E-03 0.  1.
    9900012    2    1    2    0    0  0.89592765742E-01  0.10951444671E+01  0.43087641138E+00  0.90007736153E+02  0.89999997470E+02 0.  0.
        -12    1    1    2    0    0 -0.89592765742E-01 -0.10951444671E+01 -0.43087641138E+00  0.11802638473E+01  0.00000000000E+00 0.  1.
         11    1    3    3    0    0  0.32516627771E+01  0.57844998511E+01 -0.74934930751E+01  0.10009305074E+02  0.51100000000E-03 0. -1.
        -11    1    3    3    0    0 -0.21531765412E+02  0.15527863560E+01 -0.30258072639E+02  0.37169598159E+02  0.51100000000E-03 0.  1.
         12    1    3    3    0    0  0.18369695400E+02 -0.62421417400E+01  0.38182442125E+02  0.42828832920E+02  0.00000000000E+00 0. -1.
</event>
<event>
 7    1  0.4257396E-015  0.9000791E+02  0.7816164E-02  0.1186339E+00
        -11   -1    0    0    0    0  0.00000000000E+00  0.00000000000E+00  0.45593999997E+02  0.45594000000E+02  0.51100000000E-03 0. -1.
         11   -1    0    0    0    0 -0.00000000000E+00 -0.00000000000E+00 -0.45593999997E+02  0.45594000000E+02  0.51100000000E-03 0.  1.
    9900012    2    1    2    0    0 -0.96267680642E-01 -0.54466601484E-01  0.11748946263E+01  0.90007910402E+02  0.90000174019E+02 0.  0.
        -12    1    1    2    0    0  0.96267680642E-01  0.54466601484E-01 -0.11748946263E+01  0.11800895983E+01  0.00000000000E+00 0.  1.
         11    1    3    3    0    0  0.12930034034E+02  0.22074242796E+02  0.26213130955E+02  0.36627670003E+02  0.51100000000E-03 0. -1.
        -11    1    3    3    0    0  0.27686619282E+01  0.11051754113E+00  0.91978313183E+01  0.96061336770E+01  0.51100000000E-03 0.  1.
        -12    1    3    3    0    0 -0.15794963643E+02 -0.22239226939E+02 -0.34236067647E+02  0.43774106721E+02  0.00000000000E+00 0.  1.
</event>
<event>
 7    1  0.3925070E-015  0.9000781E+02  0.7816164E-02  0.1186339E+00
        -11   -1    0    0    0    0  0.00000000000E+00  0.00000000000E+00  0.45593999997E+02  0.45594000000E+02  0.51100000000E-03 0. -1.
         11   -1    0    0    0    0 -0.00000000000E+00 -0.00000000000E+00 -0.45593999997E+02  0.45594000000E+02  0.51100000000E-03 0.  1.
    9900012    2    1    2    0    0  0.26730428546E+00 -0.73882137329E+00  0.88065157580E+00  0.90007806880E+02  0.90000069131E+02 0.  0.
        -12    1    1    2    0    0 -0.26730428546E+00  0.73882137329E+00 -0.88065157580E+00  0.11801931201E+01  0.00000000000E+00 0.  1.
         11    1    3    3    0    0  0.23787680291E+02  0.12457015928E+02  0.11933273505E+02  0.29384247417E+02  0.51100000000E-03 0. -1.
        -11    1    3    3    0    0  0.13614380256E+02  0.63286154660E+01 -0.11096118634E+02  0.18668866395E+02  0.51100000000E-03 0.  1.
        -12    1    3    3    0    0 -0.37134756262E+02 -0.19524452767E+02  0.43496704491E-01  0.41954693068E+02  0.00000000000E+00 0.  1.
</event>
<event>
 7    1  0.3925070E-015  0.9000794E+02  0.7816164E-02  0.1186339E+00
        -11   -1    0    0    0    0  0.00000000000E+00  0.00000000000E+00  0.45593999997E+02  0.45594000000E+02  0.51100000000E-03 0. -1.
         11   -1    0    0    0    0 -0.00000000000E+00 -0.00000000000E+00 -0.45593999997E+02  0.45594000000E+02  0.51100000000E-03 0.  1.
    9900012    2    1    2    0    0  0.48119445820E+00 -0.61001090357E-01  0.10757674814E+01  0.90007938597E+02  0.90000202587E+02 0.  0.
        -12    1    1    2    0    0 -0.48119445820E+00  0.61001090357E-01 -0.10757674814E+01  0.11800614025E+01  0.00000000000E+00 0.  1.
         11    1    3    3    0    0  0.15183640997E+01 -0.18490959083E+02  0.30399455575E+02  0.35613872253E+02  0.51100000000E-03 0. -1.
        -11    1    3    3    0    0 -0.21150713927E+01  0.54652043962E+00  0.10500580719E+02  0.10725409423E+02  0.51100000000E-03 0.  1.
        -12    1    3    3    0    0  0.10779017512E+01  0.17883437553E+02 -0.39824268813E+02  0.43668656922E+02  0.00000000000E+00 0.  1.
</event>
<event>
 7    1  0.3925070E-015  0.9000789E+02  0.7816164E-02  0.1186339E+00
        -11   -1    0    0    0    0  0.00000000000E+00  0.00000000000E+00  0.45593999997E+02  0.45594000000E+02  0.51100000000E-03 0.  1.
         11   -1    0    0    0    0 -0.00000000000E+00 -0.00000000000E+00 -0.45593999997E+02  0.45594000000E+02  0.51100000000E-03 0. -1.
    9900012    2    1    2    0    0 -0.57580284008E+00  0.21678332930E+00 -0.10070285667E+01  0.90007893879E+02  0.90000157278E+02 0.  0.
        -12    1    1    2    0    0  0.57580284008E+00 -0.21678332930E+00  0.10070285667E+01  0.11801061209E+01  0.00000000000E+00 0.  1.
         11    1    3    3    0    0  0.11081168412E+02  0.16337824237E+01 -0.34152486560E+02  0.35942368827E+02  0.51100000000E-03 0. -1.
        -11    1    3    3    0    0 -0.69728517071E+01  0.35447482234E+01 -0.86814982618E+01  0.11685645606E+02  0.51100000000E-03 0.  1.
        -12    1    3    3    0    0 -0.46841195451E+01 -0.49617473178E+01  0.41826956255E+02  0.42379879447E+02  0.00000000000E+00 0.  1.
</event>
<event>
 7    1  0.3925070E-015  0.9000779E+02  0.7816164E-02  0.1186339E+00
        -11   -1    0    0    0    0  0.00000000000E+00  0.00000000000E+00  0.45593999997E+02  0.45594000000E+02  0.51100000000E-03 0. -1.
         11   -1    0    0    0    0 -0.00000000000E+00 -0.00000000000E+00 -0.45593999997E+02  0.45594000000E+02  0.51100000000E-03 0.  1.
    9900012    2    1    2    0    0  0.30103054372E+00 -0.49117199318E+00  0.10300575314E+01  0.90007793309E+02  0.90000055381E+02 0.  0.
        -12    1    1    2    0    0 -0.30103054372E+00  0.49117199318E+00 -0.10300575314E+01  0.11802066909E+01  0.00000000000E+00 0.  1.
         11    1    3    3    0    0  0.62532760345E+01  0.90232884537E+00 -0.53353605439E+01  0.82694456225E+01  0.51100000000E-03 0. -1.
        -11    1    3    3    0    0  0.27500134029E+02  0.23737371061E+02  0.14499376793E+02  0.39114601930E+02  0.51100000000E-03 0.  1.
         12    1    3    3    0    0 -0.33452379519E+02 -0.25130871899E+02 -0.81339587176E+01  0.42623745757E+02  0.00000000000E+00 0. -1.
</event>
<event>
 7    1  0.3925070E-015  0.9000771E+02  0.7816164E-02  0.1186339E+00
        -11   -1    0    0    0    0  0.00000000000E+00  0.00000000000E+00  0.45593999997E+02  0.45594000000E+02  0.51100000000E-03 0.  1.
         11   -1    0    0    0    0 -0.00000000000E+00 -0.00000000000E+00 -0.45593999997E+02  0.45594000000E+02  0.51100000000E-03 0. -1.
    9900012    2    1    2    0    0  0.44376681800E+00 -0.81958197967E+00 -0.72418694640E+00  0.90007707518E+02  0.89999968457E+02 0.  0.
        -12    1    1    2    0    0 -0.44376681800E+00  0.81958197967E+00  0.72418694640E+00  0.11802924822E+01  0.00000000000E+00 0.  1.
         11    1    3    3    0    0  0.16779300424E+02 -0.18065130333E+02 -0.32016799734E+02  0.40410015121E+02  0.51100000000E-03 0. -1.
        -11    1    3    3    0    0 -0.23646145650E+01  0.58580840797E+01 -0.56611219365E+01  0.84827385299E+01  0.51100000000E-03 0.  1.
        -12    1    3    3    0    0 -0.13970919041E+02  0.11387464273E+02  0.36953734724E+02  0.41114953867E+02  0.00000000000E+00 0.  1.
</event>
<event>
 7    1  0.3925070E-015  0.9000834E+02  0.7816164E-02  0.1186338E+00
        -11   -1    0    0    0    0  0.00000000000E+00  0.00000000000E+00  0.45593999997E+02  0.45594000000E+02  0.51100000000E-03 0. -1.
         11   -1    0    0    0    0 -0.00000000000E+00 -0.00000000000E+00 -0.45593999997E+02  0.45594000000E+02  0.51100000000E-03 0.  1.
    9900012    2    1    2    0    0  0.10594105186E+01 -0.38190608115E+00  0.35127226881E+00  0.90008341105E+02  0.90000610405E+02 0.  0.
        -12    1    1    2    0    0 -0.10594105186E+01  0.38190608115E+00 -0.35127226881E+00  0.11796588950E+01  0.00000000000E+00 0.  1.
         11    1    3    3    0    0  0.43820424645E+01  0.71170857532E+01 -0.49360336604E+01  0.97066798823E+01  0.51100000000E-03 0. -1.
        -11    1    3    3    0    0 -0.20050337364E+02  0.26896794619E+02 -0.15292396551E+02  0.36868834830E+02  0.51100000000E-03 0.  1.
         12    1    3    3    0    0  0.16727705419E+02 -0.34395786453E+02  0.20579702480E+02  0.43432826393E+02  0.00000000000E+00 0. -1.
</event>
<event>
 7    1  0.3925070E-015  0.9000778E+02  0.7816164E-02  0.1186339E+00
        -11   -1    0    0    0    0  0.00000000000E+00  0.00000000000E+00  0.45593999997E+02  0.45594000000E+02  0.51100000000E-03 0. -1.
         11   -1    0    0    0    0 -0.00000000000E+00 -0.00000000000E+00 -0.45593999997E+02  0.45594000000E+02  0.51100000000E-03 0.  1.
    9900012    2    1    2    0    0  0.79559894458E+00 -0.85252546200E+00  0.18205923823E+00  0.90007778449E+02  0.90000040324E+02 0.  0.
        -12    1    1    2    0    0 -0.79559894458E+00  0.85252546200E+00 -0.18205923823E+00  0.11802215513E+01  0.00000000000E+00 0.  1.
         11    1    3    3    0    0 -0.10674868813E+02  0.22708240411E+02  0.49441478827E+01  0.25574628156E+02  0.51100000000E-03 0. -1.
        -11    1    3    3    0    0 -0.22725079868E+02 -0.59598374030E+01  0.64679696636E+01  0.24367674257E+02  0.51100000000E-03 0.  1.
        -12    1    3    3    0    0  0.34195547625E+02 -0.17600928470E+02 -0.11230058308E+02  0.40065476036E+02  0.00000000000E+00 0.  1.
</event>
<event>
 7    1  0.3925070E-015  0.9000765E+02  0.7816164E-02  0.1186339E+00
        -11   -1    0    0    0    0  0.00000000000E+00  0.00000000000E+00  0.45593999997E+02  0.45594000000E+02  0.51100000000E-03 0.  1.
         11   -1    0    0    0    0 -0.00000000000E+00 -0.00000000000E+00 -0.45593999997E+02  0.45594000000E+02  0.51100000000E-03 0. -1.
    9900012    2    1    2    0    0  0.32426214779E+00  0.65891930725E+00 -0.92406875210E+00  0.90007651046E+02  0.89999911240E+02 0.  0.
        -12    1    1    2    0    0 -0.32426214779E+00 -0.65891930725E+00  0.92406875210E+00  0.11803489537E+01  0.00000000000E+00 0.  1.
         11    1    3    3    0    0 -0.17187797448E+02 -0.32965311058E+02  0.72690748475E+01  0.37881018514E+02  0.51100000000E-03 0. -1.
        -11    1    3    3    0    0  0.57466834871E+01 -0.47613200993E+01  0.59664173666E+01  0.95547201237E+01  0.51100000000E-03 0.  1.
        -12    1    3    3    0    0  0.11765376108E+02  0.38385550464E+02 -0.14159560966E+02  0.42571912409E+02  0.00000000000E+00 0.  1.
</event>
<event>
 7    1  0.3925070E-015  0.9000723E+02  0.7816164E-02  0.1186340E+00
        -11   -1    0    0    0    0  0.00000000000E+00  0.00000000000E+00  0.45593999997E+02  0.45594000000E+02  0.51100000000E-03 0.  1.
         11   -1    0    0    0    0 -0.00000000000E+00 -0.00000000000E+00 -0.45593999997E+02  0.45594000000E+02  0.51100000000E-03 0. -1.
    9900012    2    1    2    0    0 -0.16442293759E+00  0.60410625837E+00 -0.10011213800E+01  0.90007227672E+02  0.89999482276E+02 0.  0.
        -12    1    1    2    0    0  0.16442293759E+00 -0.60410625837E+00  0.10011213800E+01  0.11807723283E+01  0.00000000000E+00 0.  1.
         11    1    3    3    0    0  0.15694156160E+02  0.17649433874E+02 -0.29736740541E+02  0.37974765199E+02  0.51100000000E-03 0. -1.
        -11    1    3    3    0    0 -0.48024753019E+01 -0.11694874350E+01 -0.86358373460E+01  0.99503345076E+01  0.51100000000E-03 0.  1.
        -12    1    3    3    0    0 -0.11056103796E+02 -0.15875840181E+02  0.37371456507E+02  0.42082127965E+02  0.00000000000E+00 0.  1.
</event>
<event>
 7    1  0.3925070E-015  0.9000772E+02  0.7816164E-02  0.1186339E+00
        -11   -1    0    0    0    0  0.00000000000E+00  0.00000000000E+00  0.45593999997E+02  0.45594000000E+02  0.51100000000E-03 0.  1.
         11   -1    0    0    0    0 -0.00000000000E+00 -0.00000000000E+00 -0.45593999997E+02  0.45594000000E+02  0.51100000000E-03 0. -1.
    9900012    2    1    2    0    0 -0.10983772403E+01 -0.32060937807E+00 -0.28954991851E+00  0.90007719486E+02  0.89999980584E+02 0.  0.
        -12    1    1    2    0    0  0.10983772403E+01  0.32060937807E+00  0.28954991851E+00  0.11802805135E+01  0.00000000000E+00 0.  1.
         11    1    3    3    0    0  0.31329810826E+01  0.90290252593E+01  0.84237041457E+01  0.12739609860E+02  0.51100000000E-03 0. -1.
        -11    1    3    3    0    0  0.34106659241E+02  0.72438779770E+01 -0.17027598387E+01  0.34908986867E+02  0.51100000000E-03 0.  1.
         12    1    3    3    0    0 -0.38338017564E+02 -0.16593512614E+02 -0.70104942255E+01  0.42359122759E+02  0.00000000000E+00 0. -1.
</event>
<event>
 7    1  0.3925070E-015  0.9000773E+02  0.7816164E-02  0.1186339E+00
        -11   -1    0    0    0    0  0.00000000000E+00  0.00000000000E+00  0.45593999997E+02  0.45594000000E+02  0.51100000000E-03 0. -1.
         11   -1    0    0    0    0 -0.00000000000E+00 -0.00000000000E+00 -0.45593999997E+02  0.45594000000E+02  0.51100000000E-03 0.  1.
    9900012    2    1    2    0    0 -0.64020434734E+00 -0.85768292497E+00  0.49754108240E+00  0.90007733617E+02  0.89999994901E+02 0.  0.
        -12    1    1    2    0    0  0.64020434734E+00  0.85768292497E+00 -0.49754108240E+00  0.11802663830E+01  0.00000000000E+00 0.  1.
         11    1    3    3    0    0  0.27497201978E+01 -0.95678833367E+01 -0.34037924432E+01  0.10520986454E+02  0.51100000000E-03 0. -1.
        -11    1    3    3    0    0 -0.84073682971E+01 -0.29079395941E+02 -0.18299722193E+02  0.35371951354E+02  0.51100000000E-03 0.  1.
         12    1    3    3    0    0  0.50174437520E+01  0.37789596352E+02  0.22201055718E+02  0.44114795809E+02  0.00000000000E+00 0. -1.
</event>
<event>
 7    1  0.3925070E-015  0.9000780E+02  0.7816164E-02  0.1186339E+00
        -11   -1    0    0    0    0  0.00000000000E+00  0.00000000000E+00  0.45593999997E+02  0.45594000000E+02  0.51100000000E-03 0.  1.
         11   -1    0    0    0    0 -0.00000000000E+00 -0.00000000000E+00 -0.45593999997E+02  0.45594000000E+02  0.51100000000E-03 0. -1.
    9900012    2    1    2    0    0 -0.96383435990E+00 -0.58393269921E+00 -0.35059934155E+00  0.90007799183E+02  0.90000061332E+02 0.  0.
        -12    1    1    2    0    0  0.96383435990E+00  0.58393269921E+00  0.35059934155E+00  0.11802008172E+01  0.00000000000E+00 0.  1.
         11    1    3    3    0    0 -0.25587078536E+01  0.36658995892E+00  0.93149653882E+01  0.96669516665E+01  0.51100000000E-03 0. -1.
        -11    1    3    3    0    0 -0.13468177848E+02  0.21781705341E+02  0.25299722724E+02  0.35998756538E+02  0.51100000000E-03 0.  1.
         12    1    3    3    0    0  0.15063051342E+02 -0.22732227999E+02 -0.34965287454E+02  0.44342090978E+02  0.00000000000E+00 0. -1.
</event>
<event>
 7    1  0.3936012E-015  0.9000771E+02  0.7816164E-02  0.1186339E+00
        -11   -1    0    0    0    0  0.00000000000E+00  0.00000000000E+00  0.45593999997E+02  0.45594000000E+02  0.51100000000E-03 0. -1.
         11   -1    0    0    0    0 -0.00000000000E+00 -0.00000000000E+00 -0.45593999997E+02  0.45594000000E+02  0.51100000000E-03 0.  1.
    9900012    2    1    2    0    0 -0.49955955070E+00  0.69822895203E+00  0.80993662459E+00  0.90007711582E+02  0.89999972575E+02 0.  0.
        -12    1    1    2    0    0  0.49955955070E+00 -0.69822895203E+00 -0.80993662459E+00  0.11802884181E+01  0.00000000000E+00 0.  1.
         11    1    3    3    0    0 -0.17932387266E+02  0.13070721118E+02  0.36797329525E+02  0.42970428483E+02  0.51100000000E-03 0. -1.
        -11    1    3    3    0    0  0.93589688566E+00  0.56795599582E+01 -0.82422248085E+01  0.10053237009E+02  0.51100000000E-03 0.  1.
        -12    1    3    3    0    0  0.16496930829E+02 -0.18052052124E+02 -0.27745168092E+02  0.36984046090E+02  0.00000000000E+00 0.  1.
</event>
<event>
 7    1  0.3925070E-015  0.9000776E+02  0.7816164E-02  0.1186339E+00
        -11   -1    0    0    0    0  0.00000000000E+00  0.00000000000E+00  0.45593999997E+02  0.45594000000E+02  0.51100000000E-03 0.  1.
         11   -1    0    0    0    0 -0.00000000000E+00 -0.00000000000E+00 -0.45593999997E+02  0.45594000000E+02  0.51100000000E-03 0. -1.
    9900012    2    1    2    0    0  0.58237162620E-01  0.11577910895E+01 -0.22157920197E+00  0.90007758874E+02  0.90000020491E+02 0.  0.
        -12    1    1    2    0    0 -0.58237162620E-01 -0.11577910895E+01  0.22157920197E+00  0.11802411265E+01  0.00000000000E+00 0.  1.
         11    1    3    3    0    0 -0.12669907027E+02  0.36106116810E+02  0.54713212729E+01  0.38653765301E+02  0.51100000000E-03 0. -1.
        -11    1    3    3    0    0 -0.10435237783E+02 -0.48851164054E+01  0.39778939286E+01  0.12189429447E+02  0.51100000000E-03 0.  1.
        -12    1    3    3    0    0  0.23163381973E+02 -0.30063209315E+02 -0.96707944034E+01  0.39164564126E+02  0.00000000000E+00 0.  1.
</event>
<event>
 7    1  0.3925070E-015  0.9000770E+02  0.7816164E-02  0.1186339E+00
        -11   -1    0    0    0    0  0.00000000000E+00  0.00000000000E+00  0.45593999997E+02  0.45594000000E+02  0.51100000000E-03 0.  1.
         11   -1    0    0    0    0 -0.00000000000E+00 -0.00000000000E+00 -0.45593999997E+02  0.45594000000E+02  0.51100000000E-03 0. -1.
    9900012    2    1    2    0    0  0.89639827961E+00 -0.61382348639E+00 -0.46129140492E+00  0.90007703890E+02  0.89999964781E+02 0.  0.
        -12    1    1    2    0    0 -0.89639827961E+00  0.61382348639E+00  0.46129140492E+00  0.11802961105E+01  0.00000000000E+00 0.  1.
         11    1    3    3    0    0 -0.15888141370E+02  0.30505444105E+02 -0.10923413879E+02  0.36087894470E+02  0.51100000000E-03 0. -1.
        -11    1    3    3    0    0 -0.75875667798E+01  0.35792186201E+01 -0.37629777589E+01  0.91946711438E+01  0.51100000000E-03 0.  1.
        -12    1    3    3    0    0  0.24372106429E+02 -0.34698486212E+02  0.14225100233E+02  0.44725138276E+02  0.00000000000E+00 0.  1.
</event>
<event>
 7    1  0.4663241E-015  0.9000777E+02  0.7816164E-02  0.1186339E+00
        -11   -1    0    0    0    0  0.00000000000E+00  0.00000000000E+00  0.45593999997E+02  0.45594000000E+02  0.51100000000E-03 0.  1.
         11   -1    0    0    0    0 -0.00000000000E+00 -0.00000000000E+00 -0.45593999997E+02  0.45594000000E+02  0.51100000000E-03 0. -1.
    9900012    2    1    2    0    0 -0.11093689721E+01  0.15434820009E+00 -0.37206011972E+00  0.90007766288E+02  0.90000028003E+02 0.  0.
        -12    1    1    2    0    0  0.11093689721E+01 -0.15434820009E+00  0.37206011972E+00  0.11802337124E+01  0.00000000000E+00 0.  1.
         11    1    3    3    0    0 -0.16585997171E+02 -0.23757603142E+02 -0.25007751364E+02  0.38274098784E+02  0.51100000000E-03 0. -1.
        -11    1    3    3    0    0 -0.95879771579E+01 -0.63497078693E+00  0.15407097607E+01  0.97317151987E+01  0.51100000000E-03 0.  1.
        -12    1    3    3    0    0  0.25064605357E+02  0.24546922129E+02  0.23094981483E+02  0.42001952305E+02  0.00000000000E+00 0.  1.
</event>
<event>
 7    1  0.3925070E-015  0.9000783E+02  0.7816164E-02  0.1186339E+00
        -11   -1    0    0    0    0  0.00000000000E+00  0.00000000000E+00  0.45593999997E+02  0.45594000000E+02  0.51100000000E-03 0.  1.
         11   -1    0    0    0    0 -0.00000000000E+00 -0.00000000000E+00 -0.45593999997E+02  0.45594000000E+02  0.51100000000E-03 0. -1.
    9900012    2    1    2    0    0  0.79116806437E+00 -0.79695179163E+00  0.36295099596E+00  0.90007825229E+02  0.90000087722E+02 0.  0.
        -12    1    1    2    0    0 -0.79116806437E+00  0.79695179163E+00 -0.36295099596E+00  0.11801747708E+01  0.00000000000E+00 0.  1.
         11    1    3    3    0    0 -0.79846735680E+01 -0.24813921089E+02 -0.20326976865E+02  0.33055584710E+02  0.51100000000E-03 0. -1.
        -11    1    3    3    0    0  0.90516138684E+01 -0.13309140986E+01 -0.12311502198E+02  0.15338713525E+02  0.51100000000E-03 0.  1.
        -12    1    3    3    0    0 -0.27577223604E+00  0.25347883396E+02  0.33001430059E+02  0.41613526994E+02  0.00000000000E+00 0.  1.
</event>
<event>
 7    1  0.3925070E-015  0.9000765E+02  0.7816164E-02  0.1186339E+00
        -11   -1    0    0    0    0  0.00000000000E+00  0.00000000000E+00  0.45593999997E+02  0.45594000000E+02  0.51100000000E-03 0.  1.
         11   -1    0    0    0    0 -0.00000000000E+00 -0.00000000000E+00 -0.45593999997E+02  0.45594000000E+02  0.51100000000E-03 0. -1.
    9900012    2    1    2    0    0 -0.12179892358E+00 -0.96843758409E+00 -0.66371635629E+00  0.90007650165E+02  0.89999910347E+02 0.  0.
        -12    1    1    2    0    0  0.12179892358E+00  0.96843758409E+00  0.66371635629E+00  0.11803498353E+01  0.00000000000E+00 0.  1.
         11    1    3    3    0    0  0.41619019273E+01  0.27839365468E+01  0.64510268676E+01  0.81662401543E+01  0.51100000000E-03 0. -1.
        -11    1    3    3    0    0 -0.31601394914E+02 -0.22028742961E+02  0.15945065275E+02  0.41691231498E+02  0.51100000000E-03 0.  1.
         12    1    3    3    0    0  0.27317694063E+02  0.18276368830E+02 -0.23059808499E+02  0.40150178512E+02  0.00000000000E+00 0. -1.
</event>
<event>
 7    1  0.3925070E-015  0.9000784E+02  0.7816164E-02  0.1186339E+00
        -11   -1    0    0    0    0  0.00000000000E+00  0.00000000000E+00  0.45593999997E+02  0.45594000000E+02  0.51100000000E-03 0.  1.
         11   -1    0    0    0    0 -0.00000000000E+00 -0.00000000000E+00 -0.45593999997E+02  0.45594000000E+02  0.51100000000E-03 0. -1.
    9900012    2    1    2    0    0 -0.10916934010E+01  0.43597185691E+00  0.10449704735E+00  0.90007836632E+02  0.90000099276E+02 0.  0.
        -12    1    1    2    0    0  0.10916934010E+01 -0.43597185691E+00 -0.10449704735E+00  0.11801633678E+01  0.00000000000E+00 0.  1.
         11    1    3    3    0    0 -0.65645106586E+01  0.66852207219E+01 -0.11895699428E+02  0.15142412009E+02  0.51100000000E-03 0. -1.
        -11    1    3    3    0    0  0.17181496460E+01 -0.32242079716E+02  0.29149560453E+02  0.43499432381E+02  0.51100000000E-03 0.  1.
         12    1    3    3    0    0  0.37546676116E+01  0.25992830851E+02 -0.17149363977E+02  0.31365992242E+02  0.00000000000E+00 0. -1.
</event>
<event>
 7    1  0.3925070E-015  0.9000813E+02  0.7816164E-02  0.1186338E+00
        -11   -1    0    0    0    0  0.00000000000E+00  0.00000000000E+00  0.45593999997E+02  0.45594000000E+02  0.51100000000E-03 0.  1.
         11   -1    0    0    0    0 -0.00000000000E+00 -0.00000000000E+00 -0.45593999997E+02  0.45594000000E+02  0.51100000000E-03 0. -1.
    9900012    2    1    2    0    0 -0.11327290280E+01 -0.41212306885E-02 -0.33013802290E+00  0.90008134266E+02  0.90000400838E+02 0.  0.
        -12    1    1    2    0    0  0.11327290280E+01  0.41212306885E-02  0.33013802290E+00  0.11798657337E+01  0.00000000000E+00 0.  1.
         11    1    3    3    0    0  0.43737877326E+01  0.34285730821E+02 -0.86675813744E+01  0.35633808725E+02  0.51100000000E-03 0. -1.
        -11    1    3    3    0    0  0.70064294887E+01  0.73884255674E+01  0.23303379115E+01  0.10445542666E+02  0.51100000000E-03 0.  1.
        -12    1    3    3    0    0 -0.12512946249E+02 -0.41678277619E+02  0.60071054401E+01  0.43928782876E+02  0.00000000000E+00 0.  1.
</event>
<event>
 7    1  0.4393141E-015  0.9000767E+02  0.7816164E-02  0.1186339E+00
        -11   -1    0    0    0    0  0.00000000000E+00  0.00000000000E+00  0.45593999997E+02  0.45594000000E+02  0.51100000000E-03 0. -1.
         11   -1    0    0    0    0 -0.00000000000E+00 -0.00000000000E+00 -0.45593999997E+02  0.45594000000E+02  0.51100000000E-03 0.  1.
    9900012    2    1    2    0    0 -0.64760616061E+00 -0.38756050616E+00 -0.90751469260E+00  0.90007669621E+02  0.89999930060E+02 0.  0.
        -12    1    1    2    0    0  0.64760616061E+00  0.38756050616E+00  0.90751469260E+00  0.11803303785E+01  0.00000000000E+00 0.  1.
         11    1    3    3    0    0 -0.25192204785E+02 -0.20073996180E+02 -0.25681804842E+02  0.41196694100E+02  0.51100000000E-03 0. -1.
        -11    1    3    3    0    0 -0.27798907910E+01  0.94751927862E+01 -0.94760955365E+00  0.99199312131E+01  0.51100000000E-03 0.  1.
        -12    1    3    3    0    0  0.27324489415E+02  0.10211242887E+02  0.25721899703E+02  0.38891044309E+02  0.00000000000E+00 0.  1.
</event>
<event>
 7    1  0.3925070E-015  0.9000771E+02  0.7816164E-02  0.1186339E+00
        -11   -1    0    0    0    0  0.00000000000E+00  0.00000000000E+00  0.45593999997E+02  0.45594000000E+02  0.51100000000E-03 0. -1.
         11   -1    0    0    0    0 -0.00000000000E+00 -0.00000000000E+00 -0.45593999997E+02  0.45594000000E+02  0.51100000000E-03 0.  1.
    9900012    2    1    2    0    0 -0.93790458664E+00  0.32439608275E+00  0.63888827361E+00  0.90007713569E+02  0.89999974588E+02 0.  0.
        -12    1    1    2    0    0  0.93790458664E+00 -0.32439608275E+00 -0.63888827361E+00  0.11802864306E+01  0.00000000000E+00 0.  1.
         11    1    3    3    0    0  0.40194471227E+01 -0.72290955738E+01 -0.58345086026E+01  0.10122117806E+02  0.51100000000E-03 0. -1.
        -11    1    3    3    0    0 -0.21488534694E+02 -0.69500050059E+01 -0.29845506809E+02  0.37427449416E+02  0.51100000000E-03 0.  1.
         12    1    3    3    0    0  0.16531182984E+02  0.14503496663E+02  0.36318903685E+02  0.42458146347E+02  0.00000000000E+00 0. -1.
</event>
<event>
 7    1  0.3925070E-015  0.9000715E+02  0.7816164E-02  0.1186340E+00
        -11   -1    0    0    0    0  0.00000000000E+00  0.00000000000E+00  0.45593999997E+02  0.45594000000E+02  0.51100000000E-03 0. -1.
         11   -1    0    0    0    0 -0.00000000000E+00 -0.00000000000E+00 -0.45593999997E+02  0.45594000000E+02  0.51100000000E-03 0.  1.
    9900012    2    1    2    0    0 -0.31262084230E-01 -0.21291582106E+00  0.11610763634E+01  0.90007149126E+02  0.89999402693E+02 0.  0.
        -12    1    1    2    0    0  0.31262084230E-01  0.21291582106E+00 -0.11610763634E+01  0.11808508739E+01  0.00000000000E+00 0.  1.
         11    1    3    3    0    0 -0.36391957083E+01 -0.51762686972E+01 -0.73138885637E+01  0.96711152000E+01  0.51100000000E-03 0. -1.
        -11    1    3    3    0    0 -0.32264991231E+02  0.51074554326E+01 -0.16527241696E+02  0.36609636416E+02  0.51100000000E-03 0.  1.
         12    1    3    3    0    0  0.35872924855E+02 -0.14410255646E+00  0.25002206623E+02  0.43726397510E+02  0.00000000000E+00 0. -1.
</event>
<event>
 7    1  0.3925070E-015  0.9000771E+02  0.7816164E-02  0.1186339E+00
        -11   -1    0    0    0    0  0.00000000000E+00  0.00000000000E+00  0.45593999997E+02  0.45594000000E+02  0.51100000000E-03 0. -1.
         11   -1    0    0    0    0 -0.00000000000E+00 -0.00000000000E+00 -0.45593999997E+02  0.45594000000E+02  0.51100000000E-03 0.  1.
    9900012    2    1    2    0    0 -0.17911139234E-02 -0.10623248614E+00  0.11754962873E+01  0.90007711870E+02  0.89999972866E+02 0.  0.
        -12    1    1    2    0    0  0.17911139234E-02  0.10623248614E+00 -0.11754962873E+01  0.11802881303E+01  0.00000000000E+00 0.  1.
         11    1    3    3    0    0 -0.98904348400E+01  0.65938399811E+01 -0.23893766762E+01  0.12124708169E+02  0.51100000000E-03 0. -1.
        -11    1    3    3    0    0  0.24844598174E+02  0.20155456057E+02  0.24836683548E+02  0.40501324882E+02  0.51100000000E-03 0.  1.
         12    1    3    3    0    0 -0.14955954448E+02 -0.26855528524E+02 -0.21271810585E+02  0.37381678819E+02  0.00000000000E+00 0. -1.
</event>
<event>
 7    1  0.3925070E-015  0.9000789E+02  0.7816164E-02  0.1186339E+00
        -11   -1    0    0    0    0  0.00000000000E+00  0.00000000000E+00  0.45593999997E+02  0.45594000000E+02  0.51100000000E-03 0.  1.
         11   -1    0    0    0    0 -0.00000000000E+00 -0.00000000000E+00 -0.45593999997E+02  0.45594000000E+02  0.51100000000E-03 0. -1.
    9900012    2    1    2    0    0 -0.28824894581E+00 -0.10211463371E+01 -0.51656391540E+00  0.90007887473E+02  0.90000150788E+02 0.  0.
        -12    1    1    2    0    0  0.28824894581E+00  0.10211463371E+01  0.51656391540E+00  0.11801125265E+01  0.00000000000E+00 0.  1.
         11    1    3    3    0    0 -0.21198343321E+02  0.47971409347E+01 -0.53038910006E+01  0.22372160841E+02  0.51100000000E-03 0. -1.
        -11    1    3    3    0    0  0.49431204547E+01  0.28838419804E+02  0.33569780889E+01  0.29450945635E+02  0.51100000000E-03 0.  1.
        -12    1    3    3    0    0  0.15966973921E+02 -0.34656707076E+02  0.14303489963E+01  0.38184780997E+02  0.00000000000E+00 0.  1.
</event>
<event>
 7    1  0.4019918E-015  0.9000776E+02  0.7816164E-02  0.1186339E+00
        -11   -1    0    0    0    0  0.00000000000E+00  0.00000000000E+00  0.45593999997E+02  0.45594000000E+02  0.51100000000E-03 0. -1.
         11   -1    0    0    0    0 -0.00000000000E+00 -0.00000000000E+00 -0.45593999997E+02  0.45594000000E+02  0.51100000000E-03 0.  1.
    9900012    2    1    2    0    0  0.88708338747E+00  0.28988191898E+00  0.72250961586E+00  0.90007759089E+02  0.90000020709E+02 0.  0.
        -12    1    1    2    0    0 -0.88708338747E+00 -0.28988191898E+00 -0.72250961586E+00  0.11802409111E+01  0.00000000000E+00 0.  1.
         11    1    3    3    0    0 -0.35308512010E+02  0.17517628236E+02  0.23410707985E+01  0.39484667051E+02  0.51100000000E-03 0. -1.
        -11    1    3    3    0    0  0.36615548422E+01  0.71048075581E+01  0.49020774862E+01  0.93763339447E+01  0.51100000000E-03 0.  1.
        -12    1    3    3    0    0  0.32534040555E+02 -0.24332553876E+02 -0.65206386689E+01  0.41146758093E+02  0.00000000000E+00 0.  1.
</event>
<event>
 7    1  0.3925070E-015  0.9000750E+02  0.7816164E-02  0.1186340E+00
        -11   -1    0    0    0    0  0.00000000000E+00  0.00000000000E+00  0.45593999997E+02  0.45594000000E+02  0.51100000000E-03 0. -1.
         11   -1    0    0    0    0 -0.00000000000E+00 -0.00000000000E+00 -0.45593999997E+02  0.45594000000E+02  0.51100000000E-03 0.  1.
    9900012    2    1    2    0    0  0.10916930154E+01 -0.29162959475E+00 -0.34167569689E+00  0.90007498521E+02  0.89999756701E+02 0.  0.
        -12    1    1    2    0    0 -0.10916930154E+01  0.29162959475E+00  0.34167569689E+00  0.11805014792E+01  0.00000000000E+00 0.  1.
         11    1    3    3    0    0  0.91171963070E+01 -0.28637156378E+00  0.28094827523E+01  0.95445518894E+01  0.51100000000E-03 0. -1.
        -11    1    3    3    0    0  0.21711122669E+02  0.28637770686E+02 -0.12645848279E+02  0.38097404589E+02  0.51100000000E-03 0.  1.
         12    1    3    3    0    0 -0.29736625961E+02 -0.28643028717E+02  0.94946898303E+01  0.42365542043E+02  0.00000000000E+00 0. -1.
</event>
<event>
 7    1  0.3925070E-015  0.9000803E+02  0.7816164E-02  0.1186338E+00
        -11   -1    0    0    0    0  0.00000000000E+00  0.00000000000E+00  0.45593999997E+02  0.45594000000E+02  0.51100000000E-03 0. -1.
         11   -1    0    0    0    0 -0.00000000000E+00 -0.00000000000E+00 -0.45593999997E+02  0.45594000000E+02  0.51100000000E-03 0.  1.
    9900012    2    1    2    0    0 -0.11611282534E+01 -0.35088814480E-01  0.20706539810E+00  0.90008031303E+02  0.90000296516E+02 0.  0.
        -12    1    1    2    0    0  0.11611282534E+01  0.35088814480E-01 -0.20706539810E+00  0.11799686965E+01  0.00000000000E+00 0.  1.
         11    1    3    3    0    0 -0.37717165209E+02  0.11023341058E+02 -0.75638581098E+00  0.39302299159E+02  0.51100000000E-03 0. -1.
        -11    1    3    3    0    0 -0.28144781791E+00  0.84696841978E+01  0.29281247041E+01  0.89659733342E+01  0.51100000000E-03 0.  1.
        -12    1    3    3    0    0  0.36837484773E+02 -0.19528114071E+02 -0.19646734951E+01  0.41739758810E+02  0.00000000000E+00 0.  1.
</event>
<event>
 7    1  0.3925070E-015  0.9000774E+02  0.7816164E-02  0.1186339E+00
        -11   -1    0    0    0    0  0.00000000000E+00  0.00000000000E+00  0.45593999997E+02  0.45594000000E+02  0.51100000000E-03 0.  1.
         11   -1    0    0    0    0 -0.00000000000E+00 -0.00000000000E+00 -0.45593999997E+02  0.45594000000E+02  0.51100000000E-03 0. -1.
    9900012    2    1    2    0    0 -0.27690642215E+00  0.46455550338E+00 -0.10490636948E+01  0.90007735785E+02  0.89999997097E+02 0.  0.
        -12    1    1    2    0    0  0.27690642215E+00 -0.46455550338E+00  0.10490636948E+01  0.11802642154E+01  0.00000000000E+00 0.  1.
         11    1    3    3    0    0 -0.24731181724E+01 -0.12879763529E+01  0.14002468358E+02  0.14277405820E+02  0.51100000000E-03 0. -1.
        -11    1    3    3    0    0  0.28261595219E+02 -0.54803314387E+01  0.17279426230E+02  0.33575740768E+02  0.51100000000E-03 0.  1.
         12    1    3    3    0    0 -0.26065383469E+02  0.72328632950E+01 -0.32330958283E+02  0.42154589196E+02  0.00000000000E+00 0. -1.
</event>
<event>
 7    1  0.3925070E-015  0.9000774E+02  0.7816164E-02  0.1186339E+00
        -11   -1    0    0    0    0  0.00000000000E+00  0.00000000000E+00  0.45593999997E+02  0.45594000000E+02  0.51100000000E-03 0.  1.
         11   -1    0    0    0    0 -0.00000000000E+00 -0.00000000000E+00 -0.45593999997E+02  0.45594000000E+02  0.51100000000E-03 0. -1.
    9900012    2    1    2    0    0  0.85955162527E+00 -0.75643156900E+00  0.28635696829E+00  0.90007738153E+02  0.89999999496E+02 0.  0.
        -12    1    1    2    0    0 -0.85955162527E+00  0.75643156900E+00 -0.28635696829E+00  0.11802618474E+01  0.00000000000E+00 0.  1.
         11    1    3    3    0    0  0.42285816069E+01  0.40298587861E+01 -0.84161368747E+01  0.10244609529E+02  0.51100000000E-03 0. -1.
        -11    1    3    3    0    0  0.36197191322E+02 -0.68436761942E+00 -0.72197904343E+01  0.36916532785E+02  0.51100000000E-03 0.  1.
         12    1    3    3    0    0 -0.39566221304E+02 -0.41019227357E+01  0.15922284277E+02  0.42846595839E+02  0.00000000000E+00 0. -1.
</event>
<event>
 7    1  0.3925070E-015  0.9000746E+02  0.7816164E-02  0.1186340E+00
        -11   -1    0    0    0    0  0.00000000000E+00  0.00000000000E+00  0.45593999997E+02  0.45594000000E+02  0.51100000000E-03 0. -1.
         11   -1    0    0    0    0 -0.00000000000E+00 -0.00000000000E+00 -0.45593999997E+02  0.45594000000E+02  0.51100000000E-03 0.  1.
    9900012    2    1    2    0    0 -0.37928917625E+00  0.27809533164E+00  0.10828078836E+01  0.90007461900E+02  0.89999719597E+02 0.  0.
        -12    1    1    2    0    0  0.37928917625E+00 -0.27809533164E+00 -0.10828078836E+01  0.11805381000E+01  0.00000000000E+00 0.  1.
         11    1    3    3    0    0 -0.57389070765E+01  0.43245077388E+01  0.65551335292E+01  0.97265717220E+01  0.51100000000E-03 0. -1.
        -11    1    3    3    0    0  0.15561576253E+02  0.35459995418E+02 -0.74336574485E+01  0.39431373218E+02  0.51100000000E-03 0.  1.
         12    1    3    3    0    0 -0.10201958352E+02 -0.39506407825E+02  0.19613318029E+01  0.40849516960E+02  0.00000000000E+00 0. -1.
</event>
<event>
 7    1  0.3925070E-015  0.9000645E+02  0.7816164E-02  0.1186342E+00
        -11   -1    0    0    0    0  0.00000000000E+00  0.00000000000E+00  0.45593999997E+02  0.45594000000E+02  0.51100000000E-03 0. -1.
         11   -1    0    0    0    0 -0.00000000000E+00 -0.00000000000E+00 -0.45593999997E+02  0.45594000000E+02  0.51100000000E-03 0.  1.
    9900012    2    1    2    0    0  0.17569833592E+00  0.10781590724E+01  0.45030328902E+00  0.90006445963E+02  0.89998690240E+02 0.  0.
        -12    1    1    2    0    0 -0.17569833592E+00 -0.10781590724E+01 -0.45030328902E+00  0.11815540372E+01  0.00000000000E+00 0.  1.
         11    1    3    3    0    0  0.16309557613E+01  0.14526809112E+02 -0.44356196205E+01  0.15276220781E+02  0.51100000000E-03 0. -1.
        -11    1    3    3    0    0 -0.31922060363E+02 -0.25925392822E+02  0.71057572778E+01  0.41732909286E+02  0.51100000000E-03 0.  1.
         12    1    3    3    0    0  0.30466802937E+02  0.12476742782E+02 -0.22198343682E+01  0.32997315895E+02  0.00000000000E+00 0. -1.
</event>
<event>
 7    1  0.3925070E-015  0.9000779E+02  0.7816164E-02  0.1186339E+00
        -11   -1    0    0    0    0  0.00000000000E+00  0.00000000000E+00  0.45593999997E+02  0.45594000000E+02  0.51100000000E-03 0. -1.
         11   -1    0    0    0    0 -0.00000000000E+00 -0.00000000000E+00 -0.45593999997E+02  0.45594000000E+02  0.51100000000E-03 0.  1.
    9900012    2    1    2    0    0  0.23371564185E+00  0.77040122906E+00  0.86299324660E+00  0.90007788833E+02  0.90000050846E+02 0.  0.
        -12    1    1    2    0    0 -0.23371564185E+00 -0.77040122906E+00 -0.86299324660E+00  0.11802111670E+01  0.00000000000E+00 0.  1.
         11    1    3    3    0    0 -0.25251259681E+02  0.26700281599E+02 -0.18263793065E+02  0.41037754451E+02  0.51100000000E-03 0. -1.
        -11    1    3    3    0    0  0.55013542174E+01  0.49609985040E+01  0.71054427011E+01  0.10264683172E+02  0.51100000000E-03 0.  1.
        -12    1    3    3    0    0  0.19983621106E+02 -0.30890878874E+02  0.12021343610E+02  0.38705351210E+02  0.00000000000E+00 0.  1.
</event>
<event>
 7    1  0.3925070E-015  0.9000771E+02  0.7816164E-02  0.1186339E+00
        -11   -1    0    0    0    0  0.00000000000E+00  0.00000000000E+00  0.45593999997E+02  0.45594000000E+02  0.51100000000E-03 0.  1.
         11   -1    0    0    0    0 -0.00000000000E+00 -0.00000000000E+00 -0.45593999997E+02  0.45594000000E+02  0.51100000000E-03 0. -1.
    9900012    2    1    2    0    0 -0.68202707336E+00  0.95065651357E+00 -0.15546213371E+00  0.90007713081E+02  0.89999974094E+02 0.  0.
        -12    1    1    2    0    0  0.68202707336E+00 -0.95065651357E+00  0.15546213371E+00  0.11802869188E+01  0.00000000000E+00 0.  1.
         11    1    3    3    0    0  0.11436560918E+01  0.31533983223E+00  0.95114137033E+01  0.95851123813E+01  0.51100000000E-03 0. -1.
        -11    1    3    3    0    0  0.29842661018E+02  0.13330727132E+02  0.17256790812E+02  0.36960648424E+02  0.51100000000E-03 0.  1.
         12    1    3    3    0    0 -0.31668344183E+02 -0.12695410450E+02 -0.26923666649E+02  0.43461952276E+02  0.00000000000E+00 0. -1.
</event>
<event>
 7    1  0.3925070E-015  0.9000782E+02  0.7816164E-02  0.1186339E+00
        -11   -1    0    0    0    0  0.00000000000E+00  0.00000000000E+00  0.45593999997E+02  0.45594000000E+02  0.51100000000E-03 0.  1.
         11   -1    0    0    0    0 -0.00000000000E+00 -0.00000000000E+00 -0.45593999997E+02  0.45594000000E+02  0.51100000000E-03 0. -1.
    9900012    2    1    2    0    0  0.21638089362E+00  0.79255289922E+00 -0.84727428897E+00  0.90007815900E+02  0.90000078270E+02 0.  0.
        -12    1    1    2    0    0 -0.21638089362E+00 -0.79255289922E+00  0.84727428897E+00  0.11801841000E+01  0.00000000000E+00 0.  1.
         11    1    3    3    0    0 -0.13477831078E+02 -0.28401871759E+02 -0.19684774146E+02  0.37091893770E+02  0.51100000000E-03 0. -1.
        -11    1    3    3    0    0 -0.32325004513E+01 -0.59505115832E+01 -0.38496550084E+01  0.77895758045E+01  0.51100000000E-03 0.  1.
        -12    1    3    3    0    0  0.16926712423E+02  0.35144936241E+02  0.22687154865E+02  0.45126346326E+02  0.00000000000E+00 0.  1.
</event>
<event>
 7    1  0.3925070E-015  0.9000775E+02  0.7816164E-02  0.1186339E+00
        -11   -1    0    0    0    0  0.00000000000E+00  0.00000000000E+00  0.45593999997E+02  0.45594000000E+02  0.51100000000E-03 0.  1.
         11   -1    0    0    0    0 -0.00000000000E+00 -0.00000000000E+00 -0.45593999997E+02  0.45594000000E+02  0.51100000000E-03 0. -1.
    9900012    2    1    2    0    0  0.88685979252E+00  0.30699600282E+00 -0.71569774389E+00  0.90007749985E+02  0.90000011485E+02 0.  0.
        -12    1    1    2    0    0 -0.88685979252E+00 -0.30699600282E+00  0.71569774389E+00  0.11802500150E+01  0.00000000000E+00 0.  1.
         11    1    3    3    0    0  0.76935104873E+01  0.82220096874E+01  0.93343389457E-01  0.11260562160E+02  0.51100000000E-03 0. -1.
        -11    1    3    3    0    0 -0.12552062318E+02  0.93730828366E+01  0.35124388387E+02  0.38459480107E+02  0.51100000000E-03 0.  1.
         12    1    3    3    0    0  0.57454116229E+01 -0.17288096521E+02 -0.35933429520E+02  0.40287707718E+02  0.00000000000E+00 0. -1.
</event>
<event>
 7    1  0.3925070E-015  0.9000773E+02  0.7816164E-02  0.1186339E+00
        -11   -1    0    0    0    0  0.00000000000E+00  0.00000000000E+00  0.45593999997E+02  0.45594000000E+02  0.51100000000E-03 0.  1.
         11   -1    0    0    0    0 -0.00000000000E+00 -0.00000000000E+00 -0.45593999997E+02  0.45594000000E+02  0.51100000000E-03 0. -1.
    9900012    2    1    2    0    0 -0.55155387288E+00  0.48304198697E+00 -0.92492876051E+00  0.90007731197E+02  0.89999992449E+02 0.  0.
        -12    1    1    2    0    0  0.55155387288E+00 -0.48304198697E+00  0.92492876051E+00  0.11802688032E+01  0.00000000000E+00 0.  1.
         11    1    3    3    0    0  0.34706560347E+02  0.16293202793E+02 -0.83282082625E+01  0.39234842188E+02  0.51100000000E-03 0. -1.
        -11    1    3    3    0    0 -0.46560675387E-01 -0.12993096048E+01  0.12305791724E+02  0.12374283153E+02  0.51100000000E-03 0.  1.
        -12    1    3    3    0    0 -0.35211553544E+02 -0.14510851201E+02 -0.49025122219E+01  0.38398605856E+02  0.00000000000E+00 0.  1.
</event>
<event>
 7    1  0.3925070E-015  0.9000786E+02  0.7816164E-02  0.1186339E+00
        -11   -1    0    0    0    0  0.00000000000E+00  0.00000000000E+00  0.45593999997E+02  0.45594000000E+02  0.51100000000E-03 0.  1.
         11   -1    0    0    0    0 -0.00000000000E+00 -0.00000000000E+00 -0.45593999997E+02  0.45594000000E+02  0.51100000000E-03 0. -1.
    9900012    2    1    2    0    0 -0.10990920147E+01  0.42360312031E+00 -0.72743023828E-01  0.90007858310E+02  0.90000121240E+02 0.  0.
        -12    1    1    2    0    0  0.10990920147E+01 -0.42360312031E+00  0.72743023828E-01  0.11801416897E+01  0.00000000000E+00 0.  1.
         11    1    3    3    0    0 -0.29945436785E+02 -0.20886036812E+02 -0.70044535903E+00  0.36516384568E+02  0.51100000000E-03 0. -1.
        -11    1    3    3    0    0  0.94498541036E+00 -0.85306667118E+01 -0.80053369239E+01  0.11736724053E+02  0.51100000000E-03 0.  1.
        -12    1    3    3    0    0  0.27901359360E+02  0.29840306644E+02  0.86330392591E+01  0.41754749689E+02  0.00000000000E+00 0.  1.
</event>
<event>
 7    1  0.3925070E-015  0.9000752E+02  0.7816164E-02  0.1186339E+00
        -11   -1    0    0    0    0  0.00000000000E+00  0.00000000000E+00  0.45593999997E+02  0.45594000000E+02  0.51100000000E-03 0.  1.
         11   -1    0    0    0    0 -0.00000000000E+00 -0.00000000000E+00 -0.45593999997E+02  0.45594000000E+02  0.51100000000E-03 0. -1.
    9900012    2    1    2    0    0  0.73383243459E+00  0.88018309174E+00 -0.28337898515E+00  0.90007518756E+02  0.89999777204E+02 0.  0.
        -12    1    1    2    0    0 -0.73383243459E+00 -0.88018309174E+00  0.28337898515E+00  0.11804812435E+01  0.00000000000E+00 0.  1.
         11    1    3    3    0    0  0.75722320296E+01 -0.27912181146E+01  0.34872934442E+01  0.87915193397E+01  0.51100000000E-03 0. -1.
        -11    1    3    3    0    0 -0.11972172195E+02  0.45199250875E+01  0.37497529374E+02  0.39621046671E+02  0.51100000000E-03 0.  1.
         12    1    3    3    0    0  0.51337725999E+01 -0.84852388112E+00 -0.41268201803E+02  0.41594952746E+02  0.00000000000E+00 0. -1.
</event>
<event>
 7    1  0.3925070E-015  0.9000774E+02  0.7816164E-02  0.1186339E+00
        -11   -1    0    0    0    0  0.00000000000E+00  0.00000000000E+00  0.45593999997E+02  0.45594000000E+02  0.51100000000E-03 0. -1.
         11   -1    0    0    0    0 -0.00000000000E+00 -0.00000000000E+00 -0.45593999997E+02  0.45594000000E+02  0.51100000000E-03 0.  1.
    9900012    2    1    2    0    0  0.45289018850E+00  0.10766775030E+01 -0.16932391842E+00  0.90007739623E+02  0.90000000986E+02 0.  0.
        -12    1    1    2    0    0 -0.45289018850E+00 -0.10766775030E+01  0.16932391842E+00  0.11802603771E+01  0.00000000000E+00 0.  1.
         11    1    3    3    0    0 -0.84561343284E+01 -0.14853686327E+02  0.19037624894E+01  0.17197747444E+02  0.51100000000E-03 0. -1.
        -11    1    3    3    0    0 -0.19936810099E+02  0.31096151736E+02  0.96463826464E+01  0.38177215039E+02  0.51100000000E-03 0.  1.
         12    1    3    3    0    0  0.28845834616E+02 -0.15165787906E+02 -0.11719469054E+02  0.34632777140E+02  0.00000000000E+00 0. -1.
</event>
<event>
 7    1  0.3925070E-015  0.9000782E+02  0.7816164E-02  0.1186339E+00
        -11   -1    0    0    0    0  0.00000000000E+00  0.00000000000E+00  0.45593999997E+02  0.45594000000E+02  0.51100000000E-03 0. -1.
         11   -1    0    0    0    0 -0.00000000000E+00 -0.00000000000E+00 -0.45593999997E+02  0.45594000000E+02  0.51100000000E-03 0.  1.
    9900012    2    1    2    0    0 -0.21332944873E+00 -0.11553811998E+01  0.11142984297E+00  0.90007817056E+02  0.90000079441E+02 0.  0.
        -12    1    1    2    0    0  0.21332944873E+00  0.11553811998E+01 -0.11142984297E+00  0.11801829436E+01  0.00000000000E+00 0.  1.
         11    1    3    3    0    0 -0.10191880455E+01  0.81288805433E+01  0.55502114210E+01  0.98955692225E+01  0.51100000000E-03 0. -1.
        -11    1    3    3    0    0  0.17960952226E+02  0.20833792745E+02 -0.27604318145E+02  0.38969746028E+02  0.51100000000E-03 0.  1.
         12    1    3    3    0    0 -0.17155093629E+02 -0.30118054488E+02  0.22165536567E+02  0.41142501806E+02  0.00000000000E+00 0. -1.
</event>
<event>
 7    1  0.3925070E-015  0.9000772E+02  0.7816164E-02  0.1186339E+00
        -11   -1    0    0    0    0  0.00000000000E+00  0.00000000000E+00  0.45593999997E+02  0.45594000000E+02  0.51100000000E-03 0. -1.
         11   -1    0    0    0    0 -0.00000000000E+00 -0.00000000000E+00 -0.45593999997E+02  0.45594000000E+02  0.51100000000E-03 0.  1.
    9900012    2    1    2    0    0 -0.65591701291E+00  0.96299667997E+00 -0.18831452934E+00  0.90007723721E+02  0.89999984874E+02 0.  0.
        -12    1    1    2    0    0  0.65591701291E+00 -0.96299667997E+00  0.18831452934E+00  0.11802762793E+01  0.00000000000E+00 0.  1.
         11    1    3    3    0    0 -0.15267911489E+02  0.26293123792E+02  0.22196086749E+02  0.37644438463E+02  0.51100000000E-03 0. -1.
        -11    1    3    3    0    0  0.26689385204E+01 -0.22608333396E+01  0.10146748695E+02  0.10732712125E+02  0.51100000000E-03 0.  1.
        -12    1    3    3    0    0  0.11943055956E+02 -0.23069293773E+02 -0.32531149973E+02  0.41630573132E+02  0.00000000000E+00 0.  1.
</event>
<event>
 7    1  0.3925070E-015  0.9000775E+02  0.7816164E-02  0.1186339E+00
        -11   -1    0    0    0    0  0.00000000000E+00  0.00000000000E+00  0.45593999997E+02  0.45594000000E+02  0.51100000000E-03 0. -1.
         11   -1    0    0    0    0 -0.00000000000E+00 -0.00000000000E+00 -0.45593999997E+02  0.45594000000E+02  0.51100000000E-03 0.  1.
    9900012    2    1    2    0    0  0.36416920540E+00 -0.38356488750E+00  0.10551090440E+01  0.90007747346E+02  0.90000008811E+02 0.  0.
        -12    1    1    2    0    0 -0.36416920540E+00  0.38356488750E+00 -0.10551090440E+01  0.11802526542E+01  0.00000000000E+00 0.  1.
         11    1    3    3    0    0  0.82596409174E+01 -0.13072149395E+01 -0.84778346003E+01  0.11908155136E+02  0.51100000000E-03 0. -1.
        -11    1    3    3    0    0  0.12142941922E+02 -0.33729407286E+02  0.12486859616E+02  0.37961106645E+02  0.51100000000E-03 0.  1.
         12    1    3    3    0    0 -0.20038413634E+02  0.34653057338E+02 -0.29539159722E+01  0.40138485564E+02  0.00000000000E+00 0. -1.
</event>
<event>
 7    1  0.3925070E-015  0.9000771E+02  0.7816164E-02  0.1186339E+00
        -11   -1    0    0    0    0  0.00000000000E+00  0.00000000000E+00  0.45593999997E+02  0.45594000000E+02  0.51100000000E-03 0. -1.
         11   -1    0    0    0    0 -0.00000000000E+00 -0.00000000000E+00 -0.45593999997E+02  0.45594000000E+02  0.51100000000E-03 0.  1.
    9900012    2    1    2    0    0 -0.40224950017E+00 -0.41645963190E+00 -0.10285123124E+01  0.90007711534E+02  0.89999972527E+02 0.  0.
        -12    1    1    2    0    0  0.40224950017E+00  0.41645963190E+00  0.10285123124E+01  0.11802884657E+01  0.00000000000E+00 0.  1.
         11    1    3    3    0    0 -0.21433887749E+02  0.21632041484E+02 -0.19778399505E+02  0.36311731576E+02  0.51100000000E-03 0. -1.
        -11    1    3    3    0    0  0.49133464723E+00  0.10802794471E+02  0.38799640667E+00  0.10820920460E+02  0.51100000000E-03 0.  1.
        -12    1    3    3    0    0  0.20540303601E+02 -0.32851295587E+02  0.18361890786E+02  0.42875059499E+02  0.00000000000E+00 0.  1.
</event>
<event>
 7    1  0.3925070E-015  0.9000776E+02  0.7816164E-02  0.1186339E+00
        -11   -1    0    0    0    0  0.00000000000E+00  0.00000000000E+00  0.45593999997E+02  0.45594000000E+02  0.51100000000E-03 0.  1.
         11   -1    0    0    0    0 -0.00000000000E+00 -0.00000000000E+00 -0.45593999997E+02  0.45594000000E+02  0.51100000000E-03 0. -1.
    9900012    2    1    2    0    0 -0.73941942071E+00  0.91387184006E+00 -0.10514309572E+00  0.90007763629E+02  0.90000025309E+02 0.  0.
        -12    1    1    2    0    0  0.73941942071E+00 -0.91387184006E+00  0.10514309572E+00  0.11802363705E+01  0.00000000000E+00 0.  1.
         11    1    3    3    0    0 -0.61719862115E+01  0.68641212695E+01  0.38735160617E+01  0.10010679374E+02  0.51100000000E-03 0. -1.
        -11    1    3    3    0    0 -0.10933002876E+01 -0.36751909352E+02  0.18646043562E+02  0.41225878854E+02  0.51100000000E-03 0.  1.
         12    1    3    3    0    0  0.65258670783E+01  0.30801659923E+02 -0.22624702719E+02  0.38771205401E+02  0.00000000000E+00 0. -1.
</event>
<event>
 7    1  0.3925070E-015  0.9000773E+02  0.7816164E-02  0.1186339E+00
        -11   -1    0    0    0    0  0.00000000000E+00  0.00000000000E+00  0.45593999997E+02  0.45594000000E+02  0.51100000000E-03 0.  1.
         11   -1    0    0    0    0 -0.00000000000E+00 -0.00000000000E+00 -0.45593999997E+02  0.45594000000E+02  0.51100000000E-03 0. -1.
    9900012    2    1    2    0    0 -0.17670339407E-01 -0.10043393378E+01 -0.61969772206E+00  0.90007730957E+02  0.89999992206E+02 0.  0.
        -12    1    1    2    0    0  0.17670339407E-01  0.10043393378E+01  0.61969772206E+00  0.11802690427E+01  0.00000000000E+00 0.  1.
         11    1    3    3    0    0 -0.38163460363E+02 -0.11105520935E+02  0.11127944003E+02  0.41274852394E+02  0.51100000000E-03 0. -1.
        -11    1    3    3    0    0 -0.19134907459E+01  0.92269197181E+00 -0.70557243007E+01  0.73685855480E+01  0.51100000000E-03 0.  1.
        -12    1    3    3    0    0  0.40059280770E+02  0.91784896250E+01 -0.46919174246E+01  0.41364293016E+02  0.00000000000E+00 0.  1.
</event>
<event>
 7    1  0.3925070E-015  0.9000740E+02  0.7816164E-02  0.1186340E+00
        -11   -1    0    0    0    0  0.00000000000E+00  0.00000000000E+00  0.45593999997E+02  0.45594000000E+02  0.51100000000E-03 0.  1.
         11   -1    0    0    0    0 -0.00000000000E+00 -0.00000000000E+00 -0.45593999997E+02  0.45594000000E+02  0.51100000000E-03 0. -1.
    9900012    2    1    2    0    0  0.89503762500E+00  0.55518811378E-01 -0.76787503480E+00  0.90007404067E+02  0.89999661000E+02 0.  0.
        -12    1    1    2    0    0 -0.89503762500E+00 -0.55518811378E-01  0.76787503480E+00  0.11805959333E+01  0.00000000000E+00 0.  1.
         11    1    3    3    0    0  0.10611417541E+02  0.32830634601E+02 -0.13621987255E+02  0.37094626128E+02  0.51100000000E-03 0. -1.
        -11    1    3    3    0    0  0.17713571294E+01  0.80526026865E+01  0.53827868146E+01  0.98466496972E+01  0.51100000000E-03 0.  1.
        -12    1    3    3    0    0 -0.11487737045E+02 -0.40827718476E+02  0.74713254057E+01  0.43066128242E+02  0.00000000000E+00 0.  1.
</event>
<event>
 7    1  0.3925070E-015  0.9000776E+02  0.7816164E-02  0.1186339E+00
        -11   -1    0    0    0    0  0.00000000000E+00  0.00000000000E+00  0.45593999997E+02  0.45594000000E+02  0.51100000000E-03 0. -1.
         11   -1    0    0    0    0 -0.00000000000E+00 -0.00000000000E+00 -0.45593999997E+02  0.45594000000E+02  0.51100000000E-03 0.  1.
    9900012    2    1    2    0    0  0.14147513245E+00 -0.11543010130E+01  0.20136867360E+00  0.90007756218E+02  0.90000017800E+02 0.  0.
        -12    1    1    2    0    0 -0.14147513245E+00  0.11543010130E+01 -0.20136867360E+00  0.11802437818E+01  0.00000000000E+00 0.  1.
         11    1    3    3    0    0 -0.38163370301E+02 -0.97684588480E+01 -0.11540191601E+02  0.41049258744E+02  0.51100000000E-03 0. -1.
        -11    1    3    3    0    0  0.31225152641E+01  0.70912610954E+01 -0.57400387024E+01  0.96428279080E+01  0.51100000000E-03 0.  1.
        -12    1    3    3    0    0  0.35182330169E+02  0.15228967396E+01  0.17481598977E+02  0.39315669566E+02  0.00000000000E+00 0.  1.
</event>
<event>
 7    1  0.3925070E-015  0.9000773E+02  0.7816164E-02  0.1186339E+00
        -11   -1    0    0    0    0  0.00000000000E+00  0.00000000000E+00  0.45593999997E+02  0.45594000000E+02  0.51100000000E-03 0.  1.
         11   -1    0    0    0    0 -0.00000000000E+00 -0.00000000000E+00 -0.45593999997E+02  0.45594000000E+02  0.51100000000E-03 0. -1.
    9900012    2    1    2    0    0 -0.59984365641E+00 -0.90093208314E+00 -0.47068595035E+00  0.90007730415E+02  0.89999991656E+02 0.  0.
        -12    1    1    2    0    0  0.59984365641E+00  0.90093208314E+00  0.47068595035E+00  0.11802695855E+01  0.00000000000E+00 0.  1.
         11    1    3    3    0    0  0.33733855749E+00  0.44426722192E+01 -0.44137951451E+01  0.62715804702E+01  0.51100000000E-03 0. -1.
        -11    1    3    3    0    0  0.72082286168E+01  0.38436393986E+02  0.13641426066E+01  0.39130241856E+02  0.51100000000E-03 0.  1.
         12    1    3    3    0    0 -0.81454108307E+01 -0.43779998288E+02  0.25789665882E+01  0.44605908088E+02  0.00000000000E+00 0. -1.
</event>
<event>
 7    1  0.3925070E-015  0.9000771E+02  0.7816164E-02  0.1186339E+00
        -11   -1    0    0    0    0  0.00000000000E+00  0.00000000000E+00  0.45593999997E+02  0.45594000000E+02  0.51100000000E-03 0. -1.
         11   -1    0    0    0    0 -0.00000000000E+00 -0.00000000000E+00 -0.45593999997E+02  0.45594000000E+02  0.51100000000E-03 0.  1.
    9900012    2    1    2    0    0 -0.10467295032E+00  0.11679729195E+01 -0.13402019023E+00  0.90007712502E+02  0.89999973507E+02 0.  0.
        -12    1    1    2    0    0  0.10467295032E+00 -0.11679729195E+01  0.13402019023E+00  0.11802874983E+01  0.00000000000E+00 0.  1.
         11    1    3    3    0    0 -0.68554763269E+00 -0.46906911937E+01 -0.88162179874E+01  0.10009908056E+02  0.51100000000E-03 0. -1.
        -11    1    3    3    0    0  0.37128228751E+02 -0.85988449956E+01 -0.48766829832E+01  0.38421706660E+02  0.51100000000E-03 0.  1.
         12    1    3    3    0    0 -0.36547354069E+02  0.14457509109E+02  0.13558880780E+02  0.41576097786E+02  0.00000000000E+00 0. -1.
</event>
<event>
 7    1  0.3925070E-015  0.9000780E+02  0.7816164E-02  0.1186339E+00
        -11   -1    0    0    0    0  0.00000000000E+00  0.00000000000E+00  0.45593999997E+02  0.45594000000E+02  0.51100000000E-03 0.  1.
         11   -1    0    0    0    0 -0.00000000000E+00 -0.00000000000E+00 -0.45593999997E+02  0.45594000000E+02  0.51100000000E-03 0. -1.
    9900012    2    1    2    0    0  0.13462646261E+00  0.55271715085E+00 -0.10340422110E+01  0.90007803479E+02  0.90000065685E+02 0.  0.
        -12    1    1    2    0    0 -0.13462646261E+00 -0.55271715085E+00  0.10340422110E+01  0.11801965207E+01  0.00000000000E+00 0.  1.
         11    1    3    3    0    0  0.16833987775E+02  0.10955387351E+02 -0.29120048228E+02  0.35374862056E+02  0.51100000000E-03 0. -1.
        -11    1    3    3    0    0 -0.67434880730E+01 -0.97845185271E+01 -0.98329181208E+01  0.15423933131E+02  0.51100000000E-03 0.  1.
        -12    1    3    3    0    0 -0.99558732392E+01 -0.61815167346E+00  0.37918924138E+02  0.39209008292E+02  0.00000000000E+00 0.  1.
</event>
<event>
 7    1  0.3925070E-015  0.9000779E+02  0.7816164E-02  0.1186339E+00
        -11   -1    0    0    0    0  0.00000000000E+00  0.00000000000E+00  0.45593999997E+02  0.45594000000E+02  0.51100000000E-03 0.  1.
         11   -1    0    0    0    0 -0.00000000000E+00 -0.00000000000E+00 -0.45593999997E+02  0.45594000000E+02  0.51100000000E-03 0. -1.
    9900012    2    1    2    0    0 -0.18539870132E+00  0.39092567394E+00 -0.10980403135E+01  0.90007793200E+02  0.90000055270E+02 0.  0.
        -12    1    1    2    0    0  0.18539870132E+00 -0.39092567394E+00  0.10980403135E+01  0.11802068001E+01  0.00000000000E+00 0.  1.
         11    1    3    3    0    0 -0.45981171590E+01  0.57030472242E+00 -0.67507608959E+01  0.81878386537E+01  0.51100000000E-03 0. -1.
        -11    1    3    3    0    0  0.20169943882E+02 -0.35035635568E+02  0.13785446500E+02  0.42712538338E+02  0.51100000000E-03 0.  1.
         12    1    3    3    0    0 -0.15757225425E+02  0.34856256519E+02 -0.81327259172E+01  0.39107416208E+02  0.00000000000E+00 0. -1.
</event>
<event>
 7    1  0.3925070E-015  0.9000773E+02  0.7816164E-02  0.1186339E+00
        -11   -1    0    0    0    0  0.00000000000E+00  0.00000000000E+00  0.45593999997E+02  0.45594000000E+02  0.51100000000E-03 0. -1.
         11   -1    0    0    0    0 -0.00000000000E+00 -0.00000000000E+00 -0.45593999997E+02  0.45594000000E+02  0.51100000000E-03 0.  1.
    9900012    2    1    2    0    0  0.24016852181E+00  0.10165407069E+01 -0.54953814248E+00  0.90007733887E+02  0.89999995174E+02 0.  0.
        -12    1    1    2    0    0 -0.24016852181E+00 -0.10165407069E+01  0.54953814248E+00  0.11802661131E+01  0.00000000000E+00 0.  1.
         11    1    3    3    0    0  0.29405658423E+02 -0.14402520268E+01 -0.96105082563E+01  0.30969806948E+02  0.51100000000E-03 0. -1.
        -11    1    3    3    0    0 -0.27424318128E+01  0.31631716481E+01 -0.19604077703E+02  0.20046108101E+02  0.51100000000E-03 0.  1.
        -12    1    3    3    0    0 -0.26423058089E+02 -0.70637891445E+00  0.28665047817E+02  0.38991818838E+02  0.00000000000E+00 0.  1.
</event>
<event>
 7    1  0.3925070E-015  0.9000776E+02  0.7816164E-02  0.1186339E+00
        -11   -1    0    0    0    0  0.00000000000E+00  0.00000000000E+00  0.45593999997E+02  0.45594000000E+02  0.51100000000E-03 0.  1.
         11   -1    0    0    0    0 -0.00000000000E+00 -0.00000000000E+00 -0.45593999997E+02  0.45594000000E+02  0.51100000000E-03 0. -1.
    9900012    2    1    2    0    0 -0.46480486156E+00  0.10719249094E+01 -0.16704403449E+00  0.90007758381E+02  0.90000019991E+02 0.  0.
        -12    1    1    2    0    0  0.46480486156E+00 -0.10719249094E+01  0.16704403449E+00  0.11802416194E+01  0.00000000000E+00 0.  1.
         11    1    3    3    0    0 -0.20841337724E+02 -0.10131179647E+02 -0.10640223242E+02  0.25499343326E+02  0.51100000000E-03 0. -1.
        -11    1    3    3    0    0 -0.83309910610E+01  0.28510097029E+02  0.11918418085E+01  0.29726276791E+02  0.51100000000E-03 0.  1.
         12    1    3    3    0    0  0.28707523924E+02 -0.17306992473E+02  0.92813373987E+01  0.34782138264E+02  0.00000000000E+00 0. -1.
</event>
<event>
 7    1  0.3925070E-015  0.9000763E+02  0.7816164E-02  0.1186339E+00
        -11   -1    0    0    0    0  0.00000000000E+00  0.00000000000E+00  0.45593999997E+02  0.45594000000E+02  0.51100000000E-03 0. -1.
         11   -1    0    0    0    0 -0.00000000000E+00 -0.00000000000E+00 -0.45593999997E+02  0.45594000000E+02  0.51100000000E-03 0.  1.
    9900012    2    1    2    0    0  0.91753510332E+00 -0.69041850344E+00  0.27336162349E+00  0.90007629315E+02  0.89999889222E+02 0.  0.
        -12    1    1    2    0    0 -0.91753510332E+00  0.69041850344E+00 -0.27336162349E+00  0.11803706845E+01  0.00000000000E+00 0.  1.
         11    1    3    3    0    0 -0.18844615660E+01 -0.16850034065E+01 -0.89737352228E+01  0.93230014472E+01  0.51100000000E-03 0. -1.
        -11    1    3    3    0    0 -0.23837463770E+02  0.21627328967E+02 -0.18421309910E+02  0.37085181627E+02  0.51100000000E-03 0.  1.
         12    1    3    3    0    0  0.26639460439E+02 -0.20632744064E+02  0.27668406757E+02  0.43599446241E+02  0.00000000000E+00 0. -1.
</event>
<event>
 7    1  0.3925070E-015  0.9000783E+02  0.7816164E-02  0.1186339E+00
        -11   -1    0    0    0    0  0.00000000000E+00  0.00000000000E+00  0.45593999997E+02  0.45594000000E+02  0.51100000000E-03 0.  1.
         11   -1    0    0    0    0 -0.00000000000E+00 -0.00000000000E+00 -0.45593999997E+02  0.45594000000E+02  0.51100000000E-03 0. -1.
    9900012    2    1    2    0    0  0.61545637614E+00 -0.11616211811E+00 -0.10002659368E+01  0.90007825380E+02  0.90000087875E+02 0.  0.
        -12    1    1    2    0    0 -0.61545637614E+00  0.11616211811E+00  0.10002659368E+01  0.11801746197E+01  0.00000000000E+00 0.  1.
         11    1    3    3    0    0 -0.10797841080E+02 -0.21871962484E+02 -0.26832290615E+02  0.36262210837E+02  0.51100000000E-03 0. -1.
        -11    1    3    3    0    0 -0.11180940837E+02  0.23455037135E+01 -0.34925202427E+01  0.11946234703E+02  0.51100000000E-03 0.  1.
        -12    1    3    3    0    0  0.22594238293E+02  0.19410296653E+02  0.29324544921E+02  0.41799379840E+02  0.00000000000E+00 0.  1.
</event>
<event>
 7    1  0.3925070E-015  0.9000776E+02  0.7816164E-02  0.1186339E+00
        -11   -1    0    0    0    0  0.00000000000E+00  0.00000000000E+00  0.45593999997E+02  0.45594000000E+02  0.51100000000E-03 0. -1.
         11   -1    0    0    0    0 -0.00000000000E+00 -0.00000000000E+00 -0.45593999997E+02  0.45594000000E+02  0.51100000000E-03 0.  1.
    9900012    2    1    2    0    0  0.28169285265E+00 -0.11411477477E+01  0.10670429517E+00  0.90007764917E+02  0.90000026614E+02 0.  0.
        -12    1    1    2    0    0 -0.28169285265E+00  0.11411477477E+01 -0.10670429517E+00  0.11802350833E+01  0.00000000000E+00 0.  1.
         11    1    3    3    0    0  0.72518317171E+01 -0.57746821827E+01  0.10401137477E+00  0.92707516519E+01  0.51100000000E-03 0. -1.
        -11    1    3    3    0    0  0.16583434232E+02  0.14582455677E+02  0.32558481717E+02  0.39340984183E+02  0.51100000000E-03 0.  1.
         12    1    3    3    0    0 -0.23553573097E+02 -0.99489212418E+01 -0.32555788797E+02  0.41396029081E+02  0.00000000000E+00 0. -1.
</event>
<event>
 7    1  0.3925070E-015  0.9000771E+02  0.7816164E-02  0.1186339E+00
        -11   -1    0    0    0    0  0.00000000000E+00  0.00000000000E+00  0.45593999997E+02  0.45594000000E+02  0.51100000000E-03 0.  1.
         11   -1    0    0    0    0 -0.00000000000E+00 -0.00000000000E+00 -0.45593999997E+02  0.45594000000E+02  0.51100000000E-03 0. -1.
    9900012    2    1    2    0    0 -0.11151849354E+01 -0.37087639230E+00  0.10906212080E+00  0.90007711355E+02  0.89999972345E+02 0.  0.
        -12    1    1    2    0    0  0.11151849354E+01  0.37087639230E+00 -0.10906212080E+00  0.11802886446E+01  0.00000000000E+00 0.  1.
         11    1    3    3    0    0 -0.90075468464E+01 -0.80220949091E+01 -0.16221777479E+01  0.12170512225E+02  0.51100000000E-03 0. -1.
        -11    1    3    3    0    0 -0.76704925076E+01 -0.33183423538E+02 -0.75457017061E+00  0.34066778970E+02  0.51100000000E-03 0.  1.
         12    1    3    3    0    0  0.15562854419E+02  0.40834642055E+02  0.24858100393E+01  0.43770420160E+02  0.00000000000E+00 0. -1.
</event>
<event>
 7    1  0.3925070E-015  0.9000777E+02  0.7816164E-02  0.1186339E+00
        -11   -1    0    0    0    0  0.00000000000E+00  0.00000000000E+00  0.45593999997E+02  0.45594000000E+02  0.51100000000E-03 0.  1.
         11   -1    0    0    0    0 -0.00000000000E+00 -0.00000000000E+00 -0.45593999997E+02  0.45594000000E+02  0.51100000000E-03 0. -1.
    9900012    2    1    2    0    0 -0.69178216736E+00 -0.88502872751E+00 -0.36208463813E+00  0.90007769641E+02  0.90000031400E+02 0.  0.
        -12    1    1    2    0    0  0.69178216736E+00  0.88502872751E+00  0.36208463813E+00  0.11802303592E+01  0.00000000000E+00 0.  1.
         11    1    3    3    0    0 -0.41561366123E+02 -0.40497424870E+01 -0.38692881372E+01  0.41937083341E+02  0.51100000000E-03 0. -1.
        -11    1    3    3    0    0  0.26199057112E+01  0.87796891165E+01 -0.66630887798E+00  0.91864473383E+01  0.51100000000E-03 0.  1.
        -12    1    3    3    0    0  0.38249678244E+02 -0.56149753569E+01  0.41735123771E+01  0.38884238961E+02  0.00000000000E+00 0.  1.
</event>
<event>
 7    1  0.3925070E-015  0.9000769E+02  0.7816164E-02  0.1186339E+00
        -11   -1    0    0    0    0  0.00000000000E+00  0.00000000000E+00  0.45593999997E+02  0.45594000000E+02  0.51100000000E-03 0. -1.
         11   -1    0    0    0    0 -0.00000000000E+00 -0.00000000000E+00 -0.45593999997E+02  0.45594000000E+02  0.51100000000E-03 0.  1.
    9900012    2    1    2    0    0 -0.32140739334E+00 -0.10123469953E+01  0.51475889422E+00  0.90007692468E+02  0.89999953208E+02 0.  0.
        -12    1    1    2    0    0  0.32140739334E+00  0.10123469953E+01 -0.51475889422E+00  0.11803075322E+01  0.00000000000E+00 0.  1.
         11    1    3    3    0    0  0.25201198824E+02  0.79100083574E+01  0.26810851926E+02  0.37636291470E+02  0.51100000000E-03 0. -1.
        -11    1    3    3    0    0 -0.37589074706E+01 -0.58431671367E+01  0.86454468469E+01  0.11091246053E+02  0.51100000000E-03 0.  1.
        -12    1    3    3    0    0 -0.21763698747E+02 -0.30791882160E+01 -0.34941539878E+02  0.41280154945E+02  0.00000000000E+00 0.  1.
</event>
<event>
 7    1  0.3925070E-015  0.9000825E+02  0.7816164E-02  0.1186338E+00
        -11   -1    0    0    0    0  0.00000000000E+00  0.00000000000E+00  0.45593999997E+02  0.45594000000E+02  0.51100000000E-03 0.  1.
         11   -1    0    0    0    0 -0.00000000000E+00 -0.00000000000E+00 -0.45593999997E+02  0.45594000000E+02  0.51100000000E-03 0. -1.
    9900012    2    1    2    0    0 -0.61736348127E+00 -0.19475876017E+00  0.98627089270E+00  0.90008254724E+02  0.90000522885E+02 0.  0.
        -12    1    1    2    0    0  0.61736348127E+00  0.19475876017E+00 -0.98627089270E+00  0.11797452761E+01  0.00000000000E+00 0.  1.
         11    1    3    3    0    0 -0.14325767952E+02 -0.31345825661E+02  0.50028327379E+01  0.34825518653E+02  0.51100000000E-03 0. -1.
        -11    1    3    3    0    0  0.80236440929E+00 -0.10100406016E+02  0.45694738080E+01  0.11114948560E+02  0.51100000000E-03 0.  1.
        -12    1    3    3    0    0  0.12906040062E+02  0.41251472917E+02 -0.85860356532E+01  0.44067787511E+02  0.00000000000E+00 0.  1.
</event>
<event>
 7    1  0.3925070E-015  0.9000770E+02  0.7816164E-02  0.1186339E+00
        -11   -1    0    0    0    0  0.00000000000E+00  0.00000000000E+00  0.45593999997E+02  0.45594000000E+02  0.51100000000E-03 0.  1.
         11   -1    0    0    0    0 -0.00000000000E+00 -0.00000000000E+00 -0.45593999997E+02  0.45594000000E+02  0.51100000000E-03 0. -1.
    9900012    2    1    2    0    0 -0.51305603485E+00  0.82059058201E+00 -0.67565469467E+00  0.90007701451E+02  0.89999962310E+02 0.  0.
        -12    1    1    2    0    0  0.51305603485E+00 -0.82059058201E+00  0.67565469467E+00  0.11802985489E+01  0.00000000000E+00 0.  1.
         11    1    3    3    0    0  0.77942677870E+01  0.20310191061E+02  0.29571273872E+02  0.36711234111E+02  0.51100000000E-03 0. -1.
        -11    1    3    3    0    0  0.42921063796E+01 -0.18134139013E+01  0.80351478551E+01  0.92883932123E+01  0.51100000000E-03 0.  1.
        -12    1    3    3    0    0 -0.12599430202E+02 -0.17676186577E+02 -0.38282076422E+02  0.44008074128E+02  0.00000000000E+00 0.  1.
</event>
<event>
 7    1  0.3925070E-015  0.9000784E+02  0.7816164E-02  0.1186339E+00
        -11   -1    0    0    0    0  0.00000000000E+00  0.00000000000E+00  0.45593999997E+02  0.45594000000E+02  0.51100000000E-03 0.  1.
         11   -1    0    0    0    0 -0.00000000000E+00 -0.00000000000E+00 -0.45593999997E+02  0.45594000000E+02  0.51100000000E-03 0. -1.
    9900012    2    1    2    0    0 -0.36085738992E-01 -0.77023145633E+00 -0.89343138627E+00  0.90007839706E+02  0.90000102390E+02 0.  0.
        -12    1    1    2    0    0  0.36085738992E-01  0.77023145633E+00  0.89343138627E+00  0.11801602937E+01  0.00000000000E+00 0.  1.
         11    1    3    3    0    0  0.13005512542E+02 -0.36635861214E+02 -0.49547755521E+01  0.39190298346E+02  0.51100000000E-03 0. -1.
        -11    1    3    3    0    0 -0.44168983823E+01 -0.39062636968E+01  0.79921047210E+01  0.99318490484E+01  0.51100000000E-03 0.  1.
        -12    1    3    3    0    0 -0.86246998984E+01  0.39771893455E+02 -0.39307605552E+01  0.40885692312E+02  0.00000000000E+00 0.  1.
</event>
<event>
 7    1  0.3925070E-015  0.9000775E+02  0.7816164E-02  0.1186339E+00
        -11   -1    0    0    0    0  0.00000000000E+00  0.00000000000E+00  0.45593999997E+02  0.45594000000E+02  0.51100000000E-03 0.  1.
         11   -1    0    0    0    0 -0.00000000000E+00 -0.00000000000E+00 -0.45593999997E+02  0.45594000000E+02  0.51100000000E-03 0. -1.
    9900012    2    1    2    0    0 -0.94019728062E-02 -0.11264632968E+01  0.35211963574E+00  0.90007747402E+02  0.90000008868E+02 0.  0.
        -12    1    1    2    0    0  0.94019728062E-02  0.11264632968E+01 -0.35211963574E+00  0.11802525975E+01  0.00000000000E+00 0.  1.
         11    1    3    3    0    0  0.12760564461E+00  0.12260299827E+02 -0.39141651741E+01  0.12870583682E+02  0.51100000000E-03 0. -1.
        -11    1    3    3    0    0  0.24300504798E+01  0.29386055549E+02  0.14828236038E+02  0.33004878280E+02  0.51100000000E-03 0.  1.
         12    1    3    3    0    0 -0.25670580973E+01 -0.42772818672E+02 -0.10561951228E+02  0.44132285440E+02  0.00000000000E+00 0. -1.
</event>
<event>
 7    1  0.3925070E-015  0.9000771E+02  0.7816164E-02  0.1186339E+00
        -11   -1    0    0    0    0  0.00000000000E+00  0.00000000000E+00  0.45593999997E+02  0.45594000000E+02  0.51100000000E-03 0.  1.
         11   -1    0    0    0    0 -0.00000000000E+00 -0.00000000000E+00 -0.45593999997E+02  0.45594000000E+02  0.51100000000E-03 0. -1.
    9900012    2    1    2    0    0 -0.58560104421E-01  0.10637666365E+01 -0.50799599903E+00  0.90007708223E+02  0.89999969172E+02 0.  0.
        -12    1    1    2    0    0  0.58560104421E-01 -0.10637666365E+01  0.50799599903E+00  0.11802917765E+01  0.00000000000E+00 0.  1.
         11    1    3    3    0    0 -0.38027157559E+02 -0.33911175795E+01  0.30608641162E+01  0.38300565007E+02  0.51100000000E-03 0. -1.
        -11    1    3    3    0    0 -0.41867087639E+01 -0.67226682298E+01 -0.13892752943E+01  0.80407017421E+01  0.51100000000E-03 0.  1.
        -12    1    3    3    0    0  0.42155306218E+02  0.11177552446E+02 -0.21795848209E+01  0.43666441474E+02  0.00000000000E+00 0.  1.
</event>
<event>
 7    1  0.3925070E-015  0.9000773E+02  0.7816164E-02  0.1186339E+00
        -11   -1    0    0    0    0  0.00000000000E+00  0.00000000000E+00  0.45593999997E+02  0.45594000000E+02  0.51100000000E-03 0. -1.
         11   -1    0    0    0    0 -0.00000000000E+00 -0.00000000000E+00 -0.45593999997E+02  0.45594000000E+02  0.51100000000E-03 0.  1.
    9900012    2    1    2    0    0  0.26777034964E+00  0.81496207874E+00 -0.81066058127E+00  0.90007731078E+02  0.89999992328E+02 0.  0.
        -12    1    1    2    0    0 -0.26777034964E+00 -0.81496207874E+00  0.81066058127E+00  0.11802689219E+01  0.00000000000E+00 0.  1.
         11    1    3    3    0    0 -0.40778247740E+01 -0.46661843947E+01  0.20820168364E+02  0.21722829988E+02  0.51100000000E-03 0. -1.
        -11    1    3    3    0    0 -0.15139504419E+02  0.10825617271E+02  0.16667253157E+02  0.24983913053E+02  0.51100000000E-03 0.  1.
         12    1    3    3    0    0  0.19485099542E+02 -0.53444707979E+01 -0.38298082103E+02  0.43300988038E+02  0.00000000000E+00 0. -1.
</event>
<event>
 7    1  0.3925070E-015  0.9000769E+02  0.7816164E-02  0.1186339E+00
        -11   -1    0    0    0    0  0.00000000000E+00  0.00000000000E+00  0.45593999997E+02  0.45594000000E+02  0.51100000000E-03 0.  1.
         11   -1    0    0    0    0 -0.00000000000E+00 -0.00000000000E+00 -0.45593999997E+02  0.45594000000E+02  0.51100000000E-03 0. -1.
    9900012    2    1    2    0    0 -0.10713043077E+00 -0.42800489364E+00 -0.10947455131E+01  0.90007689508E+02  0.89999950210E+02 0.  0.
        -12    1    1    2    0    0  0.10713043077E+00  0.42800489364E+00  0.10947455131E+01  0.11803104916E+01  0.00000000000E+00 0.  1.
         11    1    3    3    0    0  0.31023729808E+02 -0.25578819083E+02  0.60330782011E+01  0.40658896072E+02  0.51100000000E-03 0. -1.
        -11    1    3    3    0    0 -0.64090980808E+00  0.81548674329E+00  0.75850987003E+01  0.76556845915E+01  0.51100000000E-03 0.  1.
        -12    1    3    3    0    0 -0.30489950431E+02  0.24335327447E+02 -0.14712922415E+02  0.41693108845E+02  0.00000000000E+00 0.  1.
</event>
<event>
 7    1  0.3925070E-015  0.9000770E+02  0.7816164E-02  0.1186339E+00
        -11   -1    0    0    0    0  0.00000000000E+00  0.00000000000E+00  0.45593999997E+02  0.45594000000E+02  0.51100000000E-03 0.  1.
         11   -1    0    0    0    0 -0.00000000000E+00 -0.00000000000E+00 -0.45593999997E+02  0.45594000000E+02  0.51100000000E-03 0. -1.
    9900012    2    1    2    0    0 -0.10559338438E+01  0.52474183335E+00 -0.52442622924E-01  0.90007703214E+02  0.89999964097E+02 0.  0.
        -12    1    1    2    0    0  0.10559338438E+01 -0.52474183335E+00  0.52442622924E-01  0.11802967859E+01  0.00000000000E+00 0.  1.
         11    1    3    3    0    0 -0.31114969006E+02  0.20976857864E+02  0.16382908174E+02  0.40945934384E+02  0.51100000000E-03 0. -1.
        -11    1    3    3    0    0 -0.40122186948E+01 -0.95789666491E+01 -0.25266410571E+01  0.10688237283E+02  0.51100000000E-03 0.  1.
        -12    1    3    3    0    0  0.34071253857E+02 -0.10873149381E+02 -0.13908709740E+02  0.38373531548E+02  0.00000000000E+00 0.  1.
</event>
<event>
 7    1  0.3925070E-015  0.9000771E+02  0.7816164E-02  0.1186339E+00
        -11   -1    0    0    0    0  0.00000000000E+00  0.00000000000E+00  0.45593999997E+02  0.45594000000E+02  0.51100000000E-03 0. -1.
         11   -1    0    0    0    0 -0.00000000000E+00 -0.00000000000E+00 -0.45593999997E+02  0.45594000000E+02  0.51100000000E-03 0.  1.
    9900012    2    1    2    0    0 -0.35627353520E+00 -0.11026083601E+01 -0.22450091623E+00  0.90007713302E+02  0.89999974318E+02 0.  0.
        -12    1    1    2    0    0  0.35627353520E+00  0.11026083601E+01  0.22450091623E+00  0.11802866978E+01  0.00000000000E+00 0.  1.
         11    1    3    3    0    0  0.27667388987E+01 -0.37456343048E+02 -0.21521678879E+02  0.43287586451E+02  0.51100000000E-03 0. -1.
        -11    1    3    3    0    0 -0.78441432403E+01  0.42344286151E+01  0.65576796863E+01  0.11066351341E+02  0.51100000000E-03 0.  1.
        -12    1    3    3    0    0  0.47211308063E+01  0.32119306073E+02  0.14739498277E+02  0.35653775511E+02  0.00000000000E+00 0.  1.
</event>
<event>
 7    1  0.3925070E-015  0.9000785E+02  0.7816164E-02  0.1186339E+00
        -11   -1    0    0    0    0  0.00000000000E+00  0.00000000000E+00  0.45593999997E+02  0.45594000000E+02  0.51100000000E-03 0. -1.
         11   -1    0    0    0    0 -0.00000000000E+00 -0.00000000000E+00 -0.45593999997E+02  0.45594000000E+02  0.51100000000E-03 0.  1.
    9900012    2    1    2    0    0  0.96689515962E+00  0.67659932149E+00 -0.88977244115E-02  0.90007850831E+02  0.90000113662E+02 0.  0.
        -12    1    1    2    0    0 -0.96689515962E+00 -0.67659932149E+00  0.88977244115E-02  0.11801491690E+01  0.00000000000E+00 0.  1.
         11    1    3    3    0    0 -0.93177864095E+01 -0.92878867869E+00  0.53379844794E+01  0.10778583884E+02  0.51100000000E-03 0. -1.
        -11    1    3    3    0    0  0.18086456885E+02  0.31812636128E+02  0.17496211508E+02  0.40562065498E+02  0.51100000000E-03 0.  1.
         12    1    3    3    0    0 -0.78017753156E+01 -0.30207248128E+02 -0.22843093712E+02  0.38667201449E+02  0.00000000000E+00 0. -1.
</event>
<event>
 7    1  0.3925070E-015  0.9000772E+02  0.7816164E-02  0.1186339E+00
        -11   -1    0    0    0    0  0.00000000000E+00  0.00000000000E+00  0.45593999997E+02  0.45594000000E+02  0.51100000000E-03 0.  1.
         11   -1    0    0    0    0 -0.00000000000E+00 -0.00000000000E+00 -0.45593999997E+02  0.45594000000E+02  0.51100000000E-03 0. -1.
    9900012    2    1    2    0    0 -0.31032328969E+00  0.10984570080E+01 -0.30024207081E+00  0.90007723065E+02  0.89999984209E+02 0.  0.
        -12    1    1    2    0    0  0.31032328969E+00 -0.10984570080E+01  0.30024207081E+00  0.11802769351E+01  0.00000000000E+00 0.  1.
         11    1    3    3    0    0 -0.79107771964E+01 -0.12231022591E+01 -0.89064774797E+01  0.11975045568E+02  0.51100000000E-03 0. -1.
        -11    1    3    3    0    0 -0.77810251372E+00 -0.34504107394E+02 -0.99985105782E+01  0.35932006410E+02  0.51100000000E-03 0.  1.
         12    1    3    3    0    0  0.83785564204E+01  0.36825666661E+02  0.18604745987E+02  0.42100671087E+02  0.00000000000E+00 0. -1.
</event>
<event>
 7    1  0.3925070E-015  0.9000773E+02  0.7816164E-02  0.1186339E+00
        -11   -1    0    0    0    0  0.00000000000E+00  0.00000000000E+00  0.45593999997E+02  0.45594000000E+02  0.51100000000E-03 0.  1.
         11   -1    0    0    0    0 -0.00000000000E+00 -0.00000000000E+00 -0.45593999997E+02  0.45594000000E+02  0.51100000000E-03 0. -1.
    9900012    2    1    2    0    0 -0.81339709301E+00 -0.57208413717E+00 -0.63572613913E+00  0.90007727652E+02  0.89999988857E+02 0.  0.
        -12    1    1    2    0    0  0.81339709301E+00  0.57208413717E+00  0.63572613913E+00  0.11802723478E+01  0.00000000000E+00 0.  1.
         11    1    3    3    0    0 -0.34559703722E+02  0.84238939816E+01 -0.15970176100E+02  0.38992071451E+02  0.51100000000E-03 0. -1.
        -11    1    3    3    0    0 -0.13681035925E+01  0.71907655894E+01  0.93739790303E+01  0.11893288037E+02  0.51100000000E-03 0.  1.
        -12    1    3    3    0    0  0.35114410221E+02 -0.16186743708E+02  0.59604709306E+01  0.39122368164E+02  0.00000000000E+00 0.  1.
</event>
<event>
 7    1  0.3925070E-015  0.9000780E+02  0.7816164E-02  0.1186339E+00
        -11   -1    0    0    0    0  0.00000000000E+00  0.00000000000E+00  0.45593999997E+02  0.45594000000E+02  0.51100000000E-03 0.  1.
         11   -1    0    0    0    0 -0.00000000000E+00 -0.00000000000E+00 -0.45593999997E+02  0.45594000000E+02  0.51100000000E-03 0. -1.
    9900012    2    1    2    0    0  0.53395697299E+00 -0.75675551265E+00  0.73149935604E+00  0.90007796516E+02  0.90000058630E+02 0.  0.
        -12    1    1    2    0    0 -0.53395697299E+00  0.75675551265E+00 -0.73149935604E+00  0.11802034836E+01  0.00000000000E+00 0.  1.
         11    1    3    3    0    0 -0.43329425293E+01 -0.22507022894E+02 -0.14612993942E+02  0.27182348366E+02  0.51100000000E-03 0. -1.
        -11    1    3    3    0    0  0.30814722745E+02  0.99768680559E+01  0.92880862889E+01  0.33695008254E+02  0.51100000000E-03 0.  1.
         12    1    3    3    0    0 -0.25947823243E+02  0.11773399325E+02  0.60564070091E+01  0.29130439896E+02  0.00000000000E+00 0. -1.
</event>
<event>
 7    1  0.3925070E-015  0.9000773E+02  0.7816164E-02  0.1186339E+00
        -11   -1    0    0    0    0  0.00000000000E+00  0.00000000000E+00  0.45593999997E+02  0.45594000000E+02  0.51100000000E-03 0.  1.
         11   -1    0    0    0    0 -0.00000000000E+00 -0.00000000000E+00 -0.45593999997E+02  0.45594000000E+02  0.51100000000E-03 0. -1.
    9900012    2    1    2    0    0 -0.38010235055E+00 -0.86879008269E+00 -0.70268260602E+00  0.90007730179E+02  0.89999991418E+02 0.  0.
        -12    1    1    2    0    0  0.38010235055E+00  0.86879008269E+00  0.70268260602E+00  0.11802698206E+01  0.00000000000E+00 0.  1.
         11    1    3    3    0    0  0.29102591482E+02  0.15612614181E+02 -0.14034488691E+02  0.35884278252E+02  0.51100000000E-03 0. -1.
        -11    1    3    3    0    0  0.15120907278E+01  0.81005635110E+01 -0.59020443159E+01  0.10136058156E+02  0.51100000000E-03 0.  1.
        -12    1    3    3    0    0 -0.30994784561E+02 -0.24581967775E+02  0.19233850401E+02  0.43987393772E+02  0.00000000000E+00 0.  1.
</event>
<event>
 7    1  0.3925070E-015  0.9000776E+02  0.7816164E-02  0.1186339E+00
        -11   -1    0    0    0    0  0.00000000000E+00  0.00000000000E+00  0.45593999997E+02  0.45594000000E+02  0.51100000000E-03 0.  1.
         11   -1    0    0    0    0 -0.00000000000E+00 -0.00000000000E+00 -0.45593999997E+02  0.45594000000E+02  0.51100000000E-03 0. -1.
    9900012    2    1    2    0    0 -0.18406601266E+00 -0.97624129753E+00 -0.63721162712E+00  0.90007760183E+02  0.90000021817E+02 0.  0.
        -12    1    1    2    0    0  0.18406601266E+00  0.97624129753E+00  0.63721162712E+00  0.11802398171E+01  0.00000000000E+00 0.  1.
         11    1    3    3    0    0 -0.71966258430E+01  0.34331560569E+02  0.75514894687E+01  0.35881366586E+02  0.51100000000E-03 0. -1.
        -11    1    3    3    0    0 -0.13746710002E+01 -0.30266769410E+01  0.13788634336E+02  0.14183685374E+02  0.51100000000E-03 0.  1.
        -12    1    3    3    0    0  0.83872308305E+01 -0.32281124926E+02 -0.21977335432E+02  0.39942708223E+02  0.00000000000E+00 0.  1.
</event>
<event>
 7    1  0.3925070E-015  0.9000773E+02  0.7816164E-02  0.1186339E+00
        -11   -1    0    0    0    0  0.00000000000E+00  0.00000000000E+00  0.45593999997E+02  0.45594000000E+02  0.51100000000E-03 0. -1.
         11   -1    0    0    0    0 -0.00000000000E+00 -0.00000000000E+00 -0.45593999997E+02  0.45594000000E+02  0.51100000000E-03 0.  1.
    9900012    2    1    2    0    0  0.59475369649E+00  0.96954056560E+00  0.31509980348E+00  0.90007733609E+02  0.89999994893E+02 0.  0.
        -12    1    1    2    0    0 -0.59475369649E+00 -0.96954056560E+00 -0.31509980348E+00  0.11802663911E+01  0.00000000000E+00 0.  1.
         11    1    3    3    0    0  0.10411683511E+02 -0.25049028602E+02  0.31150635361E+02  0.41306404723E+02  0.51100000000E-03 0. -1.
        -11    1    3    3    0    0  0.77286548690E+01  0.23235776050E+01 -0.84286802058E+01  0.11669351706E+02  0.51100000000E-03 0.  1.
        -12    1    3    3    0    0 -0.17545584684E+02  0.23694991563E+02 -0.22406855352E+02  0.37031977180E+02  0.00000000000E+00 0.  1.
</event>
<event>
 7    1  0.3925070E-015  0.9000775E+02  0.7816164E-02  0.1186339E+00
        -11   -1    0    0    0    0  0.00000000000E+00  0.00000000000E+00  0.45593999997E+02  0.45594000000E+02  0.51100000000E-03 0. -1.
         11   -1    0    0    0    0 -0.00000000000E+00 -0.00000000000E+00 -0.45593999997E+02  0.45594000000E+02  0.51100000000E-03 0.  1.
    9900012    2    1    2    0    0  0.24722872503E+00 -0.97661378635E+00  0.61488454236E+00  0.90007754462E+02  0.90000016021E+02 0.  0.
        -12    1    1    2    0    0 -0.24722872503E+00  0.97661378635E+00 -0.61488454236E+00  0.11802455383E+01  0.00000000000E+00 0.  1.
         11    1    3    3    0    0 -0.30792951319E+02 -0.13125288981E+02 -0.92985866365E+01  0.34741081956E+02  0.51100000000E-03 0. -1.
        -11    1    3    3    0    0 -0.61118297772E+01  0.21204489885E+01 -0.10021372262E+02  0.11928062265E+02  0.51100000000E-03 0.  1.
        -12    1    3    3    0    0  0.37152009821E+02  0.10028226207E+02  0.19934843440E+02  0.43338610241E+02  0.00000000000E+00 0.  1.
</event>
<event>
 7    1  0.3925070E-015  0.9000777E+02  0.7816164E-02  0.1186339E+00
        -11   -1    0    0    0    0  0.00000000000E+00  0.00000000000E+00  0.45593999997E+02  0.45594000000E+02  0.51100000000E-03 0.  1.
         11   -1    0    0    0    0 -0.00000000000E+00 -0.00000000000E+00 -0.45593999997E+02  0.45594000000E+02  0.51100000000E-03 0. -1.
    9900012    2    1    2    0    0 -0.83223952647E+00  0.52190681788E+00 -0.65416441558E+00  0.90007771023E+02  0.90000032800E+02 0.  0.
        -12    1    1    2    0    0  0.83223952647E+00 -0.52190681788E+00  0.65416441558E+00  0.11802289772E+01  0.00000000000E+00 0.  1.
         11    1    3    3    0    0  0.42167994040E+01 -0.97718506739E+01  0.23153215134E+01  0.10891794011E+02  0.51100000000E-03 0. -1.
        -11    1    3    3    0    0  0.22970829951E+02 -0.24214058965E+01  0.27431397166E+02  0.35860894940E+02  0.51100000000E-03 0.  1.
         12    1    3    3    0    0 -0.28019868882E+02  0.12715163388E+02 -0.30400883095E+02  0.43255082072E+02  0.00000000000E+00 0. -1.
</event>
<event>
 7    1  0.3925070E-015  0.9000812E+02  0.7816164E-02  0.1186338E+00
        -11   -1    0    0    0    0  0.00000000000E+00  0.00000000000E+00  0.45593999997E+02  0.45594000000E+02  0.51100000000E-03 0.  1.
         11   -1    0    0    0    0 -0.00000000000E+00 -0.00000000000E+00 -0.45593999997E+02  0.45594000000E+02  0.51100000000E-03 0. -1.
    9900012    2    1    2    0    0 -0.48989500956E+00 -0.21564935904E+00 -0.10514806723E+01  0.90008121459E+02  0.90000387862E+02 0.  0.
        -12    1    1    2    0    0  0.48989500956E+00  0.21564935904E+00  0.10514806723E+01  0.11798785406E+01  0.00000000000E+00 0.  1.
         11    1    3    3    0    0  0.22793038931E+02 -0.22202731348E+02 -0.21867796450E+02  0.38609382602E+02  0.51100000000E-03 0. -1.
        -11    1    3    3    0    0 -0.10554777836E+02  0.66371181919E+01 -0.91070212010E+01  0.15439964653E+02  0.51100000000E-03 0.  1.
        -12    1    3    3    0    0 -0.12728156105E+02  0.15349963797E+02  0.29923336978E+02  0.35958774205E+02  0.00000000000E+00 0.  1.
</event>
<event>
 7    1  0.3925070E-015  0.9000776E+02  0.7816164E-02  0.1186339E+00
        -11   -1    0    0    0    0  0.00000000000E+00  0.00000000000E+00  0.45593999997E+02  0.45594000000E+02  0.51100000000E-03 0.  1.
         11   -1    0    0    0    0 -0.00000000000E+00 -0.00000000000E+00 -0.45593999997E+02  0.45594000000E+02  0.51100000000E-03 0. -1.
    9900012    2    1    2    0    0  0.39362351971E+00 -0.64627502494E+00 -0.90573372107E+00  0.90007760848E+02  0.90000022491E+02 0.  0.
        -12    1    1    2    0    0 -0.39362351971E+00  0.64627502494E+00  0.90573372107E+00  0.11802391523E+01  0.00000000000E+00 0.  1.
         11    1    3    3    0    0 -0.86295753433E+01 -0.78695937846E+01 -0.32384534475E+02  0.34426125986E+02  0.51100000000E-03 0. -1.
        -11    1    3    3    0    0 -0.13799352082E+01 -0.29449430587E+01 -0.10585030234E+02  0.11073381422E+02  0.51100000000E-03 0.  1.
        -12    1    3    3    0    0  0.10403134071E+02  0.10168261818E+02  0.42063830988E+02  0.44508253440E+02  0.00000000000E+00 0.  1.
</event>
<event>
 7    1  0.3925070E-015  0.9000777E+02  0.7816164E-02  0.1186339E+00
        -11   -1    0    0    0    0  0.00000000000E+00  0.00000000000E+00  0.45593999997E+02  0.45594000000E+02  0.51100000000E-03 0.  1.
         11   -1    0    0    0    0 -0.00000000000E+00 -0.00000000000E+00 -0.45593999997E+02  0.45594000000E+02  0.51100000000E-03 0. -1.
    9900012    2    1    2    0    0 -0.76130807933E-01 -0.92839844198E+00 -0.72472877786E+00  0.90007766392E+02  0.90000028109E+02 0.  0.
        -12    1    1    2    0    0  0.76130807933E-01  0.92839844198E+00  0.72472877786E+00  0.11802336076E+01  0.00000000000E+00 0.  1.
         11    1    3    3    0    0  0.27560287453E+02  0.17918124784E+02  0.14827836592E+02  0.36062354035E+02  0.51100000000E-03 0. -1.
        -11    1    3    3    0    0  0.73518318793E+01  0.53382049198E+01 -0.35130553571E+01  0.97410175008E+01  0.51100000000E-03 0.  1.
        -12    1    3    3    0    0 -0.34988250140E+02 -0.24184728145E+02 -0.12039510013E+02  0.44204394857E+02  0.00000000000E+00 0.  1.
</event>
<event>
 7    1  0.3925070E-015  0.9000770E+02  0.7816164E-02  0.1186339E+00
        -11   -1    0    0    0    0  0.00000000000E+00  0.00000000000E+00  0.45593999997E+02  0.45594000000E+02  0.51100000000E-03 0. -1.
         11   -1    0    0    0    0 -0.00000000000E+00 -0.00000000000E+00 -0.45593999997E+02  0.45594000000E+02  0.51100000000E-03 0.  1.
    9900012    2    1    2    0    0  0.34705282561E+00 -0.26632067850E+00  0.10962324397E+01  0.90007704304E+02  0.89999965201E+02 0.  0.
        -12    1    1    2    0    0 -0.34705282561E+00  0.26632067850E+00 -0.10962324397E+01  0.11802956958E+01  0.00000000000E+00 0.  1.
         11    1    3    3    0    0 -0.69038240368E+01 -0.15004938680E+02  0.37450761544E+02  0.40931290129E+02  0.51100000000E-03 0. -1.
        -11    1    3    3    0    0  0.55640552964E+01  0.77385374197E+01  0.22606717840E+01  0.97956270812E+01  0.51100000000E-03 0.  1.
        -12    1    3    3    0    0  0.16868215661E+01  0.70000805815E+01 -0.38615200888E+02  0.39280787095E+02  0.00000000000E+00 0.  1.
</event>
<event>
 7    1  0.3925070E-015  0.9000754E+02  0.7816164E-02  0.1186339E+00
        -11   -1    0    0    0    0  0.00000000000E+00  0.00000000000E+00  0.45593999997E+02  0.45594000000E+02  0.51100000000E-03 0.  1.
         11   -1    0    0    0    0 -0.00000000000E+00 -0.00000000000E+00 -0.45593999997E+02  0.45594000000E+02  0.51100000000E-03 0. -1.
    9900012    2    1    2    0    0  0.62705605384E+00  0.87787437066E+00 -0.47920229314E+00  0.90007535031E+02  0.89999793693E+02 0.  0.
        -12    1    1    2    0    0 -0.62705605384E+00 -0.87787437066E+00  0.47920229314E+00  0.11804649690E+01  0.00000000000E+00 0.  1.
         11    1    3    3    0    0 -0.21888026422E+02  0.32475625328E+02 -0.14437654554E+02  0.41739643151E+02  0.51100000000E-03 0. -1.
        -11    1    3    3    0    0 -0.47991047808E+01 -0.85961793810E+01 -0.21858861336E+00  0.98475117614E+01  0.51100000000E-03 0.  1.
        -12    1    3    3    0    0  0.27314187257E+02 -0.23001571576E+02  0.14177040874E+02  0.38420380118E+02  0.00000000000E+00 0.  1.
</event>
<event>
 7    1  0.3925070E-015  0.9000775E+02  0.7816164E-02  0.1186339E+00
        -11   -1    0    0    0    0  0.00000000000E+00  0.00000000000E+00  0.45593999997E+02  0.45594000000E+02  0.51100000000E-03 0.  1.
         11   -1    0    0    0    0 -0.00000000000E+00 -0.00000000000E+00 -0.45593999997E+02  0.45594000000E+02  0.51100000000E-03 0. -1.
    9900012    2    1    2    0    0  0.82760805795E+00 -0.82735433602E+00 -0.15342044120E+00  0.90007750820E+02  0.90000012331E+02 0.  0.
        -12    1    1    2    0    0 -0.82760805795E+00  0.82735433602E+00  0.15342044120E+00  0.11802491799E+01  0.00000000000E+00 0.  1.
         11    1    3    3    0    0  0.33337208226E+01 -0.99018554502E+01 -0.13849700131E+00  0.10448905089E+02  0.51100000000E-03 0. -1.
        -11    1    3    3    0    0  0.26344688006E+02 -0.57742117154E+01  0.26383598658E+02  0.37729012517E+02  0.51100000000E-03 0.  1.
         12    1    3    3    0    0 -0.28850800771E+02  0.14848712830E+02 -0.26398522098E+02  0.41829833215E+02  0.00000000000E+00 0. -1.
</event>
<event>
 7    1  0.3925070E-015  0.9000776E+02  0.7816164E-02  0.1186339E+00
        -11   -1    0    0    0    0  0.00000000000E+00  0.00000000000E+00  0.45593999997E+02  0.45594000000E+02  0.51100000000E-03 0.  1.
         11   -1    0    0    0    0 -0.00000000000E+00 -0.00000000000E+00 -0.45593999997E+02  0.45594000000E+02  0.51100000000E-03 0. -1.
    9900012    2    1    2    0    0 -0.81370914602E+00  0.77787498653E+00 -0.35463021386E+00  0.90007756526E+02  0.90000018112E+02 0.  0.
        -12    1    1    2    0    0  0.81370914602E+00 -0.77787498653E+00  0.35463021386E+00  0.11802434739E+01  0.00000000000E+00 0.  1.
         11    1    3    3    0    0  0.23509961201E+02  0.26373344359E+02 -0.93864393189E+01  0.36556487956E+02  0.51100000000E-03 0. -1.
        -11    1    3    3    0    0  0.42736428707E+01  0.18982763670E+01 -0.87941532006E+01  0.99601509692E+01  0.51100000000E-03 0.  1.
        -12    1    3    3    0    0 -0.28597313218E+02 -0.27493745739E+02  0.17825962306E+02  0.43491117601E+02  0.00000000000E+00 0.  1.
</event>
<event>
 7    1  0.3925070E-015  0.9000784E+02  0.7816164E-02  0.1186339E+00
        -11   -1    0    0    0    0  0.00000000000E+00  0.00000000000E+00  0.45593999997E+02  0.45594000000E+02  0.51100000000E-03 0.  1.
         11   -1    0    0    0    0 -0.00000000000E+00 -0.00000000000E+00 -0.45593999997E+02  0.45594000000E+02  0.51100000000E-03 0. -1.
    9900012    2    1    2    0    0  0.29806874947E+00 -0.29881457155E-01 -0.11415044317E+01  0.90007843126E+02  0.90000105855E+02 0.  0.
        -12    1    1    2    0    0 -0.29806874947E+00  0.29881457155E-01  0.11415044317E+01  0.11801568745E+01  0.00000000000E+00 0.  1.
         11    1    3    3    0    0 -0.23549100444E+02 -0.18434197824E+01 -0.53476028674E+00  0.23627194015E+02  0.51100000000E-03 0. -1.
        -11    1    3    3    0    0 -0.20438186386E+02 -0.46941861281E+01  0.41186187024E+01  0.21370958482E+02  0.51100000000E-03 0.  1.
        -12    1    3    3    0    0  0.44285355580E+02  0.65077244534E+01 -0.47253628473E+01  0.45009690628E+02  0.00000000000E+00 0.  1.
</event>
<event>
 7    1  0.3925070E-015  0.9000770E+02  0.7816164E-02  0.1186339E+00
        -11   -1    0    0    0    0  0.00000000000E+00  0.00000000000E+00  0.45593999997E+02  0.45594000000E+02  0.51100000000E-03 0. -1.
         11   -1    0    0    0    0 -0.00000000000E+00 -0.00000000000E+00 -0.45593999997E+02  0.45594000000E+02  0.51100000000E-03 0.  1.
    9900012    2    1    2    0    0 -0.27092329854E-01  0.19079906688E+00  0.11644643392E+01  0.90007696871E+02  0.89999957670E+02 0.  0.
        -12    1    1    2    0    0  0.27092329854E-01 -0.19079906688E+00 -0.11644643392E+01  0.11803031287E+01  0.00000000000E+00 0.  1.
         11    1    3    3    0    0  0.63783479359E+01  0.23087452071E+01  0.68147910131E+01  0.96153524967E+01  0.51100000000E-03 0. -1.
        -11    1    3    3    0    0  0.26337108299E+02 -0.27910885981E+02 -0.36455653374E+00  0.38376994821E+02  0.51100000000E-03 0.  1.
         12    1    3    3    0    0 -0.32742548565E+02  0.25792939841E+02 -0.52857701401E+01  0.42015349553E+02  0.00000000000E+00 0. -1.
</event>
<event>
 7    1  0.3925070E-015  0.9000766E+02  0.7816164E-02  0.1186339E+00
        -11   -1    0    0    0    0  0.00000000000E+00  0.00000000000E+00  0.45593999997E+02  0.45594000000E+02  0.51100000000E-03 0.  1.
         11   -1    0    0    0    0 -0.00000000000E+00 -0.00000000000E+00 -0.45593999997E+02  0.45594000000E+02  0.51100000000E-03 0. -1.
    9900012    2    1    2    0    0 -0.13763633561E+00 -0.22412084113E+00 -0.11506608980E+01  0.90007663432E+02  0.89999923789E+02 0.  0.
        -12    1    1    2    0    0  0.13763633561E+00  0.22412084113E+00  0.11506608980E+01  0.11803365683E+01  0.00000000000E+00 0.  1.
         11    1    3    3    0    0 -0.35848633110E+01 -0.64354212195E+01  0.57697631810E+01  0.93571394484E+01  0.51100000000E-03 0. -1.
        -11    1    3    3    0    0 -0.11875247932E+02 -0.27288461984E+01  0.33963855275E+02  0.36083397573E+02  0.51100000000E-03 0.  1.
         12    1    3    3    0    0  0.15322474908E+02  0.89401465768E+01 -0.40884279354E+02  0.44567126410E+02  0.00000000000E+00 0. -1.
</event>
<event>
 7    1  0.3925070E-015  0.9000771E+02  0.7816164E-02  0.1186339E+00
        -11   -1    0    0    0    0  0.00000000000E+00  0.00000000000E+00  0.45593999997E+02  0.45594000000E+02  0.51100000000E-03 0.  1.
         11   -1    0    0    0    0 -0.00000000000E+00 -0.00000000000E+00 -0.45593999997E+02  0.45594000000E+02  0.51100000000E-03 0. -1.
    9900012    2    1    2    0    0 -0.11053314538E+01 -0.32113654840E+00 -0.26116644085E+00  0.90007705878E+02  0.89999966795E+02 0.  0.
        -12    1    1    2    0    0  0.11053314538E+01  0.32113654840E+00  0.26116644085E+00  0.11802941223E+01  0.00000000000E+00 0.  1.
         11    1    3    3    0    0 -0.88899215057E+00  0.54506642397E+01 -0.19993517780E+02  0.20742246772E+02  0.51100000000E-03 0. -1.
        -11    1    3    3    0    0 -0.93145204773E+01 -0.81424769131E+01 -0.22673841141E+02  0.25829504338E+02  0.51100000000E-03 0.  1.
        -12    1    3    3    0    0  0.90981811741E+01  0.23706761250E+01  0.42406192479E+02  0.43435954768E+02  0.00000000000E+00 0.  1.
</event>
<event>
 7    1  0.3925070E-015  0.9000773E+02  0.7816164E-02  0.1186339E+00
        -11   -1    0    0    0    0  0.00000000000E+00  0.00000000000E+00  0.45593999997E+02  0.45594000000E+02  0.51100000000E-03 0. -1.
         11   -1    0    0    0    0 -0.00000000000E+00 -0.00000000000E+00 -0.45593999997E+02  0.45594000000E+02  0.51100000000E-03 0.  1.
    9900012    2    1    2    0    0  0.24723663289E+00  0.10377434978E+01  0.50497104861E+00  0.90007731692E+02  0.89999992950E+02 0.  0.
        -12    1    1    2    0    0 -0.24723663289E+00 -0.10377434978E+01 -0.50497104861E+00  0.11802683084E+01  0.00000000000E+00 0.  1.
         11    1    3    3    0    0 -0.46030770878E+00  0.88518119547E+01 -0.33165821121E+00  0.88699749435E+01  0.51100000000E-03 0. -1.
        -11    1    3    3    0    0 -0.55822903515E+01  0.44475525875E+01 -0.38656212014E+02  0.39309609730E+02  0.51100000000E-03 0.  1.
         12    1    3    3    0    0  0.62898346932E+01 -0.12261621044E+02  0.39492841274E+02  0.41828147018E+02  0.00000000000E+00 0. -1.
</event>
<event>
 7    1  0.3925070E-015  0.9000776E+02  0.7816164E-02  0.1186339E+00
        -11   -1    0    0    0    0  0.00000000000E+00  0.00000000000E+00  0.45593999997E+02  0.45594000000E+02  0.51100000000E-03 0. -1.
         11   -1    0    0    0    0 -0.00000000000E+00 -0.00000000000E+00 -0.45593999997E+02  0.45594000000E+02  0.51100000000E-03 0.  1.
    9900012    2    1    2    0    0  0.16606902155E+00 -0.10875810815E+01  0.42725327704E+00  0.90007764053E+02  0.90000025738E+02 0.  0.
        -12    1    1    2    0    0 -0.16606902155E+00  0.10875810815E+01 -0.42725327704E+00  0.11802359474E+01  0.00000000000E+00 0.  1.
         11    1    3    3    0    0  0.19499949006E+02 -0.29479583432E+02  0.21495045236E+02  0.41368234438E+02  0.51100000000E-03 0. -1.
        -11    1    3    3    0    0 -0.45236044963E+01  0.26199542103E+01  0.63334548324E+01  0.82121743819E+01  0.51100000000E-03 0.  1.
        -12    1    3    3    0    0 -0.14810275488E+02  0.25772048140E+02 -0.27401246791E+02  0.40427355233E+02  0.00000000000E+00 0.  1.
</event>
<event>
 7    1  0.3925070E-015  0.9000775E+02  0.7816164E-02  0.1186339E+00
        -11   -1    0    0    0    0  0.00000000000E+00  0.00000000000E+00  0.45593999997E+02  0.45594000000E+02  0.51100000000E-03 0. -1.
         11   -1    0    0    0    0 -0.00000000000E+00 -0.00000000000E+00 -0.45593999997E+02  0.45594000000E+02  0.51100000000E-03 0.  1.
    9900012    2    1    2    0    0  0.11000885682E+01  0.36522384878E+00 -0.22225384802E+00  0.90007754225E+02  0.90000015780E+02 0.  0.
        -12    1    1    2    0    0 -0.11000885682E+01 -0.36522384878E+00  0.22225384802E+00  0.11802457755E+01  0.00000000000E+00 0.  1.
         11    1    3    3    0    0 -0.83347674525E+01 -0.37443269601E+02  0.16005164137E+02  0.41564793590E+02  0.51100000000E-03 0. -1.
        -11    1    3    3    0    0  0.39359671834E+00 -0.22783752058E+00 -0.85971967133E+01  0.86092171480E+01  0.51100000000E-03 0.  1.
        -12    1    3    3    0    0  0.90412593023E+01  0.38036330970E+02 -0.76302212718E+01  0.39833743486E+02  0.00000000000E+00 0.  1.
</event>
<event>
 7    1  0.3925070E-015  0.9000778E+02  0.7816164E-02  0.1186339E+00
        -11   -1    0    0    0    0  0.00000000000E+00  0.00000000000E+00  0.45593999997E+02  0.45594000000E+02  0.51100000000E-03 0. -1.
         11   -1    0    0    0    0 -0.00000000000E+00 -0.00000000000E+00 -0.45593999997E+02  0.45594000000E+02  0.51100000000E-03 0.  1.
    9900012    2    1    2    0    0 -0.63085461703E+00 -0.34065025671E-01  0.99689130934E+00  0.90007775336E+02  0.90000037171E+02 0.  0.
        -12    1    1    2    0    0  0.63085461703E+00  0.34065025671E-01 -0.99689130934E+00  0.11802246635E+01  0.00000000000E+00 0.  1.
         11    1    3    3    0    0 -0.40662212051E+01  0.28847193638E+02  0.23623900841E+02  0.37507111684E+02  0.51100000000E-03 0. -1.
        -11    1    3    3    0    0 -0.14517493827E+02 -0.64042614977E+01  0.54998319618E-01  0.15867426301E+02  0.51100000000E-03 0.  1.
        -12    1    3    3    0    0  0.17952860415E+02 -0.22476997166E+02 -0.22682007851E+02  0.36633237351E+02  0.00000000000E+00 0.  1.
</event>
<event>
 7    1  0.3925070E-015  0.9000778E+02  0.7816164E-02  0.1186339E+00
        -11   -1    0    0    0    0  0.00000000000E+00  0.00000000000E+00  0.45593999997E+02  0.45594000000E+02  0.51100000000E-03 0.  1.
         11   -1    0    0    0    0 -0.00000000000E+00 -0.00000000000E+00 -0.45593999997E+02  0.45594000000E+02  0.51100000000E-03 0. -1.
    9900012    2    1    2    0    0  0.10672835565E+01  0.16388928842E-01  0.50355490650E+00  0.90007775305E+02  0.90000037139E+02 0.  0.
        -12    1    1    2    0    0 -0.10672835565E+01 -0.16388928842E-01 -0.50355490650E+00  0.11802246950E+01  0.00000000000E+00 0.  1.
         11    1    3    3    0    0 -0.49178582939E+01  0.60470078883E+01 -0.38943718590E+01  0.87130802267E+01  0.51100000000E-03 0. -1.
        -11    1    3    3    0    0 -0.32523322691E+02 -0.22225866967E+02  0.27001903487E+01  0.39484765536E+02  0.51100000000E-03 0.  1.
         12    1    3    3    0    0  0.38508464541E+02  0.16195248007E+02  0.16977364168E+01  0.41809929542E+02  0.00000000000E+00 0. -1.
</event>
<event>
 7    1  0.3925070E-015  0.9000775E+02  0.7816164E-02  0.1186339E+00
        -11   -1    0    0    0    0  0.00000000000E+00  0.00000000000E+00  0.45593999997E+02  0.45594000000E+02  0.51100000000E-03 0. -1.
         11   -1    0    0    0    0 -0.00000000000E+00 -0.00000000000E+00 -0.45593999997E+02  0.45594000000E+02  0.51100000000E-03 0.  1.
    9900012    2    1    2    0    0 -0.80533780411E-02 -0.61307412107E+00  0.10085004264E+01  0.90007746703E+02  0.90000008160E+02 0.  0.
        -12    1    1    2    0    0  0.80533780411E-02  0.61307412107E+00 -0.10085004264E+01  0.11802532969E+01  0.00000000000E+00 0.  1.
         11    1    3    3    0    0 -0.62690035104E+00  0.90481933327E+01  0.23869694191E+01  0.93787221894E+01  0.51100000000E-03 0. -1.
        -11    1    3    3    0    0  0.18685615771E+02  0.30911279115E+02 -0.24473046158E+01  0.36202882667E+02  0.51100000000E-03 0.  1.
         12    1    3    3    0    0 -0.18066768798E+02 -0.40572546568E+02  0.10688356231E+01  0.44426141847E+02  0.00000000000E+00 0. -1.
</event>
<event>
 7    1  0.3925070E-015  0.9000778E+02  0.7816164E-02  0.1186339E+00
        -11   -1    0    0    0    0  0.00000000000E+00  0.00000000000E+00  0.45593999997E+02  0.45594000000E+02  0.51100000000E-03 0. -1.
         11   -1    0    0    0    0 -0.00000000000E+00 -0.00000000000E+00 -0.45593999997E+02  0.45594000000E+02  0.51100000000E-03 0.  1.
    9900012    2    1    2    0    0  0.10027959242E+01  0.43538383278E+00  0.44471027436E+00  0.90007777150E+02  0.90000039008E+02 0.  0.
        -12    1    1    2    0    0 -0.10027959242E+01 -0.43538383278E+00 -0.44471027436E+00  0.11802228500E+01  0.00000000000E+00 0.  1.
         11    1    3    3    0    0 -0.10715422223E+02  0.28415116237E+02  0.27318698119E+02  0.40847893108E+02  0.51100000000E-03 0. -1.
        -11    1    3    3    0    0  0.76422045262E+01  0.19864625197E+00  0.27004222332E+01  0.81077142804E+01  0.51100000000E-03 0.  1.
        -12    1    3    3    0    0  0.40760136205E+01 -0.28178378656E+02 -0.29574410078E+02  0.41052169762E+02  0.00000000000E+00 0.  1.
</event>
<event>
 7    1  0.3925070E-015  0.9000767E+02  0.7816164E-02  0.1186339E+00
        -11   -1    0    0    0    0  0.00000000000E+00  0.00000000000E+00  0.45593999997E+02  0.45594000000E+02  0.51100000000E-03 0. -1.
         11   -1    0    0    0    0 -0.00000000000E+00 -0.00000000000E+00 -0.45593999997E+02  0.45594000000E+02  0.51100000000E-03 0.  1.
    9900012    2    1    2    0    0  0.17372150603E+00  0.10815556004E+01 -0.43958798847E+00  0.90007669844E+02  0.89999930286E+02 0.  0.
        -12    1    1    2    0    0 -0.17372150603E+00 -0.10815556004E+01  0.43958798847E+00  0.11803301564E+01  0.00000000000E+00 0.  1.
         11    1    3    3    0    0 -0.31613498007E+01  0.69867418145E+01  0.55692735895E+01  0.94776316831E+01  0.51100000000E-03 0. -1.
        -11    1    3    3    0    0  0.19622917751E+02  0.22394300994E+02  0.22391356051E+02  0.37255019046E+02  0.51100000000E-03 0.  1.
         12    1    3    3    0    0 -0.16287846444E+02 -0.28299487208E+02 -0.28400217628E+02  0.43275019115E+02  0.00000000000E+00 0. -1.
</event>
<event>
 7    1  0.3925070E-015  0.9000775E+02  0.7816164E-02  0.1186339E+00
        -11   -1    0    0    0    0  0.00000000000E+00  0.00000000000E+00  0.45593999997E+02  0.45594000000E+02  0.51100000000E-03 0.  1.
         11   -1    0    0    0    0 -0.00000000000E+00 -0.00000000000E+00 -0.45593999997E+02  0.45594000000E+02  0.51100000000E-03 0. -1.
    9900012    2    1    2    0    0 -0.11416637479E+01 -0.13538330758E+00 -0.26697419014E+00  0.90007745802E+02  0.90000007247E+02 0.  0.
        -12    1    1    2    0    0  0.11416637479E+01  0.13538330758E+00  0.26697419014E+00  0.11802541978E+01  0.00000000000E+00 0.  1.
         11    1    3    3    0    0  0.41424142753E+02  0.56963536285E+01  0.38371809683E+01  0.41989665461E+02  0.51100000000E-03 0. -1.
        -11    1    3    3    0    0 -0.17031228016E+01 -0.37984892614E+01 -0.57182516683E+01  0.70730156475E+01  0.51100000000E-03 0.  1.
        -12    1    3    3    0    0 -0.40862683699E+02 -0.20332476746E+01  0.16140965098E+01  0.40945064694E+02  0.00000000000E+00 0.  1.
</event>
<event>
 7    1  0.3925070E-015  0.9000769E+02  0.7816164E-02  0.1186339E+00
        -11   -1    0    0    0    0  0.00000000000E+00  0.00000000000E+00  0.45593999997E+02  0.45594000000E+02  0.51100000000E-03 0.  1.
         11   -1    0    0    0    0 -0.00000000000E+00 -0.00000000000E+00 -0.45593999997E+02  0.45594000000E+02  0.51100000000E-03 0. -1.
    9900012    2    1    2    0    0 -0.42514642081E+00  0.45470389499E+00 -0.10028035791E+01  0.90007694900E+02  0.89999955672E+02 0.  0.
        -12    1    1    2    0    0  0.42514642081E+00 -0.45470389499E+00  0.10028035791E+01  0.11803051002E+01  0.00000000000E+00 0.  1.
         11    1    3    3    0    0 -0.20638548812E+02  0.12758994827E+02  0.89471227713E+01  0.25861025738E+02  0.51100000000E-03 0. -1.
        -11    1    3    3    0    0 -0.20091600251E+02  0.37039747808E+00  0.21173445836E+01  0.20206255053E+02  0.51100000000E-03 0.  1.
         12    1    3    3    0    0  0.40305002642E+02 -0.12674688411E+02 -0.12067270934E+02  0.43940414109E+02  0.00000000000E+00 0. -1.
</event>
<event>
 7    1  0.3925070E-015  0.9000775E+02  0.7816164E-02  0.1186339E+00
        -11   -1    0    0    0    0  0.00000000000E+00  0.00000000000E+00  0.45593999997E+02  0.45594000000E+02  0.51100000000E-03 0.  1.
         11   -1    0    0    0    0 -0.00000000000E+00 -0.00000000000E+00 -0.45593999997E+02  0.45594000000E+02  0.51100000000E-03 0. -1.
    9900012    2    1    2    0    0 -0.98743791556E+00 -0.77501352756E-01 -0.64183943755E+00  0.90007746654E+02  0.90000008110E+02 0.  0.
        -12    1    1    2    0    0  0.98743791556E+00  0.77501352756E-01  0.64183943755E+00  0.11802533458E+01  0.00000000000E+00 0.  1.
         11    1    3    3    0    0 -0.56103670655E+01 -0.72281581875E+01  0.16376425242E+01  0.92953947033E+01  0.51100000000E-03 0. -1.
        -11    1    3    3    0    0  0.22000612737E+02 -0.29052313941E+02  0.11567438455E+02  0.38234402555E+02  0.51100000000E-03 0.  1.
         12    1    3    3    0    0 -0.17377683587E+02  0.36202970776E+02 -0.13846920417E+02  0.42477949395E+02  0.00000000000E+00 0. -1.
</event>
<event>
 7    1  0.3925070E-015  0.9000760E+02  0.7816164E-02  0.1186339E+00
        -11   -1    0    0    0    0  0.00000000000E+00  0.00000000000E+00  0.45593999997E+02  0.45594000000E+02  0.51100000000E-03 0.  1.
         11   -1    0    0    0    0 -0.00000000000E+00 -0.00000000000E+00 -0.45593999997E+02  0.45594000000E+02  0.51100000000E-03 0. -1.
    9900012    2    1    2    0    0  0.28443494172E-01 -0.11740629615E+01  0.11875980777E+00  0.90007603134E+02  0.89999862695E+02 0.  0.
        -12    1    1    2    0    0 -0.28443494172E-01  0.11740629615E+01 -0.11875980777E+00  0.11803968663E+01  0.00000000000E+00 0.  1.
         11    1    3    3    0    0  0.30456852556E+00  0.11454737331E+01  0.92156903511E+01  0.92915994838E+01  0.51100000000E-03 0. -1.
        -11    1    3    3    0    0 -0.30540740458E+02  0.17299961794E+02  0.14107017166E+02  0.37829002622E+02  0.51100000000E-03 0.  1.
         12    1    3    3    0    0  0.30264615427E+02 -0.19619498489E+02 -0.23203947709E+02  0.42887001028E+02  0.00000000000E+00 0. -1.
</event>
<event>
 7    1  0.3925070E-015  0.9000785E+02  0.7816164E-02  0.1186339E+00
        -11   -1    0    0    0    0  0.00000000000E+00  0.00000000000E+00  0.45593999997E+02  0.45594000000E+02  0.51100000000E-03 0.  1.
         11   -1    0    0    0    0 -0.00000000000E+00 -0.00000000000E+00 -0.45593999997E+02  0.45594000000E+02  0.51100000000E-03 0. -1.
    9900012    2    1    2    0    0  0.32688215396E+00 -0.63334371206E+00 -0.94063079882E+00  0.90007846408E+02  0.90000109181E+02 0.  0.
        -12    1    1    2    0    0 -0.32688215396E+00  0.63334371206E+00  0.94063079882E+00  0.11801535916E+01  0.00000000000E+00 0.  1.
         11    1    3    3    0    0  0.43249008737E+01 -0.47344446729E+01  0.55809674056E+01  0.85009959047E+01  0.51100000000E-03 0. -1.
        -11    1    3    3    0    0  0.15089734963E+02  0.27492386614E+02  0.23301008511E+02  0.39070045058E+02  0.51100000000E-03 0.  1.
         12    1    3    3    0    0 -0.19087753682E+02 -0.23391285653E+02 -0.29822606715E+02  0.42436805446E+02  0.00000000000E+00 0. -1.
</event>
<event>
 7    1  0.3925070E-015  0.9000776E+02  0.7816164E-02  0.1186339E+00
        -11   -1    0    0    0    0  0.00000000000E+00  0.00000000000E+00  0.45593999997E+02  0.45594000000E+02  0.51100000000E-03 0.  1.
         11   -1    0    0    0    0 -0.00000000000E+00 -0.00000000000E+00 -0.45593999997E+02  0.45594000000E+02  0.51100000000E-03 0. -1.
    9900012    2    1    2    0    0 -0.97972865066E+00  0.59046517237E+00  0.29060403644E+00  0.90007759323E+02  0.90000020946E+02 0.  0.
        -12    1    1    2    0    0  0.97972865066E+00 -0.59046517237E+00 -0.29060403644E+00  0.11802406766E+01  0.00000000000E+00 0.  1.
         11    1    3    3    0    0 -0.31470610113E+02 -0.17584719230E+02 -0.67209918373E+00  0.36056530183E+02  0.51100000000E-03 0. -1.
        -11    1    3    3    0    0  0.59329762989E+00  0.99019673129E+01 -0.15826395276E+02  0.18678215826E+02  0.51100000000E-03 0.  1.
        -12    1    3    3    0    0  0.29897583832E+02  0.82732170894E+01  0.16789098496E+02  0.35273013315E+02  0.00000000000E+00 0.  1.
</event>
<event>
 7    1  0.3925070E-015  0.9000811E+02  0.7816164E-02  0.1186338E+00
        -11   -1    0    0    0    0  0.00000000000E+00  0.00000000000E+00  0.45593999997E+02  0.45594000000E+02  0.51100000000E-03 0.  1.
         11   -1    0    0    0    0 -0.00000000000E+00 -0.00000000000E+00 -0.45593999997E+02  0.45594000000E+02  0.51100000000E-03 0. -1.
    9900012    2    1    2    0    0  0.85623385341E+00 -0.79137364743E-01 -0.80791811052E+00  0.90008114070E+02  0.90000380375E+02 0.  0.
        -12    1    1    2    0    0 -0.85623385341E+00  0.79137364743E-01  0.80791811052E+00  0.11798859299E+01  0.00000000000E+00 0.  1.
         11    1    3    3    0    0 -0.33070833377E+01  0.76906890948E+01 -0.11320545152E+01  0.84477835343E+01  0.51100000000E-03 0. -1.
        -11    1    3    3    0    0 -0.17620054652E+02 -0.15503705186E+02  0.33635502120E+02  0.41014365819E+02  0.51100000000E-03 0.  1.
         12    1    3    3    0    0  0.21783371843E+02  0.77338787263E+01 -0.33311365715E+02  0.40545964717E+02  0.00000000000E+00 0. -1.
</event>
<event>
 7    1  0.3925070E-015  0.9000771E+02  0.7816164E-02  0.1186339E+00
        -11   -1    0    0    0    0  0.00000000000E+00  0.00000000000E+00  0.45593999997E+02  0.45594000000E+02  0.51100000000E-03 0. -1.
         11   -1    0    0    0    0 -0.00000000000E+00 -0.00000000000E+00 -0.45593999997E+02  0.45594000000E+02  0.51100000000E-03 0.  1.
    9900012    2    1    2    0    0 -0.46809220512E+00 -0.10830690372E+01 -0.30492288728E-01  0.90007712479E+02  0.89999973484E+02 0.  0.
        -12    1    1    2    0    0  0.46809220512E+00  0.10830690372E+01  0.30492288728E-01  0.11802875207E+01  0.00000000000E+00 0.  1.
         11    1    3    3    0    0  0.34706992774E+01  0.34359326620E+02 -0.86150240539E+01  0.35592523358E+02  0.51100000000E-03 0. -1.
        -11    1    3    3    0    0  0.10391473457E+02  0.23075023346E+01 -0.50703123097E+01  0.11790477294E+02  0.51100000000E-03 0.  1.
        -12    1    3    3    0    0 -0.14330264940E+02 -0.37749897992E+02  0.13654844075E+02  0.42624711828E+02  0.00000000000E+00 0.  1.
</event>
<event>
 7    1  0.3925070E-015  0.9000780E+02  0.7816164E-02  0.1186339E+00
        -11   -1    0    0    0    0  0.00000000000E+00  0.00000000000E+00  0.45593999997E+02  0.45594000000E+02  0.51100000000E-03 0.  1.
         11   -1    0    0    0    0 -0.00000000000E+00 -0.00000000000E+00 -0.45593999997E+02  0.45594000000E+02  0.51100000000E-03 0. -1.
    9900012    2    1    2    0    0 -0.33919997024E+00  0.54743866714E+00 -0.98899978243E+00  0.90007802439E+02  0.90000064631E+02 0.  0.
        -12    1    1    2    0    0  0.33919997024E+00 -0.54743866714E+00  0.98899978243E+00  0.11801975613E+01  0.00000000000E+00 0.  1.
         11    1    3    3    0    0  0.22235376345E+02  0.21566887036E+02 -0.28996096979E+02  0.42430133371E+02  0.51100000000E-03 0. -1.
        -11    1    3    3    0    0 -0.11807660692E+02  0.14133026829E+01  0.29239975607E+01  0.12246143780E+02  0.51100000000E-03 0.  1.
        -12    1    3    3    0    0 -0.10766915623E+02 -0.22432751051E+02  0.25083099636E+02  0.35331525287E+02  0.00000000000E+00 0.  1.
</event>
<event>
 7    1  0.3925070E-015  0.9000778E+02  0.7816164E-02  0.1186339E+00
        -11   -1    0    0    0    0  0.00000000000E+00  0.00000000000E+00  0.45593999997E+02  0.45594000000E+02  0.51100000000E-03 0.  1.
         11   -1    0    0    0    0 -0.00000000000E+00 -0.00000000000E+00 -0.45593999997E+02  0.45594000000E+02  0.51100000000E-03 0. -1.
    9900012    2    1    2    0    0  0.10560968542E+01 -0.44395142505E+00 -0.28368167844E+00  0.90007784457E+02  0.90000046412E+02 0.  0.
        -12    1    1    2    0    0 -0.10560968542E+01  0.44395142505E+00  0.28368167844E+00  0.11802155430E+01  0.00000000000E+00 0.  1.
         11    1    3    3    0    0  0.42036957313E+00  0.92940931866E+01  0.39706427452E+01  0.10115477389E+02  0.51100000000E-03 0. -1.
        -11    1    3    3    0    0  0.29961055145E+02  0.10013276776E+02  0.19659495694E+02  0.37207879655E+02  0.51100000000E-03 0.  1.
         12    1    3    3    0    0 -0.29325327864E+02 -0.19751321388E+02 -0.23913820118E+02  0.42684427413E+02  0.00000000000E+00 0. -1.
</event>
<event>
 7    1  0.3925070E-015  0.9000859E+02  0.7816164E-02  0.1186337E+00
        -11   -1    0    0    0    0  0.00000000000E+00  0.00000000000E+00  0.45593999997E+02  0.45594000000E+02  0.51100000000E-03 0.  1.
         11   -1    0    0    0    0 -0.00000000000E+00 -0.00000000000E+00 -0.45593999997E+02  0.45594000000E+02  0.51100000000E-03 0. -1.
    9900012    2    1    2    0    0  0.10991610782E+00 -0.91415773652E+00 -0.73705448809E+00  0.90008586910E+02  0.90000859453E+02 0.  0.
        -12    1    1    2    0    0 -0.10991610782E+00  0.91415773652E+00  0.73705448809E+00  0.11794130898E+01  0.00000000000E+00 0.  1.
         11    1    3    3    0    0  0.38248635627E+02 -0.10093272103E+02 -0.62291276992E+01  0.40045402997E+02  0.51100000000E-03 0. -1.
        -11    1    3    3    0    0 -0.11638626953E+01  0.13144542473E+01 -0.92300484279E+01  0.93955393983E+01  0.51100000000E-03 0.  1.
        -12    1    3    3    0    0 -0.36974856824E+02  0.78646601195E+01  0.14722121639E+02  0.40567644515E+02  0.00000000000E+00 0.  1.
</event>
<event>
 7    1  0.3925070E-015  0.9000770E+02  0.7816164E-02  0.1186339E+00
        -11   -1    0    0    0    0  0.00000000000E+00  0.00000000000E+00  0.45593999997E+02  0.45594000000E+02  0.51100000000E-03 0.  1.
         11   -1    0    0    0    0 -0.00000000000E+00 -0.00000000000E+00 -0.45593999997E+02  0.45594000000E+02  0.51100000000E-03 0. -1.
    9900012    2    1    2    0    0 -0.62587627186E+00 -0.57054883690E+00 -0.82211470034E+00  0.90007695097E+02  0.89999955873E+02 0.  0.
        -12    1    1    2    0    0  0.62587627186E+00  0.57054883690E+00  0.82211470034E+00  0.11803049028E+01  0.00000000000E+00 0.  1.
         11    1    3    3    0    0  0.10506799368E+01 -0.86908703131E+01 -0.13428942070E+01  0.88565523903E+01  0.51100000000E-03 0. -1.
        -11    1    3    3    0    0 -0.86995770010E+01 -0.27577568981E+02 -0.23746799421E+02  0.37418116386E+02  0.51100000000E-03 0.  1.
         12    1    3    3    0    0  0.70230207923E+01  0.35697890457E+02  0.24267578928E+02  0.43733026321E+02  0.00000000000E+00 0. -1.
</event>
<event>
 7    1  0.3925070E-015  0.9000774E+02  0.7816164E-02  0.1186339E+00
        -11   -1    0    0    0    0  0.00000000000E+00  0.00000000000E+00  0.45593999997E+02  0.45594000000E+02  0.51100000000E-03 0.  1.
         11   -1    0    0    0    0 -0.00000000000E+00 -0.00000000000E+00 -0.45593999997E+02  0.45594000000E+02  0.51100000000E-03 0. -1.
    9900012    2    1    2    0    0 -0.23969680341E+00 -0.26830153346E+00 -0.11240875770E+01  0.90007740219E+02  0.90000001590E+02 0.  0.
        -12    1    1    2    0    0  0.23969680341E+00  0.26830153346E+00  0.11240875770E+01  0.11802597812E+01  0.00000000000E+00 0.  1.
         11    1    3    3    0    0 -0.27479159177E+02 -0.22474103213E+02 -0.17109148150E+02  0.39407010226E+02  0.51100000000E-03 0. -1.
        -11    1    3    3    0    0 -0.13962717679E+01 -0.69277332562E+01  0.34907932281E+01  0.78821761298E+01  0.51100000000E-03 0.  1.
        -12    1    3    3    0    0  0.28635734141E+02  0.29133534936E+02  0.12494267345E+02  0.42718553863E+02  0.00000000000E+00 0.  1.
</event>
<event>
 7    1  0.3925070E-015  0.9000773E+02  0.7816164E-02  0.1186339E+00
        -11   -1    0    0    0    0  0.00000000000E+00  0.00000000000E+00  0.45593999997E+02  0.45594000000E+02  0.51100000000E-03 0.  1.
         11   -1    0    0    0    0 -0.00000000000E+00 -0.00000000000E+00 -0.45593999997E+02  0.45594000000E+02  0.51100000000E-03 0. -1.
    9900012    2    1    2    0    0 -0.10121057222E+01 -0.41127526104E+00 -0.44667855567E+00  0.90007734324E+02  0.89999995617E+02 0.  0.
        -12    1    1    2    0    0  0.10121057222E+01  0.41127526104E+00  0.44667855567E+00  0.11802656757E+01  0.00000000000E+00 0.  1.
         11    1    3    3    0    0  0.45194058326E+01  0.56649495113E+01 -0.73214194466E+01  0.10301449656E+02  0.51100000000E-03 0. -1.
        -11    1    3    3    0    0  0.30821640397E+01 -0.89626046943E+00  0.42535320226E+02  0.42656259622E+02  0.51100000000E-03 0.  1.
         12    1    3    3    0    0 -0.86136755944E+01 -0.51799643029E+01 -0.35660579335E+02  0.37050025046E+02  0.00000000000E+00 0. -1.
</event>
<event>
 7    1  0.3925070E-015  0.9000709E+02  0.7816164E-02  0.1186340E+00
        -11   -1    0    0    0    0  0.00000000000E+00  0.00000000000E+00  0.45593999997E+02  0.45594000000E+02  0.51100000000E-03 0.  1.
         11   -1    0    0    0    0 -0.00000000000E+00 -0.00000000000E+00 -0.45593999997E+02  0.45594000000E+02  0.51100000000E-03 0. -1.
    9900012    2    1    2    0    0  0.20490772287E+00  0.91475693644E+00 -0.71817851361E+00  0.90007090264E+02  0.89999343053E+02 0.  0.
        -12    1    1    2    0    0 -0.20490772287E+00 -0.91475693644E+00  0.71817851361E+00  0.11809097362E+01  0.00000000000E+00 0.  1.
         11    1    3    3    0    0 -0.94049491249E+00 -0.16077689417E+02 -0.38019531069E+02  0.41289966949E+02  0.51100000000E-03 0. -1.
        -11    1    3    3    0    0  0.88131347003E+01 -0.26360949303E+01  0.59983122304E+01  0.10981807210E+02  0.51100000000E-03 0.  1.
        -12    1    3    3    0    0 -0.76677320649E+01  0.19628541284E+02  0.31303040325E+02  0.37735316105E+02  0.00000000000E+00 0.  1.
</event>
<event>
 7    1  0.3925070E-015  0.9000769E+02  0.7816164E-02  0.1186339E+00
        -11   -1    0    0    0    0  0.00000000000E+00  0.00000000000E+00  0.45593999997E+02  0.45594000000E+02  0.51100000000E-03 0. -1.
         11   -1    0    0    0    0 -0.00000000000E+00 -0.00000000000E+00 -0.45593999997E+02  0.45594000000E+02  0.51100000000E-03 0.  1.
    9900012    2    1    2    0    0 -0.52673922141E+00 -0.10557845108E+01 -0.31449515091E-01  0.90007693170E+02  0.89999953920E+02 0.  0.
        -12    1    1    2    0    0  0.52673922141E+00  0.10557845108E+01  0.31449515091E-01  0.11803068299E+01  0.00000000000E+00 0.  1.
         11    1    3    3    0    0  0.32338430992E+02  0.20615346476E+02 -0.74295602747E+01  0.39063601927E+02  0.51100000000E-03 0. -1.
        -11    1    3    3    0    0 -0.63828575639E+00  0.41167913709E+01  0.87032181568E+01  0.96489059714E+01  0.51100000000E-03 0.  1.
        -12    1    3    3    0    0 -0.32226884457E+02 -0.25787922358E+02 -0.13051073972E+01  0.41295185272E+02  0.00000000000E+00 0.  1.
</event>
<event>
 7    1  0.3925070E-015  0.9000777E+02  0.7816164E-02  0.1186339E+00
        -11   -1    0    0    0    0  0.00000000000E+00  0.00000000000E+00  0.45593999997E+02  0.45594000000E+02  0.51100000000E-03 0. -1.
         11   -1    0    0    0    0 -0.00000000000E+00 -0.00000000000E+00 -0.45593999997E+02  0.45594000000E+02  0.51100000000E-03 0.  1.
    9900012    2    1    2    0    0 -0.35924869038E+00  0.11172519949E+01  0.12501624426E+00  0.90007770911E+02  0.90000032687E+02 0.  0.
        -12    1    1    2    0    0  0.35924869038E+00 -0.11172519949E+01 -0.12501624426E+00  0.11802290892E+01  0.00000000000E+00 0.  1.
         11    1    3    3    0    0 -0.24217813664E+01 -0.43784208261E+01 -0.93759627597E+01  0.10627524258E+02  0.51100000000E-03 0. -1.
        -11    1    3    3    0    0 -0.36918639451E+02  0.11306570447E+02  0.10295789884E+02  0.39960327374E+02  0.51100000000E-03 0.  1.
         12    1    3    3    0    0  0.38981172128E+02 -0.58108976258E+01 -0.79481088026E+00  0.39419919279E+02  0.00000000000E+00 0. -1.
</event>
<event>
 7    1  0.3925070E-015  0.9000769E+02  0.7816164E-02  0.1186339E+00
        -11   -1    0    0    0    0  0.00000000000E+00  0.00000000000E+00  0.45593999997E+02  0.45594000000E+02  0.51100000000E-03 0. -1.
         11   -1    0    0    0    0 -0.00000000000E+00 -0.00000000000E+00 -0.45593999997E+02  0.45594000000E+02  0.51100000000E-03 0.  1.
    9900012    2    1    2    0    0  0.79104176104E+00  0.46283534298E+00 -0.74375583313E+00  0.90007688024E+02  0.89999948705E+02 0.  0.
        -12    1    1    2    0    0 -0.79104176104E+00 -0.46283534298E+00  0.74375583313E+00  0.11803119764E+01  0.00000000000E+00 0.  1.
         11    1    3    3    0    0  0.26913297608E+01  0.12535389412E+00  0.71037476396E+01  0.75975127686E+01  0.51100000000E-03 0. -1.
        -11    1    3    3    0    0  0.38348738471E+02 -0.72046960470E+01 -0.13021407847E+02  0.41135027046E+02  0.51100000000E-03 0.  1.
         12    1    3    3    0    0 -0.40249026471E+02  0.75421774959E+01  0.51739043745E+01  0.41275148209E+02  0.00000000000E+00 0. -1.
</event>
<event>
 7    1  0.3925070E-015  0.9000777E+02  0.7816164E-02  0.1186339E+00
        -11   -1    0    0    0    0  0.00000000000E+00  0.00000000000E+00  0.45593999997E+02  0.45594000000E+02  0.51100000000E-03 0. -1.
         11   -1    0    0    0    0 -0.00000000000E+00 -0.00000000000E+00 -0.45593999997E+02  0.45594000000E+02  0.51100000000E-03 0.  1.
    9900012    2    1    2    0    0  0.10140735570E+00 -0.38590490443E+00  0.11107354573E+01  0.90007771504E+02  0.90000033288E+02 0.  0.
        -12    1    1    2    0    0 -0.10140735570E+00  0.38590490443E+00 -0.11107354573E+01  0.11802284962E+01  0.00000000000E+00 0.  1.
         11    1    3    3    0    0  0.13515717336E+02 -0.12358527380E+02  0.33495093530E+02  0.38174980091E+02  0.51100000000E-03 0. -1.
        -11    1    3    3    0    0  0.76212943466E+01 -0.45071696276E+01  0.11772112561E+01  0.89322187710E+01  0.51100000000E-03 0.  1.
        -12    1    3    3    0    0 -0.21035604327E+02  0.16479792103E+02 -0.33561569329E+02  0.42900572642E+02  0.00000000000E+00 0.  1.
</event>
<event>
 7    1  0.3925070E-015  0.9000770E+02  0.7816164E-02  0.1186339E+00
        -11   -1    0    0    0    0  0.00000000000E+00  0.00000000000E+00  0.45593999997E+02  0.45594000000E+02  0.51100000000E-03 0.  1.
         11   -1    0    0    0    0 -0.00000000000E+00 -0.00000000000E+00 -0.45593999997E+02  0.45594000000E+02  0.51100000000E-03 0. -1.
    9900012    2    1    2    0    0 -0.10850538239E+01 -0.44252262289E+00  0.14120437480E+00  0.90007700569E+02  0.89999961416E+02 0.  0.
        -12    1    1    2    0    0  0.10850538239E+01  0.44252262289E+00 -0.14120437480E+00  0.11802994315E+01  0.00000000000E+00 0.  1.
         11    1    3    3    0    0  0.13002724368E+02  0.22146452185E+01 -0.36281140332E+02  0.38604360356E+02  0.51100000000E-03 0. -1.
        -11    1    3    3    0    0 -0.31739565962E+01  0.17165126319E+01 -0.62084458552E+01  0.71808924437E+01  0.51100000000E-03 0.  1.
        -12    1    3    3    0    0 -0.10913821596E+02 -0.43736804733E+01  0.42630790562E+02  0.44222447769E+02  0.00000000000E+00 0.  1.
</event>
<event>
 7    1  0.5264847E-015  0.9000756E+02  0.7816164E-02  0.1186339E+00
        -11   -1    0    0    0    0  0.00000000000E+00  0.00000000000E+00  0.45593999997E+02  0.45594000000E+02  0.51100000000E-03 0.  1.
         11   -1    0    0    0    0 -0.00000000000E+00 -0.00000000000E+00 -0.45593999997E+02  0.45594000000E+02  0.51100000000E-03 0. -1.
    9900012    2    1    2    0    0  0.83577532508E+00  0.45338075408E+00 -0.69954826003E+00  0.90007558443E+02  0.89999817414E+02 0.  0.
        -12    1    1    2    0    0 -0.83577532508E+00 -0.45338075408E+00  0.69954826003E+00  0.11804415573E+01  0.00000000000E+00 0.  1.
         11    1    3    3    0    0 -0.25421812576E+02 -0.86790571840E+01 -0.24171315421E+02  0.36136506164E+02  0.51100000000E-03 0. -1.
        -11    1    3    3    0    0 -0.45448479198E+01  0.33654749395E+01 -0.77769488713E+01  0.96157682059E+01  0.51100000000E-03 0.  1.
        -12    1    3    3    0    0  0.30802435821E+02  0.57669629986E+01  0.31248716032E+02  0.44255284073E+02  0.00000000000E+00 0.  1.
</event>
<event>
 7    1  0.3925070E-015  0.9000776E+02  0.7816164E-02  0.1186339E+00
        -11   -1    0    0    0    0  0.00000000000E+00  0.00000000000E+00  0.45593999997E+02  0.45594000000E+02  0.51100000000E-03 0.  1.
         11   -1    0    0    0    0 -0.00000000000E+00 -0.00000000000E+00 -0.45593999997E+02  0.45594000000E+02  0.51100000000E-03 0. -1.
    9900012    2    1    2    0    0  0.47593595700E+00  0.24514645361E+00 -0.10518326590E+01  0.90007761142E+02  0.90000022789E+02 0.  0.
        -12    1    1    2    0    0 -0.47593595700E+00 -0.24514645361E+00  0.10518326590E+01  0.11802388578E+01  0.00000000000E+00 0.  1.
         11    1    3    3    0    0  0.15969192418E+02 -0.31883353430E+02  0.15188730385E+01  0.35691319784E+02  0.51100000000E-03 0. -1.
        -11    1    3    3    0    0  0.55503687974E+01 -0.62637105166E+01  0.51971508188E+01  0.98514486304E+01  0.51100000000E-03 0.  1.
        -12    1    3    3    0    0 -0.21043625258E+02  0.38392210400E+02 -0.77678565163E+01  0.44464992727E+02  0.00000000000E+00 0.  1.
</event>
<event>
 7    1  0.3925070E-015  0.9000782E+02  0.7816164E-02  0.1186339E+00
        -11   -1    0    0    0    0  0.00000000000E+00  0.00000000000E+00  0.45593999997E+02  0.45594000000E+02  0.51100000000E-03 0. -1.
         11   -1    0    0    0    0 -0.00000000000E+00 -0.00000000000E+00 -0.45593999997E+02  0.45594000000E+02  0.51100000000E-03 0.  1.
    9900012    2    1    2    0    0 -0.17518620007E+00  0.12696739477E+00  0.11601740689E+01  0.90007824253E+02  0.90000086733E+02 0.  0.
        -12    1    1    2    0    0  0.17518620007E+00 -0.12696739477E+00 -0.11601740689E+01  0.11801757471E+01  0.00000000000E+00 0.  1.
         11    1    3    3    0    0 -0.11943109614E+02  0.24170032231E+02 -0.24475350006E+02  0.36412512732E+02  0.51100000000E-03 0. -1.
        -11    1    3    3    0    0 -0.39270876008E+01  0.92760114436E+01  0.37225418162E+01  0.10738888358E+02  0.51100000000E-03 0.  1.
        -12    1    3    3    0    0  0.15695011015E+02 -0.33319076279E+02  0.21912982259E+02  0.42856423163E+02  0.00000000000E+00 0.  1.
</event>
<event>
 7    1  0.3925070E-015  0.9000778E+02  0.7816164E-02  0.1186339E+00
        -11   -1    0    0    0    0  0.00000000000E+00  0.00000000000E+00  0.45593999997E+02  0.45594000000E+02  0.51100000000E-03 0. -1.
         11   -1    0    0    0    0 -0.00000000000E+00 -0.00000000000E+00 -0.45593999997E+02  0.45594000000E+02  0.51100000000E-03 0.  1.
    9900012    2    1    2    0    0  0.88894203657E+00 -0.60041141150E+00  0.49214772979E+00  0.90007779175E+02  0.90000041060E+02 0.  0.
        -12    1    1    2    0    0 -0.88894203657E+00  0.60041141150E+00 -0.49214772979E+00  0.11802208248E+01  0.00000000000E+00 0.  1.
         11    1    3    3    0    0 -0.13441522439E+02 -0.53939199996E+01  0.23205126464E+01  0.14668117726E+02  0.51100000000E-03 0. -1.
        -11    1    3    3    0    0 -0.24445749552E+02 -0.15555623526E+02 -0.10270971342E+02  0.30741908643E+02  0.51100000000E-03 0.  1.
         12    1    3    3    0    0  0.38776214027E+02  0.20349132114E+02  0.84426064259E+01  0.44597752806E+02  0.00000000000E+00 0. -1.
</event>
<event>
 7    1  0.3925070E-015  0.9000769E+02  0.7816164E-02  0.1186339E+00
        -11   -1    0    0    0    0  0.00000000000E+00  0.00000000000E+00  0.45593999997E+02  0.45594000000E+02  0.51100000000E-03 0. -1.
         11   -1    0    0    0    0 -0.00000000000E+00 -0.00000000000E+00 -0.45593999997E+02  0.45594000000E+02  0.51100000000E-03 0.  1.
    9900012    2    1    2    0    0 -0.76870668132E+00 -0.66869569845E+00 -0.59586978165E+00  0.90007692965E+02  0.89999953713E+02 0.  0.
        -12    1    1    2    0    0  0.76870668132E+00  0.66869569845E+00  0.59586978165E+00  0.11803070345E+01  0.00000000000E+00 0.  1.
         11    1    3    3    0    0  0.57861203061E+01 -0.17870988264E+02  0.15525055834E+02  0.24369627996E+02  0.51100000000E-03 0. -1.
        -11    1    3    3    0    0  0.23053571482E+01 -0.16898577599E+00  0.22370102393E+02  0.22489213173E+02  0.51100000000E-03 0.  1.
        -12    1    3    3    0    0 -0.88601841356E+01  0.17371278342E+02 -0.38491028009E+02  0.43148851797E+02  0.00000000000E+00 0.  1.
</event>
<event>
 7    1  0.3925070E-015  0.9000778E+02  0.7816164E-02  0.1186339E+00
        -11   -1    0    0    0    0  0.00000000000E+00  0.00000000000E+00  0.45593999997E+02  0.45594000000E+02  0.51100000000E-03 0.  1.
         11   -1    0    0    0    0 -0.00000000000E+00 -0.00000000000E+00 -0.45593999997E+02  0.45594000000E+02  0.51100000000E-03 0. -1.
    9900012    2    1    2    0    0  0.11641147853E+01  0.23284132176E-01 -0.19291538369E+00  0.90007778949E+02  0.90000040831E+02 0.  0.
        -12    1    1    2    0    0 -0.11641147853E+01 -0.23284132176E-01  0.19291538369E+00  0.11802210511E+01  0.00000000000E+00 0.  1.
         11    1    3    3    0    0 -0.72129448918E+01  0.28170713189E+02 -0.20250394231E+02  0.35435774612E+02  0.51100000000E-03 0. -1.
        -11    1    3    3    0    0 -0.21352352953E+01  0.61801437405E+01 -0.70282674777E+01  0.95994765701E+01  0.51100000000E-03 0.  1.
        -12    1    3    3    0    0  0.10512294972E+02 -0.34327572798E+02  0.27085746325E+02  0.44972527767E+02  0.00000000000E+00 0.  1.
</event>
<event>
 7    1  0.3981624E-015  0.9000773E+02  0.7816164E-02  0.1186339E+00
        -11   -1    0    0    0    0  0.00000000000E+00  0.00000000000E+00  0.45593999997E+02  0.45594000000E+02  0.51100000000E-03 0. -1.
         11   -1    0    0    0    0 -0.00000000000E+00 -0.00000000000E+00 -0.45593999997E+02  0.45594000000E+02  0.51100000000E-03 0.  1.
    9900012    2    1    2    0    0 -0.12549855870E+00  0.47154992068E+00  0.10746756090E+01  0.90007730166E+02  0.89999991404E+02 0.  0.
        -12    1    1    2    0    0  0.12549855870E+00 -0.47154992068E+00 -0.10746756090E+01  0.11802698337E+01  0.00000000000E+00 0.  1.
         11    1    3    3    0    0 -0.23843313397E+02  0.64519411142E+01  0.30235629093E+02  0.39042597311E+02  0.51100000000E-03 0. -1.
        -11    1    3    3    0    0 -0.23444807760E+01 -0.71524210386E+01  0.41962271431E+01  0.86175425337E+01  0.51100000000E-03 0.  1.
        -12    1    3    3    0    0  0.26062295615E+02  0.11720298451E+01 -0.33357180627E+02  0.42347590321E+02  0.00000000000E+00 0.  1.
</event>
<event>
 7    1  0.3925070E-015  0.9000771E+02  0.7816164E-02  0.1186339E+00
        -11   -1    0    0    0    0  0.00000000000E+00  0.00000000000E+00  0.45593999997E+02  0.45594000000E+02  0.51100000000E-03 0.  1.
         11   -1    0    0    0    0 -0.00000000000E+00 -0.00000000000E+00 -0.45593999997E+02  0.45594000000E+02  0.51100000000E-03 0. -1.
    9900012    2    1    2    0    0 -0.39774995742E+00 -0.10178869732E+01  0.44586368979E+00  0.90007706245E+02  0.89999967167E+02 0.  0.
        -12    1    1    2    0    0  0.39774995742E+00  0.10178869732E+01 -0.44586368979E+00  0.11802937553E+01  0.00000000000E+00 0.  1.
         11    1    3    3    0    0  0.71313883567E+01 -0.20634312693E+01  0.25719765733E+01  0.78568131104E+01  0.51100000000E-03 0. -1.
        -11    1    3    3    0    0 -0.13224551963E+02 -0.26281202392E+02 -0.30479539470E+02  0.42362633303E+02  0.51100000000E-03 0.  1.
         12    1    3    3    0    0  0.56954136488E+01  0.27326746688E+02  0.28353426587E+02  0.39788259831E+02  0.00000000000E+00 0. -1.
</event>
<event>
 7    1  0.3925070E-015  0.9000791E+02  0.7816164E-02  0.1186339E+00
        -11   -1    0    0    0    0  0.00000000000E+00  0.00000000000E+00  0.45593999997E+02  0.45594000000E+02  0.51100000000E-03 0.  1.
         11   -1    0    0    0    0 -0.00000000000E+00 -0.00000000000E+00 -0.45593999997E+02  0.45594000000E+02  0.51100000000E-03 0. -1.
    9900012    2    1    2    0    0  0.72611702135E+00  0.53315215016E+00 -0.76230674817E+00  0.90007911562E+02  0.90000175194E+02 0.  0.
        -12    1    1    2    0    0 -0.72611702135E+00 -0.53315215016E+00  0.76230674817E+00  0.11800884383E+01  0.00000000000E+00 0.  1.
         11    1    3    3    0    0 -0.61023307147E+01 -0.35151695651E+01  0.74477223417E+01  0.10250045149E+02  0.51100000000E-03 0. -1.
        -11    1    3    3    0    0  0.10521524684E+02 -0.36675940800E+02 -0.73539653238E+01  0.38857533652E+02  0.51100000000E-03 0.  1.
         12    1    3    3    0    0 -0.36930769482E+01  0.40724262515E+02 -0.85606376610E+00  0.40900332761E+02  0.00000000000E+00 0. -1.
</event>
<event>
 7    1  0.3925070E-015  0.9000784E+02  0.7816164E-02  0.1186339E+00
        -11   -1    0    0    0    0  0.00000000000E+00  0.00000000000E+00  0.45593999997E+02  0.45594000000E+02  0.51100000000E-03 0.  1.
         11   -1    0    0    0    0 -0.00000000000E+00 -0.00000000000E+00 -0.45593999997E+02  0.45594000000E+02  0.51100000000E-03 0. -1.
    9900012    2    1    2    0    0 -0.68993985053E+00  0.79796489508E+00  0.52916826095E+00  0.90007837291E+02  0.90000099943E+02 0.  0.
        -12    1    1    2    0    0  0.68993985053E+00 -0.79796489508E+00 -0.52916826095E+00  0.11801627089E+01  0.00000000000E+00 0.  1.
         11    1    3    3    0    0  0.12401175199E+02  0.17209508329E+02  0.42432824113E+01  0.21632424024E+02  0.51100000000E-03 0. -1.
        -11    1    3    3    0    0 -0.20218150941E+02 -0.36800404863E+00  0.26558650927E+02  0.33380697923E+02  0.51100000000E-03 0.  1.
         12    1    3    3    0    0  0.71270358915E+01 -0.16043539385E+02 -0.30272765078E+02  0.34994715345E+02  0.00000000000E+00 0. -1.
</event>
<event>
 7    1  0.3925070E-015  0.9000780E+02  0.7816164E-02  0.1186339E+00
        -11   -1    0    0    0    0  0.00000000000E+00  0.00000000000E+00  0.45593999997E+02  0.45594000000E+02  0.51100000000E-03 0. -1.
         11   -1    0    0    0    0 -0.00000000000E+00 -0.00000000000E+00 -0.45593999997E+02  0.45594000000E+02  0.51100000000E-03 0.  1.
    9900012    2    1    2    0    0 -0.10157700869E+01  0.58541067122E+00  0.13558013291E+00  0.90007798112E+02  0.90000060247E+02 0.  0.
        -12    1    1    2    0    0  0.10157700869E+01 -0.58541067122E+00 -0.13558013291E+00  0.11802018877E+01  0.00000000000E+00 0.  1.
         11    1    3    3    0    0 -0.55315068556E+01 -0.85100078508E+01  0.37791927498E+01  0.10830517061E+02  0.51100000000E-03 0. -1.
        -11    1    3    3    0    0 -0.15888897083E+02  0.38779108575E+02  0.47956483219E+01  0.42181448002E+02  0.51100000000E-03 0.  1.
         12    1    3    3    0    0  0.20404633852E+02 -0.29683690053E+02 -0.84392609387E+01  0.36995833049E+02  0.00000000000E+00 0. -1.
</event>
<event>
 7    1  0.3925070E-015  0.9000769E+02  0.7816164E-02  0.1186339E+00
        -11   -1    0    0    0    0  0.00000000000E+00  0.00000000000E+00  0.45593999997E+02  0.45594000000E+02  0.51100000000E-03 0.  1.
         11   -1    0    0    0    0 -0.00000000000E+00 -0.00000000000E+00 -0.45593999997E+02  0.45594000000E+02  0.51100000000E-03 0. -1.
    9900012    2    1    2    0    0 -0.15787831290E+00 -0.62690452611E+00 -0.98752494141E+00  0.90007686331E+02  0.89999946991E+02 0.  0.
        -12    1    1    2    0    0  0.15787831290E+00  0.62690452611E+00  0.98752494141E+00  0.11803136687E+01  0.00000000000E+00 0.  1.
         11    1    3    3    0    0 -0.22186868901E+01  0.72304250438E+01 -0.22022823694E+01  0.78772879676E+01  0.51100000000E-03 0. -1.
        -11    1    3    3    0    0 -0.20605980935E+02  0.24113475970E+02  0.21187090941E+02  0.38143924765E+02  0.51100000000E-03 0.  1.
         12    1    3    3    0    0  0.22666789512E+02 -0.31970805540E+02 -0.19972333513E+02  0.43986473599E+02  0.00000000000E+00 0. -1.
</event>
<event>
 7    1  0.3925070E-015  0.9000774E+02  0.7816164E-02  0.1186339E+00
        -11   -1    0    0    0    0  0.00000000000E+00  0.00000000000E+00  0.45593999997E+02  0.45594000000E+02  0.51100000000E-03 0.  1.
         11   -1    0    0    0    0 -0.00000000000E+00 -0.00000000000E+00 -0.45593999997E+02  0.45594000000E+02  0.51100000000E-03 0. -1.
    9900012    2    1    2    0    0 -0.44406094278E+00 -0.51316701856E+00 -0.96565612015E+00  0.90007736363E+02  0.89999997683E+02 0.  0.
        -12    1    1    2    0    0  0.44406094278E+00  0.51316701856E+00  0.96565612015E+00  0.11802636367E+01  0.00000000000E+00 0.  1.
         11    1    3    3    0    0  0.27648268644E+01 -0.75628966426E+01  0.11274582011E+01  0.81309799823E+01  0.51100000000E-03 0. -1.
        -11    1    3    3    0    0  0.47650623160E+00 -0.33938784619E+02 -0.17182872900E+02  0.38043649680E+02  0.51100000000E-03 0.  1.
         12    1    3    3    0    0 -0.36853940388E+01  0.40988514243E+02  0.15089758579E+02  0.43833106701E+02  0.00000000000E+00 0. -1.
</event>
<event>
 7    1  0.3925070E-015  0.9000779E+02  0.7816164E-02  0.1186339E+00
        -11   -1    0    0    0    0  0.00000000000E+00  0.00000000000E+00  0.45593999997E+02  0.45594000000E+02  0.51100000000E-03 0. -1.
         11   -1    0    0    0    0 -0.00000000000E+00 -0.00000000000E+00 -0.45593999997E+02  0.45594000000E+02  0.51100000000E-03 0.  1.
    9900012    2    1    2    0    0 -0.18054670733E-01  0.11430185827E+01 -0.29339418615E+00  0.90007789171E+02  0.90000051188E+02 0.  0.
        -12    1    1    2    0    0  0.18054670733E-01 -0.11430185827E+01  0.29339418615E+00  0.11802108286E+01  0.00000000000E+00 0.  1.
         11    1    3    3    0    0  0.83311730992E+01  0.13754834644E+01  0.54031576108E+01  0.10024695127E+02  0.51100000000E-03 0. -1.
        -11    1    3    3    0    0  0.50749448405E+01  0.37616130606E+02  0.53515825499E+01  0.38332333388E+02  0.51100000000E-03 0.  1.
         12    1    3    3    0    0 -0.13424172610E+02 -0.37848595488E+02 -0.11048134347E+02  0.41650760656E+02  0.00000000000E+00 0. -1.
</event>
<event>
 7    1  0.3925070E-015  0.9000780E+02  0.7816164E-02  0.1186339E+00
        -11   -1    0    0    0    0  0.00000000000E+00  0.00000000000E+00  0.45593999997E+02  0.45594000000E+02  0.51100000000E-03 0.  1.
         11   -1    0    0    0    0 -0.00000000000E+00 -0.00000000000E+00 -0.45593999997E+02  0.45594000000E+02  0.51100000000E-03 0. -1.
    9900012    2    1    2    0    0  0.10298194279E+01  0.44396347807E+00 -0.36775464040E+00  0.90007798704E+02  0.90000060847E+02 0.  0.
        -12    1    1    2    0    0 -0.10298194279E+01 -0.44396347807E+00  0.36775464040E+00  0.11802012961E+01  0.00000000000E+00 0.  1.
         11    1    3    3    0    0  0.28006909760E+02 -0.11377482041E+02  0.20555399365E+02  0.36556237980E+02  0.51100000000E-03 0. -1.
        -11    1    3    3    0    0  0.85004901475E+01 -0.44752844940E+01 -0.11107464412E+01  0.96705874675E+01  0.51100000000E-03 0.  1.
        -12    1    3    3    0    0 -0.35477580480E+02  0.16296730013E+02 -0.19812407564E+02  0.43780973257E+02  0.00000000000E+00 0.  1.
</event>
<event>
 7    1  0.3925070E-015  0.9000770E+02  0.7816164E-02  0.1186339E+00
        -11   -1    0    0    0    0  0.00000000000E+00  0.00000000000E+00  0.45593999997E+02  0.45594000000E+02  0.51100000000E-03 0.  1.
         11   -1    0    0    0    0 -0.00000000000E+00 -0.00000000000E+00 -0.45593999997E+02  0.45594000000E+02  0.51100000000E-03 0. -1.
    9900012    2    1    2    0    0  0.71992826741E+00 -0.77252676675E+00 -0.52725897258E+00  0.90007704978E+02  0.89999965883E+02 0.  0.
        -12    1    1    2    0    0 -0.71992826741E+00  0.77252676675E+00  0.52725897258E+00  0.11802950223E+01  0.00000000000E+00 0.  1.
         11    1    3    3    0    0 -0.56424192379E+01  0.17378369185E+01 -0.19813544541E+01  0.62275788028E+01  0.51100000000E-03 0. -1.
        -11    1    3    3    0    0  0.12783034078E+02  0.38369130577E+02 -0.82534064040E+01  0.41276080955E+02  0.51100000000E-03 0.  1.
         12    1    3    3    0    0 -0.64206865727E+01 -0.40879494262E+02  0.97075018856E+01  0.42504045220E+02  0.00000000000E+00 0. -1.
</event>
<event>
 7    1  0.3925070E-015  0.9000775E+02  0.7816164E-02  0.1186339E+00
        -11   -1    0    0    0    0  0.00000000000E+00  0.00000000000E+00  0.45593999997E+02  0.45594000000E+02  0.51100000000E-03 0.  1.
         11   -1    0    0    0    0 -0.00000000000E+00 -0.00000000000E+00 -0.45593999997E+02  0.45594000000E+02  0.51100000000E-03 0. -1.
    9900012    2    1    2    0    0  0.11372553913E+01  0.69841684548E-01 -0.30784510067E+00  0.90007747361E+02  0.90000008826E+02 0.  0.
        -12    1    1    2    0    0 -0.11372553913E+01 -0.69841684548E-01  0.30784510067E+00  0.11802526390E+01  0.00000000000E+00 0.  1.
         11    1    3    3    0    0  0.16897803809E+02 -0.33880345229E+02  0.93786097054E+01  0.39004767486E+02  0.51100000000E-03 0. -1.
        -11    1    3    3    0    0 -0.13220524320E+01  0.34478661789E+00  0.95704656386E+01  0.96674977758E+01  0.51100000000E-03 0.  1.
        -12    1    3    3    0    0 -0.14438495986E+02  0.33605400295E+02 -0.19256920445E+02  0.41335482099E+02  0.00000000000E+00 0.  1.
</event>
<event>
 7    1  0.3925070E-015  0.9000776E+02  0.7816164E-02  0.1186339E+00
        -11   -1    0    0    0    0  0.00000000000E+00  0.00000000000E+00  0.45593999997E+02  0.45594000000E+02  0.51100000000E-03 0.  1.
         11   -1    0    0    0    0 -0.00000000000E+00 -0.00000000000E+00 -0.45593999997E+02  0.45594000000E+02  0.51100000000E-03 0. -1.
    9900012    2    1    2    0    0 -0.77785540135E+00 -0.18813454117E+00 -0.86747889735E+00  0.90007757115E+02  0.90000018709E+02 0.  0.
        -12    1    1    2    0    0  0.77785540135E+00  0.18813454117E+00  0.86747889735E+00  0.11802428853E+01  0.00000000000E+00 0.  1.
         11    1    3    3    0    0 -0.22643518146E+02 -0.15613738824E+02 -0.33221292832E+01  0.27704770299E+02  0.51100000000E-03 0. -1.
        -11    1    3    3    0    0 -0.91853632332E+01 -0.92505478122E+01 -0.14208502632E+02  0.19282766395E+02  0.51100000000E-03 0.  1.
        -12    1    3    3    0    0  0.31051025978E+02  0.24676152095E+02  0.16663153018E+02  0.43020220420E+02  0.00000000000E+00 0.  1.
</event>
<event>
 7    1  0.3925070E-015  0.9000775E+02  0.7816164E-02  0.1186339E+00
        -11   -1    0    0    0    0  0.00000000000E+00  0.00000000000E+00  0.45593999997E+02  0.45594000000E+02  0.51100000000E-03 0. -1.
         11   -1    0    0    0    0 -0.00000000000E+00 -0.00000000000E+00 -0.45593999997E+02  0.45594000000E+02  0.51100000000E-03 0.  1.
    9900012    2    1    2    0    0 -0.61972731559E+00 -0.87547649976E+00 -0.49240664689E+00  0.90007751995E+02  0.90000013521E+02 0.  0.
        -12    1    1    2    0    0  0.61972731559E+00  0.87547649976E+00  0.49240664689E+00  0.11802480050E+01  0.00000000000E+00 0.  1.
         11    1    3    3    0    0 -0.80537211148E+01  0.12334498658E+01 -0.10306324608E+02  0.13137889844E+02  0.51100000000E-03 0. -1.
        -11    1    3    3    0    0  0.56091792104E+01 -0.26935463483E+02 -0.22875673169E+02  0.35780979691E+02  0.51100000000E-03 0.  1.
         12    1    3    3    0    0  0.18248145888E+01  0.24826537118E+02  0.32689591130E+02  0.41088882460E+02  0.00000000000E+00 0. -1.
</event>
<event>
 7    1  0.3925070E-015  0.9000802E+02  0.7816164E-02  0.1186338E+00
        -11   -1    0    0    0    0  0.00000000000E+00  0.00000000000E+00  0.45593999997E+02  0.45594000000E+02  0.51100000000E-03 0. -1.
         11   -1    0    0    0    0 -0.00000000000E+00 -0.00000000000E+00 -0.45593999997E+02  0.45594000000E+02  0.51100000000E-03 0.  1.
    9900012    2    1    2    0    0 -0.55467036797E-01 -0.92445048384E+00  0.73120326682E+00  0.90008023938E+02  0.90000289054E+02 0.  0.
        -12    1    1    2    0    0  0.55467036797E-01  0.92445048384E+00 -0.73120326682E+00  0.11799760619E+01  0.00000000000E+00 0.  1.
         11    1    3    3    0    0 -0.26379026407E+01  0.85572984320E+01  0.18178572702E+01  0.91373131779E+01  0.51100000000E-03 0. -1.
        -11    1    3    3    0    0 -0.10191960845E+02  0.22859279351E+02  0.26524737311E+02  0.36468951287E+02  0.51100000000E-03 0.  1.
         12    1    3    3    0    0  0.12774396449E+02 -0.32341028267E+02 -0.27611391314E+02  0.44401759473E+02  0.00000000000E+00 0. -1.
</event>
<event>
 7    1  0.3925070E-015  0.9000768E+02  0.7816164E-02  0.1186339E+00
        -11   -1    0    0    0    0  0.00000000000E+00  0.00000000000E+00  0.45593999997E+02  0.45594000000E+02  0.51100000000E-03 0. -1.
         11   -1    0    0    0    0 -0.00000000000E+00 -0.00000000000E+00 -0.45593999997E+02  0.45594000000E+02  0.51100000000E-03 0.  1.
    9900012    2    1    2    0    0 -0.48452367241E+00  0.10751182513E+01 -0.50171260258E-01  0.90007678180E+02  0.89999938732E+02 0.  0.
        -12    1    1    2    0    0  0.48452367241E+00 -0.10751182513E+01  0.50171260258E-01  0.11803218200E+01  0.00000000000E+00 0.  1.
         11    1    3    3    0    0 -0.59163680058E+01 -0.77709626279E+01 -0.98440281843E+00  0.98163292383E+01  0.51100000000E-03 0. -1.
        -11    1    3    3    0    0  0.73482631508E+00 -0.32047124101E+02  0.16661490414E+02  0.36127045215E+02  0.51100000000E-03 0.  1.
         12    1    3    3    0    0  0.46970180183E+01  0.40893204980E+02 -0.15727258856E+02  0.44064303727E+02  0.00000000000E+00 0. -1.
</event>
<event>
 7    1  0.3925070E-015  0.9000779E+02  0.7816164E-02  0.1186339E+00
        -11   -1    0    0    0    0  0.00000000000E+00  0.00000000000E+00  0.45593999997E+02  0.45594000000E+02  0.51100000000E-03 0.  1.
         11   -1    0    0    0    0 -0.00000000000E+00 -0.00000000000E+00 -0.45593999997E+02  0.45594000000E+02  0.51100000000E-03 0. -1.
    9900012    2    1    2    0    0 -0.80443134451E+00 -0.53619224338E+00 -0.67697239619E+00  0.90007786657E+02  0.90000048641E+02 0.  0.
        -12    1    1    2    0    0  0.80443134451E+00  0.53619224338E+00  0.67697239619E+00  0.11802133430E+01  0.00000000000E+00 0.  1.
         11    1    3    3    0    0 -0.10003342043E+02  0.24730803609E+00  0.72307440343E+01  0.12345512255E+02  0.51100000000E-03 0. -1.
        -11    1    3    3    0    0  0.11075672973E+02  0.31082269441E+02 -0.25051460628E+02  0.41428899156E+02  0.51100000000E-03 0.  1.
         12    1    3    3    0    0 -0.18767622739E+01 -0.31865769721E+02  0.17143744198E+02  0.36233375245E+02  0.00000000000E+00 0. -1.
</event>
<event>
 7    1  0.3925070E-015  0.9000768E+02  0.7816164E-02  0.1186339E+00
        -11   -1    0    0    0    0  0.00000000000E+00  0.00000000000E+00  0.45593999997E+02  0.45594000000E+02  0.51100000000E-03 0. -1.
         11   -1    0    0    0    0 -0.00000000000E+00 -0.00000000000E+00 -0.45593999997E+02  0.45594000000E+02  0.51100000000E-03 0.  1.
    9900012    2    1    2    0    0  0.10653011746E+01  0.36290591978E+00  0.35579271029E+00  0.90007679810E+02  0.89999940383E+02 0.  0.
        -12    1    1    2    0    0 -0.10653011746E+01 -0.36290591978E+00 -0.35579271029E+00  0.11803201904E+01  0.00000000000E+00 0.  1.
         11    1    3    3    0    0 -0.64629948260E+01  0.24474440115E+01  0.74433302011E+01  0.10156940930E+02  0.51100000000E-03 0. -1.
        -11    1    3    3    0    0 -0.32646557624E+02  0.10497443089E+02  0.78508013020E+01  0.35179953347E+02  0.51100000000E-03 0.  1.
         12    1    3    3    0    0  0.40174853625E+02 -0.12581981181E+02 -0.14938338793E+02  0.44670785533E+02  0.00000000000E+00 0. -1.
</event>
<event>
 7    1  0.3925070E-015  0.9000781E+02  0.7816164E-02  0.1186339E+00
        -11   -1    0    0    0    0  0.00000000000E+00  0.00000000000E+00  0.45593999997E+02  0.45594000000E+02  0.51100000000E-03 0. -1.
         11   -1    0    0    0    0 -0.00000000000E+00 -0.00000000000E+00 -0.45593999997E+02  0.45594000000E+02  0.51100000000E-03 0.  1.
    9900012    2    1    2    0    0 -0.62662786566E+00 -0.82700950370E+00  0.56235735526E+00  0.90007808068E+02  0.90000070335E+02 0.  0.
        -12    1    1    2    0    0  0.62662786566E+00  0.82700950370E+00 -0.56235735526E+00  0.11801919320E+01  0.00000000000E+00 0.  1.
         11    1    3    3    0    0 -0.32695020254E+02  0.20952028135E+02  0.67465054634E+01  0.39414047859E+02  0.51100000000E-03 0. -1.
        -11    1    3    3    0    0  0.23147673418E+01  0.44087950113E+01  0.72034989094E+01  0.87570553325E+01  0.51100000000E-03 0.  1.
        -12    1    3    3    0    0  0.29753625047E+02 -0.26187832650E+02 -0.13387647017E+02  0.41836704877E+02  0.00000000000E+00 0.  1.
</event>
<event>
 7    1  0.3925070E-015  0.9000769E+02  0.7816164E-02  0.1186339E+00
        -11   -1    0    0    0    0  0.00000000000E+00  0.00000000000E+00  0.45593999997E+02  0.45594000000E+02  0.51100000000E-03 0. -1.
         11   -1    0    0    0    0 -0.00000000000E+00 -0.00000000000E+00 -0.45593999997E+02  0.45594000000E+02  0.51100000000E-03 0.  1.
    9900012    2    1    2    0    0 -0.11674621248E+00  0.70110936485E+00  0.94230377983E+00  0.90007694771E+02  0.89999955542E+02 0.  0.
        -12    1    1    2    0    0  0.11674621248E+00 -0.70110936485E+00 -0.94230377983E+00  0.11803052288E+01  0.00000000000E+00 0.  1.
         11    1    3    3    0    0 -0.53052041160E+01 -0.13183304225E+02  0.28704084369E+02  0.32029192320E+02  0.51100000000E-03 0. -1.
        -11    1    3    3    0    0  0.15746904777E+02 -0.71463656236E+01  0.46667254420E+01  0.17911277964E+02  0.51100000000E-03 0.  1.
        -12    1    3    3    0    0 -0.10558446874E+02  0.21030779213E+02 -0.32428506031E+02  0.40067224487E+02  0.00000000000E+00 0.  1.
</event>
<event>
 7    1  0.3925070E-015  0.9000770E+02  0.7816164E-02  0.1186339E+00
        -11   -1    0    0    0    0  0.00000000000E+00  0.00000000000E+00  0.45593999997E+02  0.45594000000E+02  0.51100000000E-03 0.  1.
         11   -1    0    0    0    0 -0.00000000000E+00 -0.00000000000E+00 -0.45593999997E+02  0.45594000000E+02  0.51100000000E-03 0. -1.
    9900012    2    1    2    0    0 -0.10822576693E+01 -0.33948875983E+00 -0.32645238541E+00  0.90007701122E+02  0.89999961977E+02 0.  0.
        -12    1    1    2    0    0  0.10822576693E+01  0.33948875983E+00  0.32645238541E+00  0.11802988778E+01  0.00000000000E+00 0.  1.
         11    1    3    3    0    0  0.12357439235E+02  0.34929970796E+02 -0.53400141489E+00  0.37055287369E+02  0.51100000000E-03 0. -1.
        -11    1    3    3    0    0 -0.55763766205E+01  0.72559697781E+01 -0.28861842963E+01  0.95955788615E+01  0.51100000000E-03 0.  1.
        -12    1    3    3    0    0 -0.78633202835E+01 -0.42525429334E+02  0.30937333258E+01  0.43356834891E+02  0.00000000000E+00 0.  1.
</event>
<event>
 7    1  0.3925070E-015  0.9000768E+02  0.7816164E-02  0.1186339E+00
        -11   -1    0    0    0    0  0.00000000000E+00  0.00000000000E+00  0.45593999997E+02  0.45594000000E+02  0.51100000000E-03 0.  1.
         11   -1    0    0    0    0 -0.00000000000E+00 -0.00000000000E+00 -0.45593999997E+02  0.45594000000E+02  0.51100000000E-03 0. -1.
    9900012    2    1    2    0    0  0.96276494810E+00  0.43762275447E+00  0.52413722905E+00  0.90007682307E+02  0.89999942914E+02 0.  0.
        -12    1    1    2    0    0 -0.96276494810E+00 -0.43762275447E+00 -0.52413722905E+00  0.11803176926E+01  0.00000000000E+00 0.  1.
         11    1    3    3    0    0 -0.72662914033E+01 -0.60773078972E+01 -0.21867449792E+01  0.97218576363E+01  0.51100000000E-03 0. -1.
        -11    1    3    3    0    0 -0.24736216011E+02  0.24144980064E+02  0.19071617584E+02  0.39478944292E+02  0.51100000000E-03 0.  1.
         12    1    3    3    0    0  0.32965272363E+02 -0.17630049413E+02 -0.16360735376E+02  0.40806880379E+02  0.00000000000E+00 0. -1.
</event>
<event>
 7    1  0.3925070E-015  0.9000775E+02  0.7816164E-02  0.1186339E+00
        -11   -1    0    0    0    0  0.00000000000E+00  0.00000000000E+00  0.45593999997E+02  0.45594000000E+02  0.51100000000E-03 0.  1.
         11   -1    0    0    0    0 -0.00000000000E+00 -0.00000000000E+00 -0.45593999997E+02  0.45594000000E+02  0.51100000000E-03 0. -1.
    9900012    2    1    2    0    0 -0.84325311062E+00 -0.57192720806E+00  0.59567136945E+00  0.90007745400E+02  0.90000006840E+02 0.  0.
        -12    1    1    2    0    0  0.84325311062E+00  0.57192720806E+00 -0.59567136945E+00  0.11802545998E+01  0.00000000000E+00 0.  1.
         11    1    3    3    0    0  0.29395067561E+02  0.41336031089E+01 -0.17571969901E+02  0.34495373574E+02  0.51100000000E-03 0. -1.
        -11    1    3    3    0    0  0.39853253345E+01 -0.78179523445E+00 -0.10141642527E+02  0.10924602291E+02  0.51100000000E-03 0.  1.
        -12    1    3    3    0    0 -0.34223646006E+02 -0.39237350825E+01  0.28309283798E+02  0.44587769535E+02  0.00000000000E+00 0.  1.
</event>
<event>
 7    1  0.3925070E-015  0.9000778E+02  0.7816164E-02  0.1186339E+00
        -11   -1    0    0    0    0  0.00000000000E+00  0.00000000000E+00  0.45593999997E+02  0.45594000000E+02  0.51100000000E-03 0. -1.
         11   -1    0    0    0    0 -0.00000000000E+00 -0.00000000000E+00 -0.45593999997E+02  0.45594000000E+02  0.51100000000E-03 0.  1.
    9900012    2    1    2    0    0 -0.71796928402E+00  0.50130554193E+00 -0.79128921488E+00  0.90007777241E+02  0.90000039101E+02 0.  0.
        -12    1    1    2    0    0  0.71796928402E+00 -0.50130554193E+00  0.79128921488E+00  0.11802227590E+01  0.00000000000E+00 0.  1.
         11    1    3    3    0    0 -0.28425673455E+01  0.56410796210E+01 -0.22145668135E+01  0.66937489374E+01  0.51100000000E-03 0. -1.
        -11    1    3    3    0    0  0.81328058020E+01  0.31197305987E+02  0.23930614127E+02  0.40150824697E+02  0.51100000000E-03 0.  1.
         12    1    3    3    0    0 -0.60082077405E+01 -0.36337080067E+02 -0.22507336528E+02  0.43163203607E+02  0.00000000000E+00 0. -1.
</event>
<event>
 7    1  0.3925070E-015  0.9000785E+02  0.7816164E-02  0.1186339E+00
        -11   -1    0    0    0    0  0.00000000000E+00  0.00000000000E+00  0.45593999997E+02  0.45594000000E+02  0.51100000000E-03 0.  1.
         11   -1    0    0    0    0 -0.00000000000E+00 -0.00000000000E+00 -0.45593999997E+02  0.45594000000E+02  0.51100000000E-03 0. -1.
    9900012    2    1    2    0    0  0.81195470417E+00  0.78284225113E+00 -0.34733430424E+00  0.90007850200E+02  0.90000113022E+02 0.  0.
        -12    1    1    2    0    0 -0.81195470417E+00 -0.78284225113E+00  0.34733430424E+00  0.11801498001E+01  0.00000000000E+00 0.  1.
         11    1    3    3    0    0 -0.82396416016E+01 -0.54974041928E+01  0.81090105165E+01  0.12801140512E+02  0.51100000000E-03 0. -1.
        -11    1    3    3    0    0 -0.70175443911E+01  0.93436888160E+01  0.31732709792E+02  0.33815903374E+02  0.51100000000E-03 0.  1.
         12    1    3    3    0    0  0.16069140697E+02 -0.30634423720E+01 -0.40189054613E+02  0.43390806314E+02  0.00000000000E+00 0. -1.
</event>
<event>
 7    1  0.3925070E-015  0.9000771E+02  0.7816164E-02  0.1186339E+00
        -11   -1    0    0    0    0  0.00000000000E+00  0.00000000000E+00  0.45593999997E+02  0.45594000000E+02  0.51100000000E-03 0.  1.
         11   -1    0    0    0    0 -0.00000000000E+00 -0.00000000000E+00 -0.45593999997E+02  0.45594000000E+02  0.51100000000E-03 0. -1.
    9900012    2    1    2    0    0  0.36519913804E+00  0.10669076586E+01  0.34846561338E+00  0.90007707390E+02  0.89999968327E+02 0.  0.
        -12    1    1    2    0    0 -0.36519913804E+00 -0.10669076586E+01 -0.34846561338E+00  0.11802926104E+01  0.00000000000E+00 0.  1.
         11    1    3    3    0    0  0.33600148732E+02 -0.22515019019E+01  0.19748465897E+00  0.33676078395E+02  0.51100000000E-03 0. -1.
        -11    1    3    3    0    0  0.96048115190E+01 -0.71331758363E+01 -0.22349935935E+01  0.12170858575E+02  0.51100000000E-03 0.  1.
        -12    1    3    3    0    0 -0.42839761113E+02  0.10451585397E+02  0.23859745480E+01  0.44160770420E+02  0.00000000000E+00 0.  1.
</event>
<event>
 7    1  0.3925070E-015  0.9000771E+02  0.7816164E-02  0.1186339E+00
        -11   -1    0    0    0    0  0.00000000000E+00  0.00000000000E+00  0.45593999997E+02  0.45594000000E+02  0.51100000000E-03 0.  1.
         11   -1    0    0    0    0 -0.00000000000E+00 -0.00000000000E+00 -0.45593999997E+02  0.45594000000E+02  0.51100000000E-03 0. -1.
    9900012    2    1    2    0    0  0.91812156084E+00  0.16278942548E+00  0.72363355732E+00  0.90007706340E+02  0.89999967264E+02 0.  0.
        -12    1    1    2    0    0 -0.91812156084E+00 -0.16278942548E+00 -0.72363355732E+00  0.11802936596E+01  0.00000000000E+00 0.  1.
         11    1    3    3    0    0 -0.87915178871E+01  0.11634616053E+01  0.40703806706E+01  0.97576856237E+01  0.51100000000E-03 0. -1.
        -11    1    3    3    0    0 -0.33465560851E+02  0.25767527556E+01  0.98175339140E+01  0.34970950663E+02  0.51100000000E-03 0.  1.
         12    1    3    3    0    0  0.43175200299E+02 -0.35774249355E+01 -0.13164281027E+02  0.45279070054E+02  0.00000000000E+00 0. -1.
</event>
<event>
 7    1  0.3925070E-015  0.9000764E+02  0.7816164E-02  0.1186339E+00
        -11   -1    0    0    0    0  0.00000000000E+00  0.00000000000E+00  0.45593999997E+02  0.45594000000E+02  0.51100000000E-03 0. -1.
         11   -1    0    0    0    0 -0.00000000000E+00 -0.00000000000E+00 -0.45593999997E+02  0.45594000000E+02  0.51100000000E-03 0.  1.
    9900012    2    1    2    0    0 -0.66257432777E+00  0.78076689152E+00  0.58706329861E+00  0.90007642005E+02  0.89999902080E+02 0.  0.
        -12    1    1    2    0    0  0.66257432777E+00 -0.78076689152E+00 -0.58706329861E+00  0.11803579945E+01  0.00000000000E+00 0.  1.
         11    1    3    3    0    0  0.38645279439E+01 -0.18832926848E+01 -0.86636310065E+01  0.96716012141E+01  0.51100000000E-03 0. -1.
        -11    1    3    3    0    0 -0.37412043947E+01 -0.15835545401E+02 -0.31567543912E+02  0.35514376488E+02  0.51100000000E-03 0.  1.
         12    1    3    3    0    0 -0.78589787688E+00  0.18499604978E+02  0.40818238217E+02  0.44821664303E+02  0.00000000000E+00 0. -1.
</event>
<event>
 7    1  0.3925070E-015  0.9000746E+02  0.7816164E-02  0.1186340E+00
        -11   -1    0    0    0    0  0.00000000000E+00  0.00000000000E+00  0.45593999997E+02  0.45594000000E+02  0.51100000000E-03 0. -1.
         11   -1    0    0    0    0 -0.00000000000E+00 -0.00000000000E+00 -0.45593999997E+02  0.45594000000E+02  0.51100000000E-03 0.  1.
    9900012    2    1    2    0    0  0.48586936257E+00 -0.87325733472E+00  0.62851341744E+00  0.90007459223E+02  0.89999716884E+02 0.  0.
        -12    1    1    2    0    0 -0.48586936257E+00  0.87325733472E+00 -0.62851341744E+00  0.11805407769E+01  0.00000000000E+00 0.  1.
         11    1    3    3    0    0 -0.18768828045E+02  0.17595444101E+02  0.25639559486E+02  0.36321557926E+02  0.51100000000E-03 0. -1.
        -11    1    3    3    0    0 -0.79149280388E+01  0.99456209630E+00  0.44487640707E+01  0.91338240425E+01  0.51100000000E-03 0.  1.
        -12    1    3    3    0    0  0.27169625446E+02 -0.19463263532E+02 -0.29459810139E+02  0.44552077254E+02  0.00000000000E+00 0.  1.
</event>
<event>
 7    1  0.4063055E-015  0.9000766E+02  0.7816164E-02  0.1186339E+00
        -11   -1    0    0    0    0  0.00000000000E+00  0.00000000000E+00  0.45593999997E+02  0.45594000000E+02  0.51100000000E-03 0. -1.
         11   -1    0    0    0    0 -0.00000000000E+00 -0.00000000000E+00 -0.45593999997E+02  0.45594000000E+02  0.51100000000E-03 0.  1.
    9900012    2    1    2    0    0  0.11515584140E+01 -0.56712994214E-01 -0.25277658812E+00  0.90007661426E+02  0.89999921757E+02 0.  0.
        -12    1    1    2    0    0 -0.11515584140E+01  0.56712994214E-01  0.25277658812E+00  0.11803385735E+01  0.00000000000E+00 0.  1.
         11    1    3    3    0    0  0.32021531045E+01  0.30389266833E+02  0.25413436838E+02  0.39744233486E+02  0.51100000000E-03 0. -1.
        -11    1    3    3    0    0 -0.89620160038E+01  0.21677196368E+01 -0.21552737348E+01  0.94689991239E+01  0.51100000000E-03 0.  1.
        -12    1    3    3    0    0  0.69114213134E+01 -0.32613699464E+02 -0.23510939691E+02  0.40794428817E+02  0.00000000000E+00 0.  1.
</event>
<event>
 7    1  0.3925070E-015  0.9000778E+02  0.7816164E-02  0.1186339E+00
        -11   -1    0    0    0    0  0.00000000000E+00  0.00000000000E+00  0.45593999997E+02  0.45594000000E+02  0.51100000000E-03 0. -1.
         11   -1    0    0    0    0 -0.00000000000E+00 -0.00000000000E+00 -0.45593999997E+02  0.45594000000E+02  0.51100000000E-03 0.  1.
    9900012    2    1    2    0    0  0.25280444078E+00 -0.34652239930E+00  0.10995142359E+01  0.90007779930E+02  0.90000041825E+02 0.  0.
        -12    1    1    2    0    0 -0.25280444078E+00  0.34652239930E+00 -0.10995142359E+01  0.11802200699E+01  0.00000000000E+00 0.  1.
         11    1    3    3    0    0  0.11256186135E+01  0.45963155311E+01 -0.72072034237E+01  0.86218858249E+01  0.51100000000E-03 0. -1.
        -11    1    3    3    0    0 -0.40231185529E+02  0.40340655830E+01  0.16090601481E+01  0.40464936044E+02  0.51100000000E-03 0.  1.
         12    1    3    3    0    0  0.39358371356E+02 -0.89769035134E+01  0.66976575115E+01  0.40920958061E+02  0.00000000000E+00 0. -1.
</event>
<event>
 7    1  0.3925070E-015  0.9000771E+02  0.7816164E-02  0.1186339E+00
        -11   -1    0    0    0    0  0.00000000000E+00  0.00000000000E+00  0.45593999997E+02  0.45594000000E+02  0.51100000000E-03 0.  1.
         11   -1    0    0    0    0 -0.00000000000E+00 -0.00000000000E+00 -0.45593999997E+02  0.45594000000E+02  0.51100000000E-03 0. -1.
    9900012    2    1    2    0    0  0.22204023546E+00 -0.98591841424E+00 -0.60971263976E+00  0.90007709151E+02  0.89999970112E+02 0.  0.
        -12    1    1    2    0    0 -0.22204023546E+00  0.98591841424E+00  0.60971263976E+00  0.11802908492E+01  0.00000000000E+00 0.  1.
         11    1    3    3    0    0 -0.11795015198E+02  0.30683307824E+01  0.17458145842E+01  0.12311982218E+02  0.51100000000E-03 0. -1.
        -11    1    3    3    0    0  0.17861127106E+02 -0.11847332403E+02  0.33926069619E+02  0.40129257987E+02  0.51100000000E-03 0.  1.
         12    1    3    3    0    0 -0.58440716724E+01  0.77930832063E+01 -0.36281596843E+02  0.37566468946E+02  0.00000000000E+00 0. -1.
</event>
<event>
 7    1  0.3925070E-015  0.9000821E+02  0.7816164E-02  0.1186338E+00
        -11   -1    0    0    0    0  0.00000000000E+00  0.00000000000E+00  0.45593999997E+02  0.45594000000E+02  0.51100000000E-03 0. -1.
         11   -1    0    0    0    0 -0.00000000000E+00 -0.00000000000E+00 -0.45593999997E+02  0.45594000000E+02  0.51100000000E-03 0.  1.
    9900012    2    1    2    0    0  0.11268219102E+01 -0.27356095924E+00  0.21755900591E+00  0.90008213944E+02  0.90000481567E+02 0.  0.
        -12    1    1    2    0    0 -0.11268219102E+01  0.27356095924E+00 -0.21755900591E+00  0.11797860555E+01  0.00000000000E+00 0.  1.
         11    1    3    3    0    0 -0.17573277569E+02  0.33473745027E+02 -0.47858471895E+01  0.38107952244E+02  0.51100000000E-03 0. -1.
        -11    1    3    3    0    0 -0.62372790949E+00  0.41552950257E+01 -0.65800811465E+01  0.78072390390E+01  0.51100000000E-03 0.  1.
        -12    1    3    3    0    0  0.19323827389E+02 -0.37902601012E+02  0.11583487342E+02  0.44093022661E+02  0.00000000000E+00 0.  1.
</event>
<event>
 7    1  0.3925070E-015  0.9000824E+02  0.7816164E-02  0.1186338E+00
        -11   -1    0    0    0    0  0.00000000000E+00  0.00000000000E+00  0.45593999997E+02  0.45594000000E+02  0.51100000000E-03 0.  1.
         11   -1    0    0    0    0 -0.00000000000E+00 -0.00000000000E+00 -0.45593999997E+02  0.45594000000E+02  0.51100000000E-03 0. -1.
    9900012    2    1    2    0    0 -0.11725509604E+01  0.12914960113E+00 -0.16546752772E-01  0.90008241902E+02  0.90000509894E+02 0.  0.
        -12    1    1    2    0    0  0.11725509604E+01 -0.12914960113E+00  0.16546752772E-01  0.11797580977E+01  0.00000000000E+00 0.  1.
         11    1    3    3    0    0 -0.84418684755E+00 -0.10687485954E+02 -0.78958973209E-01  0.10721065350E+02  0.51100000000E-03 0. -1.
        -11    1    3    3    0    0 -0.12018017228E+02  0.71267840029E+01  0.37433982458E+02  0.39956561805E+02  0.51100000000E-03 0.  1.
         12    1    3    3    0    0  0.11689653115E+02  0.36898515524E+01 -0.37371570237E+02  0.39330614748E+02  0.00000000000E+00 0. -1.
</event>
<event>
 7    1  0.3925070E-015  0.9000714E+02  0.7816164E-02  0.1186340E+00
        -11   -1    0    0    0    0  0.00000000000E+00  0.00000000000E+00  0.45593999997E+02  0.45594000000E+02  0.51100000000E-03 0.  1.
         11   -1    0    0    0    0 -0.00000000000E+00 -0.00000000000E+00 -0.45593999997E+02  0.45594000000E+02  0.51100000000E-03 0. -1.
    9900012    2    1    2    0    0 -0.71005834698E+00  0.31425113404E+00 -0.88965403733E+00  0.90007143981E+02  0.89999397480E+02 0.  0.
        -12    1    1    2    0    0  0.71005834698E+00 -0.31425113404E+00  0.88965403733E+00  0.11808560190E+01  0.00000000000E+00 0.  1.
         11    1    3    3    0    0  0.50744439964E+01  0.35843772140E+02  0.82939882726E+01  0.37139146797E+02  0.51100000000E-03 0. -1.
        -11    1    3    3    0    0 -0.10016257338E+02  0.36974738486E+01 -0.80944215229E+01  0.13398372438E+02  0.51100000000E-03 0.  1.
        -12    1    3    3    0    0  0.42317549951E+01 -0.39226994855E+02 -0.10892207870E+01  0.39469624746E+02  0.00000000000E+00 0.  1.
</event>
<event>
 7    1  0.3925070E-015  0.9000770E+02  0.7816164E-02  0.1186339E+00
        -11   -1    0    0    0    0  0.00000000000E+00  0.00000000000E+00  0.45593999997E+02  0.45594000000E+02  0.51100000000E-03 0.  1.
         11   -1    0    0    0    0 -0.00000000000E+00 -0.00000000000E+00 -0.45593999997E+02  0.45594000000E+02  0.51100000000E-03 0. -1.
    9900012    2    1    2    0    0  0.75643732241E+00  0.52838436206E+00 -0.73601562716E+00  0.90007700690E+02  0.89999961540E+02 0.  0.
        -12    1    1    2    0    0 -0.75643732241E+00 -0.52838436206E+00  0.73601562716E+00  0.11802993096E+01  0.00000000000E+00 0.  1.
         11    1    3    3    0    0 -0.15637216341E+02  0.34316527408E+02 -0.12440689349E+02  0.39710418532E+02  0.51100000000E-03 0. -1.
        -11    1    3    3    0    0 -0.61554773139E+01  0.17864240690E+00  0.68946705753E+01  0.92443656718E+01  0.51100000000E-03 0.  1.
        -12    1    3    3    0    0  0.22549130977E+02 -0.33966785453E+02  0.48100031466E+01  0.41052916487E+02  0.00000000000E+00 0.  1.
</event>
<event>
 7    1  0.3925070E-015  0.9000780E+02  0.7816164E-02  0.1186339E+00
        -11   -1    0    0    0    0  0.00000000000E+00  0.00000000000E+00  0.45593999997E+02  0.45594000000E+02  0.51100000000E-03 0.  1.
         11   -1    0    0    0    0 -0.00000000000E+00 -0.00000000000E+00 -0.45593999997E+02  0.45594000000E+02  0.51100000000E-03 0. -1.
    9900012    2    1    2    0    0 -0.74612456193E+00 -0.53357037573E+00 -0.74260519215E+00  0.90007804389E+02  0.90000066607E+02 0.  0.
        -12    1    1    2    0    0  0.74612456193E+00  0.53357037573E+00  0.74260519215E+00  0.11801956106E+01  0.00000000000E+00 0.  1.
         11    1    3    3    0    0  0.21609571474E+00 -0.93937212941E+01  0.80576096716E+01  0.12377955041E+02  0.51100000000E-03 0. -1.
        -11    1    3    3    0    0 -0.91366521007E+01  0.23984062870E+02  0.27407250694E+02  0.37548249949E+02  0.51100000000E-03 0.  1.
         12    1    3    3    0    0  0.81744318241E+01 -0.15123911952E+02 -0.36207465557E+02  0.40081599400E+02  0.00000000000E+00 0. -1.
</event>
<event>
 7    1  0.3925070E-015  0.9000781E+02  0.7816164E-02  0.1186339E+00
        -11   -1    0    0    0    0  0.00000000000E+00  0.00000000000E+00  0.45593999997E+02  0.45594000000E+02  0.51100000000E-03 0. -1.
         11   -1    0    0    0    0 -0.00000000000E+00 -0.00000000000E+00 -0.45593999997E+02  0.45594000000E+02  0.51100000000E-03 0.  1.
    9900012    2    1    2    0    0  0.96358716751E+00  0.34204472498E+00  0.58936492414E+00  0.90007811101E+02  0.90000073408E+02 0.  0.
        -12    1    1    2    0    0 -0.96358716751E+00 -0.34204472498E+00 -0.58936492414E+00  0.11801888989E+01  0.00000000000E+00 0.  1.
         11    1    3    3    0    0 -0.96836275184E+01 -0.31811182319E+02  0.17002189730E+02  0.37347000125E+02  0.51100000000E-03 0. -1.
        -11    1    3    3    0    0  0.25446295784E+01 -0.81061427565E+01 -0.56630640153E+01  0.10210533012E+02  0.51100000000E-03 0.  1.
        -12    1    3    3    0    0  0.81025851075E+01  0.40259369801E+02 -0.10749760790E+02  0.42450277964E+02  0.00000000000E+00 0.  1.
</event>
<event>
 7    1  0.3925070E-015  0.9000787E+02  0.7816164E-02  0.1186339E+00
        -11   -1    0    0    0    0  0.00000000000E+00  0.00000000000E+00  0.45593999997E+02  0.45594000000E+02  0.51100000000E-03 0.  1.
         11   -1    0    0    0    0 -0.00000000000E+00 -0.00000000000E+00 -0.45593999997E+02  0.45594000000E+02  0.51100000000E-03 0. -1.
    9900012    2    1    2    0    0  0.12564647736E+00  0.11045935049E+01  0.39597046612E+00  0.90007870152E+02  0.90000133238E+02 0.  0.
        -12    1    1    2    0    0 -0.12564647736E+00 -0.11045935049E+01 -0.39597046612E+00  0.11801298481E+01  0.00000000000E+00 0.  1.
         11    1    3    3    0    0 -0.41905045849E+01 -0.59216597019E+01  0.65163590966E+01  0.97513752075E+01  0.51100000000E-03 0. -1.
        -11    1    3    3    0    0  0.20094777872E+02 -0.26717641260E+02 -0.21724448787E+02  0.39869589007E+02  0.51100000000E-03 0.  1.
         12    1    3    3    0    0 -0.15778626810E+02  0.33743894467E+02  0.15604060157E+02  0.40386905937E+02  0.00000000000E+00 0. -1.
</event>
<event>
 7    1  0.3925070E-015  0.9000755E+02  0.7816164E-02  0.1186339E+00
        -11   -1    0    0    0    0  0.00000000000E+00  0.00000000000E+00  0.45593999997E+02  0.45594000000E+02  0.51100000000E-03 0.  1.
         11   -1    0    0    0    0 -0.00000000000E+00 -0.00000000000E+00 -0.45593999997E+02  0.45594000000E+02  0.51100000000E-03 0. -1.
    9900012    2    1    2    0    0  0.74495033333E+00 -0.91420564294E+00  0.52439849651E-01  0.90007545471E+02  0.89999804271E+02 0.  0.
        -12    1    1    2    0    0 -0.74495033333E+00  0.91420564294E+00 -0.52439849651E-01  0.11804545288E+01  0.00000000000E+00 0.  1.
         11    1    3    3    0    0  0.20563141290E+02 -0.35581378186E+02  0.60173398732E+00  0.41100356900E+02  0.51100000000E-03 0. -1.
        -11    1    3    3    0    0  0.56261896760E+01  0.75668377219E+01  0.59790351942E+01  0.11165120039E+02  0.51100000000E-03 0.  1.
        -12    1    3    3    0    0 -0.25444380632E+02  0.27100334821E+02 -0.65283293319E+01  0.37742068531E+02  0.00000000000E+00 0.  1.
</event>
<event>
 7    1  0.3925070E-015  0.9000791E+02  0.7816164E-02  0.1186339E+00
        -11   -1    0    0    0    0  0.00000000000E+00  0.00000000000E+00  0.45593999997E+02  0.45594000000E+02  0.51100000000E-03 0.  1.
         11   -1    0    0    0    0 -0.00000000000E+00 -0.00000000000E+00 -0.45593999997E+02  0.45594000000E+02  0.51100000000E-03 0. -1.
    9900012    2    1    2    0    0  0.80177952635E-01 -0.84261825976E+00 -0.82230541433E+00  0.90007906686E+02  0.90000170254E+02 0.  0.
        -12    1    1    2    0    0 -0.80177952635E-01  0.84261825976E+00  0.82230541433E+00  0.11800933142E+01  0.00000000000E+00 0.  1.
         11    1    3    3    0    0 -0.20193581994E+01 -0.65724189712E+01  0.90900005733E+01  0.11397482588E+02  0.51100000000E-03 0. -1.
        -11    1    3    3    0    0  0.32211771718E+02 -0.10706027661E+02  0.14078672949E+02  0.36748146861E+02  0.51100000000E-03 0.  1.
         12    1    3    3    0    0 -0.30112235566E+02  0.16435828372E+02 -0.23990978937E+02  0.41862277236E+02  0.00000000000E+00 0. -1.
</event>
<event>
 7    1  0.3925070E-015  0.9000777E+02  0.7816164E-02  0.1186339E+00
        -11   -1    0    0    0    0  0.00000000000E+00  0.00000000000E+00  0.45593999997E+02  0.45594000000E+02  0.51100000000E-03 0.  1.
         11   -1    0    0    0    0 -0.00000000000E+00 -0.00000000000E+00 -0.45593999997E+02  0.45594000000E+02  0.51100000000E-03 0. -1.
    9900012    2    1    2    0    0 -0.59226446565E+00 -0.10079376273E+01 -0.16196209196E+00  0.90007768168E+02  0.90000029908E+02 0.  0.
        -12    1    1    2    0    0  0.59226446565E+00  0.10079376273E+01  0.16196209196E+00  0.11802318319E+01  0.00000000000E+00 0.  1.
         11    1    3    3    0    0 -0.88590357543E+01 -0.56628232621E+00 -0.46546167751E+01  0.10023404998E+02  0.51100000000E-03 0. -1.
        -11    1    3    3    0    0 -0.95432342957E+01 -0.22340627851E+02 -0.27916121106E+02  0.37006577678E+02  0.51100000000E-03 0.  1.
         12    1    3    3    0    0  0.17810005584E+02  0.21898972550E+02  0.32408775789E+02  0.42977785492E+02  0.00000000000E+00 0. -1.
</event>
<event>
 7    1  0.3925070E-015  0.9000775E+02  0.7816164E-02  0.1186339E+00
        -11   -1    0    0    0    0  0.00000000000E+00  0.00000000000E+00  0.45593999997E+02  0.45594000000E+02  0.51100000000E-03 0.  1.
         11   -1    0    0    0    0 -0.00000000000E+00 -0.00000000000E+00 -0.45593999997E+02  0.45594000000E+02  0.51100000000E-03 0. -1.
    9900012    2    1    2    0    0 -0.58031300833E+00  0.57265306104E+00 -0.85339851109E+00  0.90007752681E+02  0.90000014216E+02 0.  0.
        -12    1    1    2    0    0  0.58031300833E+00 -0.57265306104E+00  0.85339851109E+00  0.11802473193E+01  0.00000000000E+00 0.  1.
         11    1    3    3    0    0  0.41336776034E+02 -0.89207269482E+01  0.55006475175E+01  0.42644642636E+02  0.51100000000E-03 0. -1.
        -11    1    3    3    0    0 -0.43311246067E+01  0.67211835818E+01 -0.54270841012E+01  0.96636530982E+01  0.51100000000E-03 0.  1.
        -12    1    3    3    0    0 -0.37585964436E+02  0.27721964274E+01 -0.92696192739E+00  0.37699456946E+02  0.00000000000E+00 0.  1.
</event>
<event>
 7    1  0.3925070E-015  0.9000776E+02  0.7816164E-02  0.1186339E+00
        -11   -1    0    0    0    0  0.00000000000E+00  0.00000000000E+00  0.45593999997E+02  0.45594000000E+02  0.51100000000E-03 0.  1.
         11   -1    0    0    0    0 -0.00000000000E+00 -0.00000000000E+00 -0.45593999997E+02  0.45594000000E+02  0.51100000000E-03 0. -1.
    9900012    2    1    2    0    0 -0.52291392883E+00  0.10387352016E+01  0.20136168719E+00  0.90007764293E+02  0.90000025981E+02 0.  0.
        -12    1    1    2    0    0  0.52291392883E+00 -0.10387352016E+01 -0.20136168719E+00  0.11802357074E+01  0.00000000000E+00 0.  1.
         11    1    3    3    0    0  0.31097553218E+02 -0.21418885674E+02 -0.10180704150E+02  0.39108480115E+02  0.51100000000E-03 0. -1.
        -11    1    3    3    0    0 -0.50172058031E+01 -0.30095721440E+01 -0.78619015635E+01  0.97999681130E+01  0.51100000000E-03 0.  1.
        -12    1    3    3    0    0 -0.26603261344E+02  0.25467193020E+02  0.18243967401E+02  0.41099316064E+02  0.00000000000E+00 0.  1.
</event>
<event>
 7    1  0.3925070E-015  0.9000773E+02  0.7816164E-02  0.1186339E+00
        -11   -1    0    0    0    0  0.00000000000E+00  0.00000000000E+00  0.45593999997E+02  0.45594000000E+02  0.51100000000E-03 0. -1.
         11   -1    0    0    0    0 -0.00000000000E+00 -0.00000000000E+00 -0.45593999997E+02  0.45594000000E+02  0.51100000000E-03 0.  1.
    9900012    2    1    2    0    0  0.97735601466E+00  0.31637822350E+00  0.58112847374E+00  0.90007732970E+02  0.89999994245E+02 0.  0.
        -12    1    1    2    0    0 -0.97735601466E+00 -0.31637822350E+00 -0.58112847374E+00  0.11802670302E+01  0.00000000000E+00 0.  1.
         11    1    3    3    0    0  0.35641614057E+01 -0.81056189516E+01  0.57245822650E+01  0.10543962608E+02  0.51100000000E-03 0. -1.
        -11    1    3    3    0    0 -0.14774259186E+02  0.40996590058E+02 -0.89148521672E+01  0.44480037324E+02  0.51100000000E-03 0.  1.
         12    1    3    3    0    0  0.12187453795E+02 -0.32574592883E+02  0.37713983760E+01  0.34983733037E+02  0.00000000000E+00 0. -1.
</event>
<event>
 7    1  0.3925070E-015  0.9000779E+02  0.7816164E-02  0.1186339E+00
        -11   -1    0    0    0    0  0.00000000000E+00  0.00000000000E+00  0.45593999997E+02  0.45594000000E+02  0.51100000000E-03 0. -1.
         11   -1    0    0    0    0 -0.00000000000E+00 -0.00000000000E+00 -0.45593999997E+02  0.45594000000E+02  0.51100000000E-03 0.  1.
    9900012    2    1    2    0    0  0.87015929698E+00  0.73231864191E+00  0.31530521982E+00  0.90007794434E+02  0.90000056521E+02 0.  0.
        -12    1    1    2    0    0 -0.87015929698E+00 -0.73231864191E+00 -0.31530521982E+00  0.11802055656E+01  0.00000000000E+00 0.  1.
         11    1    3    3    0    0  0.53074325559E+01  0.26284264190E+02  0.25086410547E+02  0.36720013327E+02  0.51100000000E-03 0. -1.
        -11    1    3    3    0    0  0.92960549840E+00  0.10545337509E+02 -0.41498237085E+01  0.11370547333E+02  0.51100000000E-03 0.  1.
        -12    1    3    3    0    0 -0.53668787573E+01 -0.36097283058E+02 -0.20621281618E+02  0.41917233775E+02  0.00000000000E+00 0.  1.
</event>
<event>
 7    1  0.3925070E-015  0.9000771E+02  0.7816164E-02  0.1186339E+00
        -11   -1    0    0    0    0  0.00000000000E+00  0.00000000000E+00  0.45593999997E+02  0.45594000000E+02  0.51100000000E-03 0.  1.
         11   -1    0    0    0    0 -0.00000000000E+00 -0.00000000000E+00 -0.45593999997E+02  0.45594000000E+02  0.51100000000E-03 0. -1.
    9900012    2    1    2    0    0  0.11396237071E+01 -0.11890838890E+00  0.28318354443E+00  0.90007714306E+02  0.89999975335E+02 0.  0.
        -12    1    1    2    0    0 -0.11396237071E+01  0.11890838890E+00 -0.28318354443E+00  0.11802856937E+01  0.00000000000E+00 0.  1.
         11    1    3    3    0    0  0.18657182741E+02 -0.30355369488E+02 -0.83780090754E+01  0.36602321797E+02  0.51100000000E-03 0. -1.
        -11    1    3    3    0    0  0.12415542626E+01  0.46054924518E+01 -0.13735874770E+02  0.14540504588E+02  0.51100000000E-03 0.  1.
        -12    1    3    3    0    0 -0.18759113297E+02  0.25630968648E+02  0.22397067390E+02  0.38864887922E+02  0.00000000000E+00 0.  1.
</event>
<event>
 7    1  0.3925070E-015  0.9000775E+02  0.7816164E-02  0.1186339E+00
        -11   -1    0    0    0    0  0.00000000000E+00  0.00000000000E+00  0.45593999997E+02  0.45594000000E+02  0.51100000000E-03 0. -1.
         11   -1    0    0    0    0 -0.00000000000E+00 -0.00000000000E+00 -0.45593999997E+02  0.45594000000E+02  0.51100000000E-03 0.  1.
    9900012    2    1    2    0    0 -0.33490593909E+00 -0.75913337052E+00  0.83937822925E+00  0.90007745250E+02  0.90000006688E+02 0.  0.
        -12    1    1    2    0    0  0.33490593909E+00  0.75913337052E+00 -0.83937822925E+00  0.11802547496E+01  0.00000000000E+00 0.  1.
         11    1    3    3    0    0  0.13477495215E+02  0.34318012438E+02 -0.56959486391E+01  0.37307005858E+02  0.51100000000E-03 0. -1.
        -11    1    3    3    0    0  0.31721473175E+01  0.14929250483E+01 -0.88688886586E+01  0.95366938770E+01  0.51100000000E-03 0.  1.
        -12    1    3    3    0    0 -0.16984548472E+02 -0.36570070856E+02  0.15404215527E+02  0.43164045515E+02  0.00000000000E+00 0.  1.
</event>
<event>
 7    1  0.3988987E-015  0.9000764E+02  0.7816164E-02  0.1186339E+00
        -11   -1    0    0    0    0  0.00000000000E+00  0.00000000000E+00  0.45593999997E+02  0.45594000000E+02  0.51100000000E-03 0.  1.
         11   -1    0    0    0    0 -0.00000000000E+00 -0.00000000000E+00 -0.45593999997E+02  0.45594000000E+02  0.51100000000E-03 0. -1.
    9900012    2    1    2    0    0  0.32829746454E+00 -0.10525102157E+01  0.42152396922E+00  0.90007644360E+02  0.89999904466E+02 0.  0.
        -12    1    1    2    0    0 -0.32829746454E+00  0.10525102157E+01 -0.42152396922E+00  0.11803556396E+01  0.00000000000E+00 0.  1.
         11    1    3    3    0    0 -0.17711548720E+02 -0.59088514340E+01 -0.33439149998E+02  0.38298697578E+02  0.51100000000E-03 0. -1.
        -11    1    3    3    0    0  0.52570495547E+01  0.28424062914E+01 -0.67916640912E+01  0.90466869591E+01  0.51100000000E-03 0.  1.
        -12    1    3    3    0    0  0.12782796630E+02  0.20139349269E+01  0.40652338059E+02  0.42662259823E+02  0.00000000000E+00 0.  1.
</event>
<event>
 7    1  0.3925070E-015  0.9000808E+02  0.7816164E-02  0.1186338E+00
        -11   -1    0    0    0    0  0.00000000000E+00  0.00000000000E+00  0.45593999997E+02  0.45594000000E+02  0.51100000000E-03 0.  1.
         11   -1    0    0    0    0 -0.00000000000E+00 -0.00000000000E+00 -0.45593999997E+02  0.45594000000E+02  0.51100000000E-03 0. -1.
    9900012    2    1    2    0    0  0.11214637284E+01 -0.10577491139E+00 -0.35120480947E+00  0.90008078797E+02  0.90000344637E+02 0.  0.
        -12    1    1    2    0    0 -0.11214637284E+01  0.10577491139E+00  0.35120480947E+00  0.11799212026E+01  0.00000000000E+00 0.  1.
         11    1    3    3    0    0 -0.35267165317E+02  0.52263628113E+01 -0.12349091438E+02  0.37730463519E+02  0.51100000000E-03 0. -1.
        -11    1    3    3    0    0 -0.63892898644E+01  0.33768330003E+01  0.16850306463E+01  0.74206033868E+01  0.51100000000E-03 0.  1.
        -12    1    3    3    0    0  0.42777918910E+02 -0.87089707230E+01  0.10312855983E+02  0.44857011892E+02  0.00000000000E+00 0.  1.
</event>
<event>
 7    1  0.3925070E-015  0.9000763E+02  0.7816164E-02  0.1186339E+00
        -11   -1    0    0    0    0  0.00000000000E+00  0.00000000000E+00  0.45593999997E+02  0.45594000000E+02  0.51100000000E-03 0.  1.
         11   -1    0    0    0    0 -0.00000000000E+00 -0.00000000000E+00 -0.45593999997E+02  0.45594000000E+02  0.51100000000E-03 0. -1.
    9900012    2    1    2    0    0  0.63508905626E+00  0.99319640528E+00 -0.59046534227E-01  0.90007634081E+02  0.89999894051E+02 0.  0.
        -12    1    1    2    0    0 -0.63508905626E+00 -0.99319640528E+00  0.59046534227E-01  0.11803659187E+01  0.00000000000E+00 0.  1.
         11    1    3    3    0    0 -0.12803503658E+02  0.47044094219E+00 -0.36926105749E+02  0.39085653464E+02  0.51100000000E-03 0. -1.
        -11    1    3    3    0    0 -0.52481564929E+01  0.55511063334E+01 -0.16514153350E+01  0.78156958083E+01  0.51100000000E-03 0.  1.
        -12    1    3    3    0    0  0.18686749207E+02 -0.50283508703E+01  0.38518474550E+02  0.43106284809E+02  0.00000000000E+00 0.  1.
</event>
<event>
 7    1  0.3925070E-015  0.9000778E+02  0.7816164E-02  0.1186339E+00
        -11   -1    0    0    0    0  0.00000000000E+00  0.00000000000E+00  0.45593999997E+02  0.45594000000E+02  0.51100000000E-03 0. -1.
         11   -1    0    0    0    0 -0.00000000000E+00 -0.00000000000E+00 -0.45593999997E+02  0.45594000000E+02  0.51100000000E-03 0.  1.
    9900012    2    1    2    0    0  0.75761851870E+00 -0.90459336369E+00 -0.25157478477E-01  0.90007784820E+02  0.90000046779E+02 0.  0.
        -12    1    1    2    0    0 -0.75761851870E+00  0.90459336369E+00  0.25157478477E-01  0.11802151805E+01  0.00000000000E+00 0.  1.
         11    1    3    3    0    0 -0.15649097405E+02 -0.29593451669E+02  0.22918126080E+02  0.40569781052E+02  0.51100000000E-03 0. -1.
        -11    1    3    3    0    0 -0.68458667990E+01  0.45401933632E+01  0.95227787641E+00  0.82695877418E+01  0.51100000000E-03 0.  1.
        -12    1    3    3    0    0  0.23252582723E+02  0.24148664942E+02 -0.23895561435E+02  0.41168416026E+02  0.00000000000E+00 0.  1.
</event>
<event>
 7    1  0.3925070E-015  0.9000837E+02  0.7816164E-02  0.1186338E+00
        -11   -1    0    0    0    0  0.00000000000E+00  0.00000000000E+00  0.45593999997E+02  0.45594000000E+02  0.51100000000E-03 0.  1.
         11   -1    0    0    0    0 -0.00000000000E+00 -0.00000000000E+00 -0.45593999997E+02  0.45594000000E+02  0.51100000000E-03 0. -1.
    9900012    2    1    2    0    0  0.91278938484E+00 -0.74696135652E+00 -0.19594346813E-01  0.90008373081E+02  0.90000642804E+02 0.  0.
        -12    1    1    2    0    0 -0.91278938484E+00  0.74696135652E+00  0.19594346813E-01  0.11796269188E+01  0.00000000000E+00 0.  1.
         11    1    3    3    0    0 -0.21410754328E+02 -0.32182168901E+02 -0.20761416799E+01  0.38709466033E+02  0.51100000000E-03 0. -1.
        -11    1    3    3    0    0 -0.75309038909E+01 -0.48366236281E+00  0.12789659804E-01  0.75464300522E+01  0.51100000000E-03 0.  1.
        -12    1    3    3    0    0  0.29854447603E+02  0.31918869907E+02  0.20437576732E+01  0.43752476996E+02  0.00000000000E+00 0.  1.
</event>
<event>
 7    1  0.3925070E-015  0.9000775E+02  0.7816164E-02  0.1186339E+00
        -11   -1    0    0    0    0  0.00000000000E+00  0.00000000000E+00  0.45593999997E+02  0.45594000000E+02  0.51100000000E-03 0. -1.
         11   -1    0    0    0    0 -0.00000000000E+00 -0.00000000000E+00 -0.45593999997E+02  0.45594000000E+02  0.51100000000E-03 0.  1.
    9900012    2    1    2    0    0 -0.39493541444E+00  0.37437179461E+00  0.10473107898E+01  0.90007750826E+02  0.90000012337E+02 0.  0.
        -12    1    1    2    0    0  0.39493541444E+00 -0.37437179461E+00 -0.10473107898E+01  0.11802491739E+01  0.00000000000E+00 0.  1.
         11    1    3    3    0    0 -0.36834242850E+01 -0.10799320045E+02 -0.60128120515E+01  0.12897551586E+02  0.51100000000E-03 0. -1.
        -11    1    3    3    0    0 -0.31532671241E+02  0.18269675883E+02 -0.98565159447E+01  0.37752368394E+02  0.51100000000E-03 0.  1.
         12    1    3    3    0    0  0.34821160112E+02 -0.70959840441E+01  0.16916638786E+02  0.39357830846E+02  0.00000000000E+00 0. -1.
</event>
<event>
 7    1  0.3925070E-015  0.9000793E+02  0.7816164E-02  0.1186339E+00
        -11   -1    0    0    0    0  0.00000000000E+00  0.00000000000E+00  0.45593999997E+02  0.45594000000E+02  0.51100000000E-03 0. -1.
         11   -1    0    0    0    0 -0.00000000000E+00 -0.00000000000E+00 -0.45593999997E+02  0.45594000000E+02  0.51100000000E-03 0.  1.
    9900012    2    1    2    0    0 -0.90944406428E+00  0.69050137740E+00 -0.29779694360E+00  0.90007930647E+02  0.90000194531E+02 0.  0.
        -12    1    1    2    0    0  0.90944406428E+00 -0.69050137740E+00  0.29779694360E+00  0.11800693530E+01  0.00000000000E+00 0.  1.
         11    1    3    3    0    0  0.42218894485E+01  0.25109169211E+01 -0.84787482591E+01  0.97988890494E+01  0.51100000000E-03 0. -1.
        -11    1    3    3    0    0  0.26686241522E+02 -0.26394260961E+02  0.12993650612E+02  0.39719610456E+02  0.51100000000E-03 0.  1.
         12    1    3    3    0    0 -0.31817575035E+02  0.24573845417E+02 -0.48126992964E+01  0.40489431142E+02  0.00000000000E+00 0. -1.
</event>
<event>
 7    1  0.3925070E-015  0.9000770E+02  0.7816164E-02  0.1186339E+00
        -11   -1    0    0    0    0  0.00000000000E+00  0.00000000000E+00  0.45593999997E+02  0.45594000000E+02  0.51100000000E-03 0. -1.
         11   -1    0    0    0    0 -0.00000000000E+00 -0.00000000000E+00 -0.45593999997E+02  0.45594000000E+02  0.51100000000E-03 0.  1.
    9900012    2    1    2    0    0 -0.94042462386E-01  0.84582709896E+00  0.81782955022E+00  0.90007698073E+02  0.89999958887E+02 0.  0.
        -12    1    1    2    0    0  0.94042462386E-01 -0.84582709896E+00 -0.81782955022E+00  0.11803019272E+01  0.00000000000E+00 0.  1.
         11    1    3    3    0    0  0.32265723748E+01 -0.23828135308E+01 -0.79023204652E+01  0.88620109799E+01  0.51100000000E-03 0. -1.
        -11    1    3    3    0    0  0.29962892838E+02  0.18147266504E+02  0.23076603955E+02  0.41947918651E+02  0.51100000000E-03 0.  1.
         12    1    3    3    0    0 -0.33283507675E+02 -0.14918625874E+02 -0.14356453940E+02  0.39197768442E+02  0.00000000000E+00 0. -1.
</event>
<event>
 7    1  0.3925070E-015  0.9000777E+02  0.7816164E-02  0.1186339E+00
        -11   -1    0    0    0    0  0.00000000000E+00  0.00000000000E+00  0.45593999997E+02  0.45594000000E+02  0.51100000000E-03 0.  1.
         11   -1    0    0    0    0 -0.00000000000E+00 -0.00000000000E+00 -0.45593999997E+02  0.45594000000E+02  0.51100000000E-03 0. -1.
    9900012    2    1    2    0    0 -0.49820444776E+00 -0.26987996282E+00 -0.10353285147E+01  0.90007767820E+02  0.90000029555E+02 0.  0.
        -12    1    1    2    0    0  0.49820444776E+00  0.26987996282E+00  0.10353285147E+01  0.11802321803E+01  0.00000000000E+00 0.  1.
         11    1    3    3    0    0 -0.26930371650E+02 -0.20515867571E+02 -0.14363106125E+02  0.36775597306E+02  0.51100000000E-03 0. -1.
        -11    1    3    3    0    0 -0.30557827940E+01 -0.42726039866E+01 -0.78333467216E+01  0.94315573704E+01  0.51100000000E-03 0.  1.
        -12    1    3    3    0    0  0.29487949996E+02  0.24518591594E+02  0.21161124332E+02  0.43800613143E+02  0.00000000000E+00 0.  1.
</event>
<event>
 7    1  0.3925070E-015  0.9000792E+02  0.7816164E-02  0.1186339E+00
        -11   -1    0    0    0    0  0.00000000000E+00  0.00000000000E+00  0.45593999997E+02  0.45594000000E+02  0.51100000000E-03 0. -1.
         11   -1    0    0    0    0 -0.00000000000E+00 -0.00000000000E+00 -0.45593999997E+02  0.45594000000E+02  0.51100000000E-03 0.  1.
    9900012    2    1    2    0    0 -0.98855259149E+00 -0.51157057845E+00  0.39199439073E+00  0.90007915136E+02  0.90000178816E+02 0.  0.
        -12    1    1    2    0    0  0.98855259149E+00  0.51157057845E+00 -0.39199439073E+00  0.11800848636E+01  0.00000000000E+00 0.  1.
         11    1    3    3    0    0  0.19718635179E+01 -0.29259671799E+01  0.60655792794E+01  0.70171776326E+01  0.51100000000E-03 0. -1.
        -11    1    3    3    0    0  0.10998113883E+02  0.29280881855E+02  0.24887772484E+02  0.39971612060E+02  0.51100000000E-03 0.  1.
         12    1    3    3    0    0 -0.13958529992E+02 -0.26866485254E+02 -0.30561357373E+02  0.43019125444E+02  0.00000000000E+00 0. -1.
</event>
<event>
 7    1  0.3925070E-015  0.9000782E+02  0.7816164E-02  0.1186339E+00
        -11   -1    0    0    0    0  0.00000000000E+00  0.00000000000E+00  0.45593999997E+02  0.45594000000E+02  0.51100000000E-03 0.  1.
         11   -1    0    0    0    0 -0.00000000000E+00 -0.00000000000E+00 -0.45593999997E+02  0.45594000000E+02  0.51100000000E-03 0. -1.
    9900012    2    1    2    0    0 -0.49188766046E+00  0.34143341600E+00 -0.10170079023E+01  0.90007815556E+02  0.90000077921E+02 0.  0.
        -12    1    1    2    0    0  0.49188766046E+00 -0.34143341600E+00  0.10170079023E+01  0.11801844438E+01  0.00000000000E+00 0.  1.
         11    1    3    3    0    0 -0.28406156884E+01 -0.29043529239E+01  0.89122499141E+01  0.97945169451E+01  0.51100000000E-03 0. -1.
        -11    1    3    3    0    0  0.28671928815E+01  0.39847522889E+02  0.58040388294E+01  0.40369948506E+02  0.51100000000E-03 0.  1.
         12    1    3    3    0    0 -0.51846485358E+00 -0.36601736549E+02 -0.15733296646E+02  0.39843350105E+02  0.00000000000E+00 0. -1.
</event>
<event>
 7    1  0.3925070E-015  0.9000764E+02  0.7816164E-02  0.1186339E+00
        -11   -1    0    0    0    0  0.00000000000E+00  0.00000000000E+00  0.45593999997E+02  0.45594000000E+02  0.51100000000E-03 0.  1.
         11   -1    0    0    0    0 -0.00000000000E+00 -0.00000000000E+00 -0.45593999997E+02  0.45594000000E+02  0.51100000000E-03 0. -1.
    9900012    2    1    2    0    0 -0.11090652907E+01  0.21824990849E+00 -0.33999374112E+00  0.90007637943E+02  0.89999897964E+02 0.  0.
        -12    1    1    2    0    0  0.11090652907E+01 -0.21824990849E+00  0.33999374112E+00  0.11803620570E+01  0.00000000000E+00 0.  1.
         11    1    3    3    0    0 -0.17576817508E+02 -0.38802777956E+02  0.58529421155E+01  0.42998337439E+02  0.51100000000E-03 0. -1.
        -11    1    3    3    0    0 -0.31193572065E+01  0.14883581381E+02 -0.45837976798E+01  0.15882776380E+02  0.51100000000E-03 0.  1.
        -12    1    3    3    0    0  0.19587109424E+02  0.24137446484E+02 -0.16091381768E+01  0.31126524124E+02  0.00000000000E+00 0.  1.
</event>
<event>
 7    1  0.3925070E-015  0.9000774E+02  0.7816164E-02  0.1186339E+00
        -11   -1    0    0    0    0  0.00000000000E+00  0.00000000000E+00  0.45593999997E+02  0.45594000000E+02  0.51100000000E-03 0.  1.
         11   -1    0    0    0    0 -0.00000000000E+00 -0.00000000000E+00 -0.45593999997E+02  0.45594000000E+02  0.51100000000E-03 0. -1.
    9900012    2    1    2    0    0 -0.10841298592E+01 -0.14502516131E+00 -0.44344583393E+00  0.90007739835E+02  0.90000001201E+02 0.  0.
        -12    1    1    2    0    0  0.10841298592E+01  0.14502516131E+00  0.44344583393E+00  0.11802601648E+01  0.00000000000E+00 0.  1.
         11    1    3    3    0    0  0.41948818900E+01 -0.22193040987E+02 -0.31085987249E+02  0.38424818878E+02  0.51100000000E-03 0. -1.
        -11    1    3    3    0    0 -0.57616993025E+01 -0.50444460717E+01 -0.31393731914E+01  0.82764291405E+01  0.51100000000E-03 0.  1.
        -12    1    3    3    0    0  0.48268755324E+00  0.27092461897E+02  0.33781914607E+02  0.43306491816E+02  0.00000000000E+00 0.  1.
</event>
<event>
 7    1  0.3925070E-015  0.9000764E+02  0.7816164E-02  0.1186339E+00
        -11   -1    0    0    0    0  0.00000000000E+00  0.00000000000E+00  0.45593999997E+02  0.45594000000E+02  0.51100000000E-03 0.  1.
         11   -1    0    0    0    0 -0.00000000000E+00 -0.00000000000E+00 -0.45593999997E+02  0.45594000000E+02  0.51100000000E-03 0. -1.
    9900012    2    1    2    0    0  0.86565597267E+00 -0.79772931987E+00  0.86743688968E-01  0.90007637006E+02  0.89999897014E+02 0.  0.
        -12    1    1    2    0    0 -0.86565597267E+00  0.79772931987E+00 -0.86743688968E-01  0.11803629943E+01  0.00000000000E+00 0.  1.
         11    1    3    3    0    0  0.25488812205E+02 -0.25698039914E+02  0.47040032938E+01  0.36499266435E+02  0.51100000000E-03 0. -1.
        -11    1    3    3    0    0  0.95413808734E+01 -0.59910399481E+00  0.33669886730E+01  0.10135752935E+02  0.51100000000E-03 0.  1.
        -12    1    3    3    0    0 -0.34164537105E+02  0.25499414589E+02 -0.79842482779E+01  0.43372617636E+02  0.00000000000E+00 0.  1.
</event>
<event>
 7    1  0.3925070E-015  0.9000778E+02  0.7816164E-02  0.1186339E+00
        -11   -1    0    0    0    0  0.00000000000E+00  0.00000000000E+00  0.45593999997E+02  0.45594000000E+02  0.51100000000E-03 0. -1.
         11   -1    0    0    0    0 -0.00000000000E+00 -0.00000000000E+00 -0.45593999997E+02  0.45594000000E+02  0.51100000000E-03 0.  1.
    9900012    2    1    2    0    0  0.81722707624E+00 -0.76887772269E+00  0.36589034372E+00  0.90007784431E+02  0.90000046385E+02 0.  0.
        -12    1    1    2    0    0 -0.81722707624E+00  0.76887772269E+00 -0.36589034372E+00  0.11802155694E+01  0.00000000000E+00 0.  1.
         11    1    3    3    0    0 -0.39408454406E+02 -0.34123734146E+01 -0.21270889647E+01  0.39613067020E+02  0.51100000000E-03 0. -1.
        -11    1    3    3    0    0  0.46456128598E+01 -0.43465801238E+00 -0.11210629310E+02  0.12142852063E+02  0.51100000000E-03 0.  1.
        -12    1    3    3    0    0  0.35580068623E+02  0.30781537043E+01  0.13703608618E+02  0.38251865348E+02  0.00000000000E+00 0.  1.
</event>
<event>
 7    1  0.3925070E-015  0.9000778E+02  0.7816164E-02  0.1186339E+00
        -11   -1    0    0    0    0  0.00000000000E+00  0.00000000000E+00  0.45593999997E+02  0.45594000000E+02  0.51100000000E-03 0. -1.
         11   -1    0    0    0    0 -0.00000000000E+00 -0.00000000000E+00 -0.45593999997E+02  0.45594000000E+02  0.51100000000E-03 0.  1.
    9900012    2    1    2    0    0 -0.17554933276E+00 -0.81750758822E+00  0.83294009422E+00  0.90007777383E+02  0.90000039244E+02 0.  0.
        -12    1    1    2    0    0  0.17554933276E+00  0.81750758822E+00 -0.83294009422E+00  0.11802226170E+01  0.00000000000E+00 0.  1.
         11    1    3    3    0    0 -0.70837458616E+01 -0.32721265859E+01 -0.85069641660E+01  0.11543600279E+02  0.51100000000E-03 0. -1.
        -11    1    3    3    0    0  0.24133291507E+02 -0.15477119249E+02 -0.23641480228E+02  0.37160147563E+02  0.51100000000E-03 0.  1.
         12    1    3    3    0    0 -0.17225094979E+02  0.17931738247E+02  0.32981384488E+02  0.41304029541E+02  0.00000000000E+00 0. -1.
</event>
<event>
 7    1  0.3925070E-015  0.9000773E+02  0.7816164E-02  0.1186339E+00
        -11   -1    0    0    0    0  0.00000000000E+00  0.00000000000E+00  0.45593999997E+02  0.45594000000E+02  0.51100000000E-03 0. -1.
         11   -1    0    0    0    0 -0.00000000000E+00 -0.00000000000E+00 -0.45593999997E+02  0.45594000000E+02  0.51100000000E-03 0.  1.
    9900012    2    1    2    0    0  0.65667052678E-01 -0.10463093054E+01  0.54218903671E+00  0.90007727033E+02  0.89999988230E+02 0.  0.
        -12    1    1    2    0    0 -0.65667052678E-01  0.10463093054E+01 -0.54218903671E+00  0.11802729667E+01  0.00000000000E+00 0.  1.
         11    1    3    3    0    0  0.72176095900E+01  0.35698333417E+02  0.21711529041E+02  0.42401124873E+02  0.51100000000E-03 0. -1.
        -11    1    3    3    0    0 -0.89313724899E+01 -0.10220621390E+02  0.80815797036E-01  0.13573394844E+02  0.51100000000E-03 0.  1.
        -12    1    3    3    0    0  0.17794299526E+01 -0.26524021333E+02 -0.21250155801E+02  0.34033207316E+02  0.00000000000E+00 0.  1.
</event>
<event>
 7    1  0.3925070E-015  0.9000769E+02  0.7816164E-02  0.1186339E+00
        -11   -1    0    0    0    0  0.00000000000E+00  0.00000000000E+00  0.45593999997E+02  0.45594000000E+02  0.51100000000E-03 0.  1.
         11   -1    0    0    0    0 -0.00000000000E+00 -0.00000000000E+00 -0.45593999997E+02  0.45594000000E+02  0.51100000000E-03 0. -1.
    9900012    2    1    2    0    0  0.90108719339E+00  0.21606040511E+00 -0.73109531112E+00  0.90007686235E+02  0.89999946894E+02 0.  0.
        -12    1    1    2    0    0 -0.90108719339E+00 -0.21606040511E+00  0.73109531112E+00  0.11803137645E+01  0.00000000000E+00 0.  1.
         11    1    3    3    0    0 -0.85179854229E+01 -0.62850731350E+01  0.13939328478E+02  0.17503231092E+02  0.51100000000E-03 0. -1.
        -11    1    3    3    0    0  0.34706834220E+02  0.83712094730E+01  0.10052028516E+02  0.37090224685E+02  0.51100000000E-03 0.  1.
         12    1    3    3    0    0 -0.25287761604E+02 -0.18700759328E+01 -0.24722452305E+02  0.35414230458E+02  0.00000000000E+00 0. -1.
</event>
<event>
 7    1  0.3925070E-015  0.9000761E+02  0.7816164E-02  0.1186339E+00
        -11   -1    0    0    0    0  0.00000000000E+00  0.00000000000E+00  0.45593999997E+02  0.45594000000E+02  0.51100000000E-03 0.  1.
         11   -1    0    0    0    0 -0.00000000000E+00 -0.00000000000E+00 -0.45593999997E+02  0.45594000000E+02  0.51100000000E-03 0. -1.
    9900012    2    1    2    0    0  0.36119896743E+00 -0.81231902796E+00 -0.77652598838E+00  0.90007610442E+02  0.89999870100E+02 0.  0.
        -12    1    1    2    0    0 -0.36119896743E+00  0.81231902796E+00  0.77652598838E+00  0.11803895577E+01  0.00000000000E+00 0.  1.
         11    1    3    3    0    0  0.10365417219E+02  0.33239754905E+02 -0.19041415244E+02  0.39684993071E+02  0.51100000000E-03 0. -1.
        -11    1    3    3    0    0  0.37611700116E+01  0.35983356293E+01  0.69222555475E+01  0.86609492138E+01  0.51100000000E-03 0.  1.
        -12    1    3    3    0    0 -0.13765388263E+02 -0.37650409562E+02  0.11342633708E+02  0.41661668158E+02  0.00000000000E+00 0.  1.
</event>
<event>
 7    1  0.3925070E-015  0.9000772E+02  0.7816164E-02  0.1186339E+00
        -11   -1    0    0    0    0  0.00000000000E+00  0.00000000000E+00  0.45593999997E+02  0.45594000000E+02  0.51100000000E-03 0.  1.
         11   -1    0    0    0    0 -0.00000000000E+00 -0.00000000000E+00 -0.45593999997E+02  0.45594000000E+02  0.51100000000E-03 0. -1.
    9900012    2    1    2    0    0 -0.33452877695E+00 -0.10455058008E+01 -0.43366903574E+00  0.90007720069E+02  0.89999981174E+02 0.  0.
        -12    1    1    2    0    0  0.33452877695E+00  0.10455058008E+01  0.43366903574E+00  0.11802799307E+01  0.00000000000E+00 0.  1.
         11    1    3    3    0    0 -0.20928444797E+01  0.30081177052E+02 -0.23954568582E+02  0.38510759107E+02  0.51100000000E-03 0. -1.
        -11    1    3    3    0    0  0.29116526447E+01  0.25831688410E+00 -0.70725677909E+01  0.76528206665E+01  0.51100000000E-03 0.  1.
        -12    1    3    3    0    0 -0.11533369419E+01 -0.31384999737E+02  0.30593467337E+02  0.43844140296E+02  0.00000000000E+00 0.  1.
</event>
<event>
 7    1  0.3925070E-015  0.9000790E+02  0.7816164E-02  0.1186339E+00
        -11   -1    0    0    0    0  0.00000000000E+00  0.00000000000E+00  0.45593999997E+02  0.45594000000E+02  0.51100000000E-03 0.  1.
         11   -1    0    0    0    0 -0.00000000000E+00 -0.00000000000E+00 -0.45593999997E+02  0.45594000000E+02  0.51100000000E-03 0. -1.
    9900012    2    1    2    0    0 -0.75967823558E+00  0.26157800744E+00 -0.86435690406E+00  0.90007895372E+02  0.90000158791E+02 0.  0.
        -12    1    1    2    0    0  0.75967823558E+00 -0.26157800744E+00  0.86435690406E+00  0.11801046281E+01  0.00000000000E+00 0.  1.
         11    1    3    3    0    0 -0.12356934436E+02  0.29227022495E+01 -0.77400004217E+01  0.14870898557E+02  0.51100000000E-03 0. -1.
        -11    1    3    3    0    0  0.13403891496E+02  0.16427067613E+02  0.35105762423E+02  0.41011308357E+02  0.51100000000E-03 0.  1.
         12    1    3    3    0    0 -0.18066352951E+01 -0.19088191855E+02 -0.28230118905E+02  0.34125688459E+02  0.00000000000E+00 0. -1.
</event>
<event>
 7    1  0.3925070E-015  0.9000776E+02  0.7816164E-02  0.1186339E+00
        -11   -1    0    0    0    0  0.00000000000E+00  0.00000000000E+00  0.45593999997E+02  0.45594000000E+02  0.51100000000E-03 0.  1.
         11   -1    0    0    0    0 -0.00000000000E+00 -0.00000000000E+00 -0.45593999997E+02  0.45594000000E+02  0.51100000000E-03 0. -1.
    9900012    2    1    2    0    0  0.95461750659E+00  0.56285169292E+00 -0.40604634934E+00  0.90007758393E+02  0.90000020004E+02 0.  0.
        -12    1    1    2    0    0 -0.95461750659E+00 -0.56285169292E+00  0.40604634934E+00  0.11802416066E+01  0.00000000000E+00 0.  1.
         11    1    3    3    0    0 -0.13443464863E+01  0.92335042159E+01  0.15694183453E+01  0.94619206181E+01  0.51100000000E-03 0. -1.
        -11    1    3    3    0    0 -0.20539145997E+02  0.13703423482E+02  0.27572017686E+02  0.37011572420E+02  0.51100000000E-03 0.  1.
         12    1    3    3    0    0  0.22838109990E+02 -0.22374076005E+02 -0.29547482381E+02  0.43534265356E+02  0.00000000000E+00 0. -1.
</event>
<event>
 7    1  0.3925070E-015  0.9000738E+02  0.7816164E-02  0.1186340E+00
        -11   -1    0    0    0    0  0.00000000000E+00  0.00000000000E+00  0.45593999997E+02  0.45594000000E+02  0.51100000000E-03 0.  1.
         11   -1    0    0    0    0 -0.00000000000E+00 -0.00000000000E+00 -0.45593999997E+02  0.45594000000E+02  0.51100000000E-03 0. -1.
    9900012    2    1    2    0    0 -0.78950669516E+00  0.16469228824E+00  0.86221364547E+00  0.90007382898E+02  0.89999639551E+02 0.  0.
        -12    1    1    2    0    0  0.78950669516E+00 -0.16469228824E+00 -0.86221364547E+00  0.11806171022E+01  0.00000000000E+00 0.  1.
         11    1    3    3    0    0 -0.30401863583E+02  0.23051556661E+02 -0.11297525591E+02  0.39790471957E+02  0.51100000000E-03 0. -1.
        -11    1    3    3    0    0  0.36526161239E+01  0.21877004311E+01 -0.78637912716E+01  0.89424186410E+01  0.51100000000E-03 0.  1.
        -12    1    3    3    0    0  0.25959740764E+02 -0.25074564804E+02  0.20023530508E+02  0.41274492300E+02  0.00000000000E+00 0.  1.
</event>
<event>
 7    1  0.3925070E-015  0.9000773E+02  0.7816164E-02  0.1186339E+00
        -11   -1    0    0    0    0  0.00000000000E+00  0.00000000000E+00  0.45593999997E+02  0.45594000000E+02  0.51100000000E-03 0.  1.
         11   -1    0    0    0    0 -0.00000000000E+00 -0.00000000000E+00 -0.45593999997E+02  0.45594000000E+02  0.51100000000E-03 0. -1.
    9900012    2    1    2    0    0 -0.58628753110E+00  0.14106150809E+00 -0.10145946322E+01  0.90007731520E+02  0.89999992776E+02 0.  0.
        -12    1    1    2    0    0  0.58628753110E+00 -0.14106150809E+00  0.10145946322E+01  0.11802684804E+01  0.00000000000E+00 0.  1.
         11    1    3    3    0    0  0.45634952651E+00  0.10166900973E+01 -0.10081331056E+02  0.10142738771E+02  0.51100000000E-03 0. -1.
        -11    1    3    3    0    0  0.13016368641E+02  0.36832579190E+02  0.31987659786E+01  0.39195622797E+02  0.51100000000E-03 0.  1.
         12    1    3    3    0    0 -0.14059005698E+02 -0.37708207779E+02  0.58679704453E+01  0.40669369952E+02  0.00000000000E+00 0. -1.
</event>
<event>
 7    1  0.3925070E-015  0.9000777E+02  0.7816164E-02  0.1186339E+00
        -11   -1    0    0    0    0  0.00000000000E+00  0.00000000000E+00  0.45593999997E+02  0.45594000000E+02  0.51100000000E-03 0.  1.
         11   -1    0    0    0    0 -0.00000000000E+00 -0.00000000000E+00 -0.45593999997E+02  0.45594000000E+02  0.51100000000E-03 0. -1.
    9900012    2    1    2    0    0  0.65018856694E+00 -0.98484483434E+00  0.16927489520E-01  0.90007766523E+02  0.90000028241E+02 0.  0.
        -12    1    1    2    0    0 -0.65018856694E+00  0.98484483434E+00 -0.16927489520E-01  0.11802334770E+01  0.00000000000E+00 0.  1.
         11    1    3    3    0    0 -0.80349749482E+01 -0.45307571925E+01 -0.22488694483E+01  0.94945245912E+01  0.51100000000E-03 0. -1.
        -11    1    3    3    0    0  0.22823654311E+02 -0.29820722396E+01 -0.33992355497E+02  0.41052310330E+02  0.51100000000E-03 0.  1.
         12    1    3    3    0    0 -0.14138490796E+02  0.65279845977E+01  0.36258152435E+02  0.39460931602E+02  0.00000000000E+00 0. -1.
</event>
<event>
 7    1  0.3925070E-015  0.9000767E+02  0.7816164E-02  0.1186339E+00
        -11   -1    0    0    0    0  0.00000000000E+00  0.00000000000E+00  0.45593999997E+02  0.45594000000E+02  0.51100000000E-03 0. -1.
         11   -1    0    0    0    0 -0.00000000000E+00 -0.00000000000E+00 -0.45593999997E+02  0.45594000000E+02  0.51100000000E-03 0.  1.
    9900012    2    1    2    0    0 -0.36218932712E+00  0.63049457713E+00  0.92976651215E+00  0.90007673652E+02  0.89999934144E+02 0.  0.
        -12    1    1    2    0    0  0.36218932712E+00 -0.63049457713E+00 -0.92976651215E+00  0.11803263479E+01  0.00000000000E+00 0.  1.
         11    1    3    3    0    0 -0.12909124462E+02 -0.26642742734E+02 -0.21680482772E+02  0.36695021028E+02  0.51100000000E-03 0. -1.
        -11    1    3    3    0    0  0.70563135042E+01  0.17650092228E+01 -0.94827408970E+01  0.11951116810E+02  0.51100000000E-03 0.  1.
        -12    1    3    3    0    0  0.54906216310E+01  0.25508228088E+02  0.32092990181E+02  0.41361535814E+02  0.00000000000E+00 0.  1.
</event>
<event>
 7    1  0.3925070E-015  0.9000770E+02  0.7816164E-02  0.1186339E+00
        -11   -1    0    0    0    0  0.00000000000E+00  0.00000000000E+00  0.45593999997E+02  0.45594000000E+02  0.51100000000E-03 0. -1.
         11   -1    0    0    0    0 -0.00000000000E+00 -0.00000000000E+00 -0.45593999997E+02  0.45594000000E+02  0.51100000000E-03 0.  1.
    9900012    2    1    2    0    0 -0.93597511243E+00  0.71861572223E+00  0.25375015618E-01  0.90007702640E+02  0.89999963515E+02 0.  0.
        -12    1    1    2    0    0  0.93597511243E+00 -0.71861572223E+00 -0.25375015618E-01  0.11802973603E+01  0.00000000000E+00 0.  1.
         11    1    3    3    0    0  0.83583027895E+01  0.20771152607E+02  0.26467456166E+02  0.34667394513E+02  0.51100000000E-03 0. -1.
        -11    1    3    3    0    0  0.54986113497E+01  0.93416455370E+01  0.29331596172E+01  0.11229625716E+02  0.51100000000E-03 0.  1.
        -12    1    3    3    0    0 -0.14792889252E+02 -0.29394182422E+02 -0.29375240767E+02  0.44110682411E+02  0.00000000000E+00 0.  1.
</event>
<event>
 7    1  0.3925070E-015  0.9000771E+02  0.7816164E-02  0.1186339E+00
        -11   -1    0    0    0    0  0.00000000000E+00  0.00000000000E+00  0.45593999997E+02  0.45594000000E+02  0.51100000000E-03 0. -1.
         11   -1    0    0    0    0 -0.00000000000E+00 -0.00000000000E+00 -0.45593999997E+02  0.45594000000E+02  0.51100000000E-03 0.  1.
    9900012    2    1    2    0    0  0.85289784618E+00  0.69828107140E+00 -0.42195278017E+00  0.90007713874E+02  0.89999974897E+02 0.  0.
        -12    1    1    2    0    0 -0.85289784618E+00 -0.69828107140E+00  0.42195278017E+00  0.11802861261E+01  0.00000000000E+00 0.  1.
         11    1    3    3    0    0 -0.20195536781E+02 -0.41784211100E+01  0.33842520752E+02  0.39631239193E+02  0.51100000000E-03 0. -1.
        -11    1    3    3    0    0  0.14218701777E+01  0.95967903839E+01  0.98992639981E+00  0.97519257080E+01  0.51100000000E-03 0.  1.
        -12    1    3    3    0    0  0.19626564449E+02 -0.47200882025E+01 -0.35254399932E+02  0.40624548973E+02  0.00000000000E+00 0.  1.
</event>
<event>
 7    1  0.3925070E-015  0.9000775E+02  0.7816164E-02  0.1186339E+00
        -11   -1    0    0    0    0  0.00000000000E+00  0.00000000000E+00  0.45593999997E+02  0.45594000000E+02  0.51100000000E-03 0.  1.
         11   -1    0    0    0    0 -0.00000000000E+00 -0.00000000000E+00 -0.45593999997E+02  0.45594000000E+02  0.51100000000E-03 0. -1.
    9900012    2    1    2    0    0  0.61019814183E+00  0.99239187547E+00 -0.18920882212E+00  0.90007752829E+02  0.90000014366E+02 0.  0.
        -12    1    1    2    0    0 -0.61019814183E+00 -0.99239187547E+00  0.18920882212E+00  0.11802471712E+01  0.00000000000E+00 0.  1.
         11    1    3    3    0    0  0.25460377735E+02 -0.20934886032E+02 -0.22982011040E+02  0.40182995400E+02  0.51100000000E-03 0. -1.
        -11    1    3    3    0    0  0.62411717687E+01  0.81805342714E+01  0.46472024289E+01  0.11290254943E+02  0.51100000000E-03 0.  1.
        -12    1    3    3    0    0 -0.31091351361E+02  0.13746743637E+02  0.18145599789E+02  0.38534502486E+02  0.00000000000E+00 0.  1.
</event>
<event>
 7    1  0.3925070E-015  0.9000776E+02  0.7816164E-02  0.1186339E+00
        -11   -1    0    0    0    0  0.00000000000E+00  0.00000000000E+00  0.45593999997E+02  0.45594000000E+02  0.51100000000E-03 0. -1.
         11   -1    0    0    0    0 -0.00000000000E+00 -0.00000000000E+00 -0.45593999997E+02  0.45594000000E+02  0.51100000000E-03 0.  1.
    9900012    2    1    2    0    0  0.11574330358E+01 -0.31788506900E-01  0.22870905893E+00  0.90007758679E+02  0.90000020294E+02 0.  0.
        -12    1    1    2    0    0 -0.11574330358E+01  0.31788506900E-01 -0.22870905893E+00  0.11802413207E+01  0.00000000000E+00 0.  1.
         11    1    3    3    0    0  0.10029650751E+02  0.23286172178E+02  0.31196531865E+02  0.40200289919E+02  0.51100000000E-03 0. -1.
        -11    1    3    3    0    0  0.25588656921E+01 -0.87982724777E+01  0.42003915240E+01  0.10079716337E+02  0.51100000000E-03 0.  1.
        -12    1    3    3    0    0 -0.11431083407E+02 -0.14519688207E+02 -0.35168214330E+02  0.39727752424E+02  0.00000000000E+00 0.  1.
</event>
<event>
 7    1  0.3925070E-015  0.9000782E+02  0.7816164E-02  0.1186339E+00
        -11   -1    0    0    0    0  0.00000000000E+00  0.00000000000E+00  0.45593999997E+02  0.45594000000E+02  0.51100000000E-03 0. -1.
         11   -1    0    0    0    0 -0.00000000000E+00 -0.00000000000E+00 -0.45593999997E+02  0.45594000000E+02  0.51100000000E-03 0.  1.
    9900012    2    1    2    0    0  0.29012076293E+00  0.10858569950E+01 -0.35995199396E+00  0.90007821662E+02  0.90000084108E+02 0.  0.
        -12    1    1    2    0    0 -0.29012076293E+00 -0.10858569950E+01  0.35995199396E+00  0.11801783377E+01  0.00000000000E+00 0.  1.
         11    1    3    3    0    0  0.34091540075E+02  0.15874884102E+02 -0.47421313836E+01  0.37904259131E+02  0.51100000000E-03 0. -1.
        -11    1    3    3    0    0  0.23675454021E+01  0.81461996080E+01  0.37396439088E+01  0.92709641413E+01  0.51100000000E-03 0.  1.
        -12    1    3    3    0    0 -0.36168964714E+02 -0.22935226715E+02  0.64253548080E+00  0.42832598390E+02  0.00000000000E+00 0.  1.
</event>
<event>
 7    1  0.3925070E-015  0.9000797E+02  0.7816164E-02  0.1186339E+00
        -11   -1    0    0    0    0  0.00000000000E+00  0.00000000000E+00  0.45593999997E+02  0.45594000000E+02  0.51100000000E-03 0. -1.
         11   -1    0    0    0    0 -0.00000000000E+00 -0.00000000000E+00 -0.45593999997E+02  0.45594000000E+02  0.51100000000E-03 0.  1.
    9900012    2    1    2    0    0 -0.19354883069E+00 -0.34949707930E+00  0.11103420471E+01  0.90007970839E+02  0.90000235254E+02 0.  0.
        -12    1    1    2    0    0  0.19354883069E+00  0.34949707930E+00 -0.11103420471E+01  0.11800291606E+01  0.00000000000E+00 0.  1.
         11    1    3    3    0    0  0.47169886867E+01  0.30105467541E+01 -0.73316157328E+01  0.92231211389E+01  0.51100000000E-03 0. -1.
        -11    1    3    3    0    0 -0.42112647754E+00 -0.23865063365E+02 -0.29182783279E+02  0.37700841331E+02  0.51100000000E-03 0.  1.
         12    1    3    3    0    0 -0.44894110398E+01  0.20505019531E+02  0.37624741058E+02  0.43084008370E+02  0.00000000000E+00 0. -1.
</event>
<event>
 7    1  0.3925070E-015  0.9000809E+02  0.7816164E-02  0.1186338E+00
        -11   -1    0    0    0    0  0.00000000000E+00  0.00000000000E+00  0.45593999997E+02  0.45594000000E+02  0.51100000000E-03 0.  1.
         11   -1    0    0    0    0 -0.00000000000E+00 -0.00000000000E+00 -0.45593999997E+02  0.45594000000E+02  0.51100000000E-03 0. -1.
    9900012    2    1    2    0    0  0.10484059976E+01  0.31552392546E+00  0.43986111771E+00  0.90008089713E+02  0.90000355696E+02 0.  0.
        -12    1    1    2    0    0 -0.10484059976E+01 -0.31552392546E+00 -0.43986111771E+00  0.11799102874E+01  0.00000000000E+00 0.  1.
         11    1    3    3    0    0  0.27744685535E+02  0.29097445180E+02 -0.83354343493E+01  0.41059814387E+02  0.51100000000E-03 0. -1.
        -11    1    3    3    0    0  0.53738829564E+01 -0.89724091826E+01  0.17395709925E+01  0.10602304092E+02  0.51100000000E-03 0.  1.
        -12    1    3    3    0    0 -0.32070162494E+02 -0.19809512072E+02  0.70357244745E+01  0.38345971233E+02  0.00000000000E+00 0.  1.
</event>
<event>
 7    1  0.3925070E-015  0.9000752E+02  0.7816164E-02  0.1186339E+00
        -11   -1    0    0    0    0  0.00000000000E+00  0.00000000000E+00  0.45593999997E+02  0.45594000000E+02  0.51100000000E-03 0.  1.
         11   -1    0    0    0    0 -0.00000000000E+00 -0.00000000000E+00 -0.45593999997E+02  0.45594000000E+02  0.51100000000E-03 0. -1.
    9900012    2    1    2    0    0  0.70517397522E+00 -0.92012982162E+00  0.22278424783E+00  0.90007516182E+02  0.89999774595E+02 0.  0.
        -12    1    1    2    0    0 -0.70517397522E+00  0.92012982162E+00 -0.22278424783E+00  0.11804838182E+01  0.00000000000E+00 0.  1.
         11    1    3    3    0    0 -0.78971302719E+01 -0.17372145077E+02 -0.29639381610E+02  0.35251227406E+02  0.51100000000E-03 0. -1.
        -11    1    3    3    0    0 -0.16742738367E+01  0.31592874244E+01 -0.10470337275E+02  0.11064007087E+02  0.51100000000E-03 0.  1.
        -12    1    3    3    0    0  0.10276578084E+02  0.13292727831E+02  0.40332503133E+02  0.43692281690E+02  0.00000000000E+00 0.  1.
</event>
<event>
 7    1  0.3925070E-015  0.9000775E+02  0.7816164E-02  0.1186339E+00
        -11   -1    0    0    0    0  0.00000000000E+00  0.00000000000E+00  0.45593999997E+02  0.45594000000E+02  0.51100000000E-03 0.  1.
         11   -1    0    0    0    0 -0.00000000000E+00 -0.00000000000E+00 -0.45593999997E+02  0.45594000000E+02  0.51100000000E-03 0. -1.
    9900012    2    1    2    0    0 -0.48596327687E+00  0.10691280554E+01 -0.11742951878E+00  0.90007752231E+02  0.90000013760E+02 0.  0.
        -12    1    1    2    0    0  0.48596327687E+00 -0.10691280554E+01  0.11742951878E+00  0.11802477694E+01  0.00000000000E+00 0.  1.
         11    1    3    3    0    0  0.10098829354E+02 -0.20389753076E+01 -0.19564828538E+01  0.10486734479E+02  0.51100000000E-03 0. -1.
        -11    1    3    3    0    0  0.30267459013E+02 -0.88754216533E+01  0.15044948807E+02  0.34946282627E+02  0.51100000000E-03 0.  1.
         12    1    3    3    0    0 -0.40852251643E+02  0.11983525016E+02 -0.13205895472E+02  0.44574735124E+02  0.00000000000E+00 0. -1.
</event>
<event>
 7    1  0.3925070E-015  0.9000770E+02  0.7816164E-02  0.1186339E+00
        -11   -1    0    0    0    0  0.00000000000E+00  0.00000000000E+00  0.45593999997E+02  0.45594000000E+02  0.51100000000E-03 0. -1.
         11   -1    0    0    0    0 -0.00000000000E+00 -0.00000000000E+00 -0.45593999997E+02  0.45594000000E+02  0.51100000000E-03 0.  1.
    9900012    2    1    2    0    0 -0.73717983135E+00 -0.81146572737E+00  0.43725359476E+00  0.90007702819E+02  0.89999963696E+02 0.  0.
        -12    1    1    2    0    0  0.73717983135E+00  0.81146572737E+00 -0.43725359476E+00  0.11802971815E+01  0.00000000000E+00 0.  1.
         11    1    3    3    0    0  0.43707031289E+00  0.10787198922E+02 -0.38364644463E+01  0.11457449574E+02  0.51100000000E-03 0. -1.
        -11    1    3    3    0    0  0.71815570104E+00 -0.17946049265E+02 -0.34670724108E+02  0.39046581698E+02  0.51100000000E-03 0.  1.
         12    1    3    3    0    0 -0.18924058453E+01  0.63473846155E+01  0.38944442149E+02  0.39503671547E+02  0.00000000000E+00 0. -1.
</event>
<event>
 7    1  0.3925070E-015  0.9000773E+02  0.7816164E-02  0.1186339E+00
        -11   -1    0    0    0    0  0.00000000000E+00  0.00000000000E+00  0.45593999997E+02  0.45594000000E+02  0.51100000000E-03 0. -1.
         11   -1    0    0    0    0 -0.00000000000E+00 -0.00000000000E+00 -0.45593999997E+02  0.45594000000E+02  0.51100000000E-03 0.  1.
    9900012    2    1    2    0    0  0.59150634955E+00 -0.66756732656E+00  0.77298453522E+00  0.90007732662E+02  0.89999993933E+02 0.  0.
        -12    1    1    2    0    0 -0.59150634955E+00  0.66756732656E+00 -0.77298453522E+00  0.11802673378E+01  0.00000000000E+00 0.  1.
         11    1    3    3    0    0  0.84785646087E+01 -0.50241109591E+01  0.19755374999E+00  0.98573209595E+01  0.51100000000E-03 0. -1.
        -11    1    3    3    0    0 -0.36821654506E+01 -0.28321544106E+02 -0.25379864451E+02  0.38207404031E+02  0.51100000000E-03 0.  1.
         12    1    3    3    0    0 -0.42048928085E+01  0.32678087738E+02  0.25955295236E+02  0.41943007672E+02  0.00000000000E+00 0. -1.
</event>
<event>
 7    1  0.3925070E-015  0.9000754E+02  0.7816164E-02  0.1186339E+00
        -11   -1    0    0    0    0  0.00000000000E+00  0.00000000000E+00  0.45593999997E+02  0.45594000000E+02  0.51100000000E-03 0.  1.
         11   -1    0    0    0    0 -0.00000000000E+00 -0.00000000000E+00 -0.45593999997E+02  0.45594000000E+02  0.51100000000E-03 0. -1.
    9900012    2    1    2    0    0  0.10016853836E+01  0.53681950483E+00 -0.31925881013E+00  0.90007544589E+02  0.89999803378E+02 0.  0.
        -12    1    1    2    0    0 -0.10016853836E+01 -0.53681950483E+00  0.31925881013E+00  0.11804554105E+01  0.00000000000E+00 0.  1.
         11    1    3    3    0    0  0.12105882638E+02  0.33018234206E+02 -0.18879792501E+02  0.39914943939E+02  0.51100000000E-03 0. -1.
        -11    1    3    3    0    0  0.11859021679E+01 -0.20022876735E+00 -0.70123700143E+01  0.71147585335E+01  0.51100000000E-03 0.  1.
        -12    1    3    3    0    0 -0.12290099422E+02 -0.32281185934E+02  0.25572903705E+02  0.42977842117E+02  0.00000000000E+00 0.  1.
</event>
<event>
 7    1  0.3925070E-015  0.9000774E+02  0.7816164E-02  0.1186339E+00
        -11   -1    0    0    0    0  0.00000000000E+00  0.00000000000E+00  0.45593999997E+02  0.45594000000E+02  0.51100000000E-03 0. -1.
         11   -1    0    0    0    0 -0.00000000000E+00 -0.00000000000E+00 -0.45593999997E+02  0.45594000000E+02  0.51100000000E-03 0.  1.
    9900012    2    1    2    0    0  0.33136022971E+00 -0.28849442124E+00  0.10954329599E+01  0.90007744942E+02  0.90000006375E+02 0.  0.
        -12    1    1    2    0    0 -0.33136022971E+00  0.28849442124E+00 -0.10954329599E+01  0.11802550583E+01  0.00000000000E+00 0.  1.
         11    1    3    3    0    0 -0.34143405382E+01 -0.19055243234E+01  0.11759571722E+02  0.12392589382E+02  0.51100000000E-03 0. -1.
        -11    1    3    3    0    0  0.28228695197E+02  0.18312041926E+02  0.16445660780E+02  0.37451967515E+02  0.51100000000E-03 0.  1.
         12    1    3    3    0    0 -0.24482994429E+02 -0.16695012024E+02 -0.27109799542E+02  0.40163188044E+02  0.00000000000E+00 0. -1.
</event>
<event>
 7    1  0.3925070E-015  0.9000782E+02  0.7816164E-02  0.1186339E+00
        -11   -1    0    0    0    0  0.00000000000E+00  0.00000000000E+00  0.45593999997E+02  0.45594000000E+02  0.51100000000E-03 0.  1.
         11   -1    0    0    0    0 -0.00000000000E+00 -0.00000000000E+00 -0.45593999997E+02  0.45594000000E+02  0.51100000000E-03 0. -1.
    9900012    2    1    2    0    0  0.67764166862E+00 -0.86498924461E+00 -0.43059981797E+00  0.90007821697E+02  0.90000084143E+02 0.  0.
        -12    1    1    2    0    0 -0.67764166862E+00  0.86498924461E+00  0.43059981797E+00  0.11801783033E+01  0.00000000000E+00 0.  1.
         11    1    3    3    0    0 -0.14072335920E+01 -0.22057681251E+02 -0.54108279421E+01  0.22755189910E+02  0.51100000000E-03 0. -1.
        -11    1    3    3    0    0  0.10802181933E+02 -0.15096185926E+02  0.19759836818E+02  0.27111494156E+02  0.51100000000E-03 0.  1.
         12    1    3    3    0    0 -0.87173066725E+01  0.36288877932E+02 -0.14779608694E+02  0.40141137631E+02  0.00000000000E+00 0. -1.
</event>
<event>
 7    1  0.3925070E-015  0.9000773E+02  0.7816164E-02  0.1186339E+00
        -11   -1    0    0    0    0  0.00000000000E+00  0.00000000000E+00  0.45593999997E+02  0.45594000000E+02  0.51100000000E-03 0.  1.
         11   -1    0    0    0    0 -0.00000000000E+00 -0.00000000000E+00 -0.45593999997E+02  0.45594000000E+02  0.51100000000E-03 0. -1.
    9900012    2    1    2    0    0 -0.42533247835E+00  0.81062683797E+00 -0.74498857423E+00  0.90007732419E+02  0.89999993687E+02 0.  0.
        -12    1    1    2    0    0  0.42533247835E+00 -0.81062683797E+00  0.74498857423E+00  0.11802675812E+01  0.00000000000E+00 0.  1.
         11    1    3    3    0    0 -0.71777924703E+01 -0.37423174130E+01  0.55048342382E+01  0.97892208381E+01  0.51100000000E-03 0. -1.
        -11    1    3    3    0    0 -0.96104622251E+01  0.15584994744E+02  0.32176245338E+02  0.37021126532E+02  0.51100000000E-03 0.  1.
         12    1    3    3    0    0  0.16362922217E+02 -0.11032050493E+02 -0.38426068151E+02  0.43197385049E+02  0.00000000000E+00 0. -1.
</event>
<event>
 7    1  0.3925070E-015  0.9000777E+02  0.7816164E-02  0.1186339E+00
        -11   -1    0    0    0    0  0.00000000000E+00  0.00000000000E+00  0.45593999997E+02  0.45594000000E+02  0.51100000000E-03 0.  1.
         11   -1    0    0    0    0 -0.00000000000E+00 -0.00000000000E+00 -0.45593999997E+02  0.45594000000E+02  0.51100000000E-03 0. -1.
    9900012    2    1    2    0    0  0.78771518087E+00 -0.20812347110E+00 -0.85388660857E+00  0.90007774206E+02  0.90000036025E+02 0.  0.
        -12    1    1    2    0    0 -0.78771518087E+00  0.20812347110E+00  0.85388660857E+00  0.11802257944E+01  0.00000000000E+00 0.  1.
         11    1    3    3    0    0  0.27233835782E-02 -0.62211693678E+01  0.82980353609E+01  0.10371130451E+02  0.51100000000E-03 0. -1.
        -11    1    3    3    0    0 -0.19893312858E+02 -0.29886556607E+02  0.41104241957E+01  0.36136487788E+02  0.51100000000E-03 0.  1.
         12    1    3    3    0    0  0.20678304655E+02  0.35899602504E+02 -0.13262346165E+02  0.43500155967E+02  0.00000000000E+00 0. -1.
</event>
<event>
 7    1  0.3925070E-015  0.9000762E+02  0.7816164E-02  0.1186339E+00
        -11   -1    0    0    0    0  0.00000000000E+00  0.00000000000E+00  0.45593999997E+02  0.45594000000E+02  0.51100000000E-03 0.  1.
         11   -1    0    0    0    0 -0.00000000000E+00 -0.00000000000E+00 -0.45593999997E+02  0.45594000000E+02  0.51100000000E-03 0. -1.
    9900012    2    1    2    0    0  0.10158834664E+01 -0.40963753527E+00  0.43985490550E+00  0.90007621050E+02  0.89999880848E+02 0.  0.
        -12    1    1    2    0    0 -0.10158834664E+01  0.40963753527E+00 -0.43985490550E+00  0.11803789500E+01  0.00000000000E+00 0.  1.
         11    1    3    3    0    0 -0.39029743840E+00 -0.11287168699E+02 -0.18875447894E+02  0.21996250653E+02  0.51100000000E-03 0. -1.
        -11    1    3    3    0    0  0.98708261334E+01 -0.25413565566E+02  0.13040978855E+02  0.30221675220E+02  0.51100000000E-03 0.  1.
         12    1    3    3    0    0 -0.84646452285E+01  0.36291096729E+02  0.62743239448E+01  0.37789695178E+02  0.00000000000E+00 0. -1.
</event>
<event>
 7    1  0.3925070E-015  0.9000766E+02  0.7816164E-02  0.1186339E+00
        -11   -1    0    0    0    0  0.00000000000E+00  0.00000000000E+00  0.45593999997E+02  0.45594000000E+02  0.51100000000E-03 0.  1.
         11   -1    0    0    0    0 -0.00000000000E+00 -0.00000000000E+00 -0.45593999997E+02  0.45594000000E+02  0.51100000000E-03 0. -1.
    9900012    2    1    2    0    0 -0.53695274392E+00  0.88709845001E+00 -0.56386694289E+00  0.90007657745E+02  0.89999918027E+02 0.  0.
        -12    1    1    2    0    0  0.53695274392E+00 -0.88709845001E+00  0.56386694289E+00  0.11803422548E+01  0.00000000000E+00 0.  1.
         11    1    3    3    0    0  0.26971775028E+02 -0.16961427347E+02  0.76156264789E+01  0.32759188524E+02  0.51100000000E-03 0. -1.
        -11    1    3    3    0    0  0.12747980834E+02  0.35419772225E+00 -0.13005888615E+01  0.12819048444E+02  0.51100000000E-03 0.  1.
        -12    1    3    3    0    0 -0.40256708606E+02  0.17494328075E+02 -0.68789045602E+01  0.44429420777E+02  0.00000000000E+00 0.  1.
</event>
<event>
 7    1  0.3925070E-015  0.9000774E+02  0.7816164E-02  0.1186339E+00
        -11   -1    0    0    0    0  0.00000000000E+00  0.00000000000E+00  0.45593999997E+02  0.45594000000E+02  0.51100000000E-03 0.  1.
         11   -1    0    0    0    0 -0.00000000000E+00 -0.00000000000E+00 -0.45593999997E+02  0.45594000000E+02  0.51100000000E-03 0. -1.
    9900012    2    1    2    0    0  0.43892020687E+00  0.78350385522E+00 -0.76581999769E+00  0.90007741762E+02  0.90000003153E+02 0.  0.
        -12    1    1    2    0    0 -0.43892020687E+00 -0.78350385522E+00  0.76581999769E+00  0.11802582378E+01  0.00000000000E+00 0.  1.
         11    1    3    3    0    0  0.15682244314E+01  0.88733166739E+01  0.24846142097E+01  0.93471056855E+01  0.51100000000E-03 0. -1.
        -11    1    3    3    0    0 -0.17334555984E+02  0.14573387824E+01  0.34414197053E+02  0.38560959876E+02  0.51100000000E-03 0.  1.
         12    1    3    3    0    0  0.16205251759E+02 -0.95471516011E+01 -0.37664631260E+02  0.42099676201E+02  0.00000000000E+00 0. -1.
</event>
<event>
 7    1  0.3925070E-015  0.9000763E+02  0.7816164E-02  0.1186339E+00
        -11   -1    0    0    0    0  0.00000000000E+00  0.00000000000E+00  0.45593999997E+02  0.45594000000E+02  0.51100000000E-03 0.  1.
         11   -1    0    0    0    0 -0.00000000000E+00 -0.00000000000E+00 -0.45593999997E+02  0.45594000000E+02  0.51100000000E-03 0. -1.
    9900012    2    1    2    0    0 -0.66034357669E+00 -0.66396359259E+00 -0.71859584010E+00  0.90007626638E+02  0.89999886510E+02 0.  0.
        -12    1    1    2    0    0  0.66034357669E+00  0.66396359259E+00  0.71859584010E+00  0.11803733617E+01  0.00000000000E+00 0.  1.
         11    1    3    3    0    0 -0.65200638118E+01 -0.34393712446E+02  0.20395118875E+02  0.40514189639E+02  0.51100000000E-03 0. -1.
        -11    1    3    3    0    0  0.79011759496E+01  0.33238785201E+01  0.45029773286E+01  0.96826419373E+01  0.51100000000E-03 0.  1.
        -12    1    3    3    0    0 -0.20414557145E+01  0.30405870333E+02 -0.25616692044E+02  0.39810795062E+02  0.00000000000E+00 0.  1.
</event>
<event>
 7    1  0.3981581E-015  0.9000775E+02  0.7816164E-02  0.1186339E+00
        -11   -1    0    0    0    0  0.00000000000E+00  0.00000000000E+00  0.45593999997E+02  0.45594000000E+02  0.51100000000E-03 0.  1.
         11   -1    0    0    0    0 -0.00000000000E+00 -0.00000000000E+00 -0.45593999997E+02  0.45594000000E+02  0.51100000000E-03 0. -1.
    9900012    2    1    2    0    0 -0.22656133266E+00 -0.10367946902E+01  0.51645643134E+00  0.90007745573E+02  0.90000007015E+02 0.  0.
        -12    1    1    2    0    0  0.22656133266E+00  0.10367946902E+01 -0.51645643134E+00  0.11802544270E+01  0.00000000000E+00 0.  1.
         11    1    3    3    0    0 -0.10819881784E+02  0.11267038998E+02 -0.33547442897E+02  0.37006039166E+02  0.51100000000E-03 0. -1.
        -11    1    3    3    0    0 -0.67736335248E+01 -0.56373733510E+01 -0.47128823768E+01  0.99936654929E+01  0.51100000000E-03 0.  1.
        -12    1    3    3    0    0  0.17366953976E+02 -0.66664603375E+01  0.38776781705E+02  0.43008040914E+02  0.00000000000E+00 0.  1.
</event>
<event>
 7    1  0.3925070E-015  0.9000774E+02  0.7816164E-02  0.1186339E+00
        -11   -1    0    0    0    0  0.00000000000E+00  0.00000000000E+00  0.45593999997E+02  0.45594000000E+02  0.51100000000E-03 0. -1.
         11   -1    0    0    0    0 -0.00000000000E+00 -0.00000000000E+00 -0.45593999997E+02  0.45594000000E+02  0.51100000000E-03 0.  1.
    9900012    2    1    2    0    0 -0.33616945391E+00 -0.89536137199E+00  0.69162335923E+00  0.90007735301E+02  0.89999996607E+02 0.  0.
        -12    1    1    2    0    0  0.33616945391E+00  0.89536137199E+00 -0.69162335923E+00  0.11802646988E+01  0.00000000000E+00 0.  1.
         11    1    3    3    0    0 -0.40818847656E+01  0.30488765072E+00 -0.24860022113E+01  0.47890444741E+01  0.51100000000E-03 0. -1.
        -11    1    3    3    0    0 -0.72581661609E+01 -0.14213570802E+02 -0.37695617859E+02  0.40934901698E+02  0.51100000000E-03 0.  1.
         12    1    3    3    0    0  0.11003881473E+02  0.13013321779E+02  0.40873243430E+02  0.44283789129E+02  0.00000000000E+00 0. -1.
</event>
<event>
 7    1  0.3925070E-015  0.9000774E+02  0.7816164E-02  0.1186339E+00
        -11   -1    0    0    0    0  0.00000000000E+00  0.00000000000E+00  0.45593999997E+02  0.45594000000E+02  0.51100000000E-03 0. -1.
         11   -1    0    0    0    0 -0.00000000000E+00 -0.00000000000E+00 -0.45593999997E+02  0.45594000000E+02  0.51100000000E-03 0.  1.
    9900012    2    1    2    0    0  0.10367671835E+01 -0.32529283181E+00  0.46077711199E+00  0.90007738518E+02  0.89999999866E+02 0.  0.
        -12    1    1    2    0    0 -0.10367671835E+01  0.32529283181E+00 -0.46077711199E+00  0.11802614821E+01  0.00000000000E+00 0.  1.
         11    1    3    3    0    0  0.10893875094E+02 -0.12644022913E+02  0.35198175383E+02  0.38954580995E+02  0.51100000000E-03 0. -1.
        -11    1    3    3    0    0  0.10155429138E+02 -0.63543261555E+00 -0.17055480427E+01  0.10317238486E+02  0.51100000000E-03 0.  1.
        -12    1    3    3    0    0 -0.20012537048E+02  0.12954162697E+02 -0.33031850228E+02  0.40735919037E+02  0.00000000000E+00 0.  1.
</event>
<event>
 7    1  0.3925070E-015  0.9000779E+02  0.7816164E-02  0.1186339E+00
        -11   -1    0    0    0    0  0.00000000000E+00  0.00000000000E+00  0.45593999997E+02  0.45594000000E+02  0.51100000000E-03 0.  1.
         11   -1    0    0    0    0 -0.00000000000E+00 -0.00000000000E+00 -0.45593999997E+02  0.45594000000E+02  0.51100000000E-03 0. -1.
    9900012    2    1    2    0    0 -0.73578487944E+00 -0.87635492151E+00  0.28900750739E+00  0.90007787021E+02  0.90000049009E+02 0.  0.
        -12    1    1    2    0    0  0.73578487944E+00  0.87635492151E+00 -0.28900750739E+00  0.11802129793E+01  0.00000000000E+00 0.  1.
         11    1    3    3    0    0 -0.69546237761E+01 -0.10297311768E+01  0.41885639190E+01  0.81835937173E+01  0.51100000000E-03 0. -1.
        -11    1    3    3    0    0  0.43201553023E+02  0.79089187925E+01 -0.10966533374E+01  0.43933220106E+02  0.51100000000E-03 0.  1.
         12    1    3    3    0    0 -0.36982714126E+02 -0.77555425372E+01 -0.28029030743E+01  0.37890973197E+02  0.00000000000E+00 0. -1.
</event>
<event>
 7    1  0.3925070E-015  0.9000782E+02  0.7816164E-02  0.1186339E+00
        -11   -1    0    0    0    0  0.00000000000E+00  0.00000000000E+00  0.45593999997E+02  0.45594000000E+02  0.51100000000E-03 0. -1.
         11   -1    0    0    0    0 -0.00000000000E+00 -0.00000000000E+00 -0.45593999997E+02  0.45594000000E+02  0.51100000000E-03 0.  1.
    9900012    2    1    2    0    0 -0.51350377841E+00 -0.93446661715E+00  0.50587336118E+00  0.90007821265E+02  0.90000083706E+02 0.  0.
        -12    1    1    2    0    0  0.51350377841E+00  0.93446661715E+00 -0.50587336118E+00  0.11801787350E+01  0.00000000000E+00 0.  1.
         11    1    3    3    0    0  0.19317285716E+01  0.73300231370E+01  0.59237103861E+01  0.96203513170E+01  0.51100000000E-03 0. -1.
        -11    1    3    3    0    0 -0.11229619704E+02  0.34267524862E+02 -0.77923024984E+01  0.36892920694E+02  0.51100000000E-03 0.  1.
         12    1    3    3    0    0  0.87843873545E+01 -0.42532014616E+02  0.23744654735E+01  0.43494549254E+02  0.00000000000E+00 0. -1.
</event>
<event>
 7    1  0.3925070E-015  0.9000787E+02  0.7816164E-02  0.1186339E+00
        -11   -1    0    0    0    0  0.00000000000E+00  0.00000000000E+00  0.45593999997E+02  0.45594000000E+02  0.51100000000E-03 0.  1.
         11   -1    0    0    0    0 -0.00000000000E+00 -0.00000000000E+00 -0.45593999997E+02  0.45594000000E+02  0.51100000000E-03 0. -1.
    9900012    2    1    2    0    0  0.61508745414E+00  0.43018961435E+00 -0.91065923670E+00  0.90007874614E+02  0.90000137759E+02 0.  0.
        -12    1    1    2    0    0 -0.61508745414E+00 -0.43018961435E+00  0.91065923670E+00  0.11801253857E+01  0.00000000000E+00 0.  1.
         11    1    3    3    0    0  0.24818977655E+02 -0.22568177602E+01 -0.14540755178E+01  0.24963758012E+02  0.51100000000E-03 0. -1.
        -11    1    3    3    0    0  0.15472891823E+02  0.53556757766E+01 -0.15136382301E+02  0.22298065248E+02  0.51100000000E-03 0.  1.
        -12    1    3    3    0    0 -0.39676782024E+02 -0.26686684021E+01  0.15679798582E+02  0.42746051354E+02  0.00000000000E+00 0.  1.
</event>
<event>
 7    1  0.3925070E-015  0.9000772E+02  0.7816164E-02  0.1186339E+00
        -11   -1    0    0    0    0  0.00000000000E+00  0.00000000000E+00  0.45593999997E+02  0.45594000000E+02  0.51100000000E-03 0. -1.
         11   -1    0    0    0    0 -0.00000000000E+00 -0.00000000000E+00 -0.45593999997E+02  0.45594000000E+02  0.51100000000E-03 0.  1.
    9900012    2    1    2    0    0  0.32713593572E-01 -0.68170023187E+00  0.96294964269E+00  0.90007721474E+02  0.89999982597E+02 0.  0.
        -12    1    1    2    0    0 -0.32713593572E-01  0.68170023187E+00 -0.96294964269E+00  0.11802785263E+01  0.00000000000E+00 0.  1.
         11    1    3    3    0    0  0.17470616609E+02  0.38194366889E+02  0.18067890305E+01  0.42039226844E+02  0.51100000000E-03 0. -1.
        -11    1    3    3    0    0  0.49879161542E+01 -0.92885464011E+01 -0.23890641058E+01  0.10810366755E+02  0.51100000000E-03 0.  1.
        -12    1    3    3    0    0 -0.22425819169E+02 -0.29587520720E+02  0.15452247180E+01  0.37158127875E+02  0.00000000000E+00 0.  1.
</event>
<event>
 7    1  0.3925070E-015  0.9000766E+02  0.7816164E-02  0.1186339E+00
        -11   -1    0    0    0    0  0.00000000000E+00  0.00000000000E+00  0.45593999997E+02  0.45594000000E+02  0.51100000000E-03 0. -1.
         11   -1    0    0    0    0 -0.00000000000E+00 -0.00000000000E+00 -0.45593999997E+02  0.45594000000E+02  0.51100000000E-03 0.  1.
    9900012    2    1    2    0    0 -0.36682276241E+00  0.10624808861E+01  0.36023271593E+00  0.90007664377E+02  0.89999924747E+02 0.  0.
        -12    1    1    2    0    0  0.36682276241E+00 -0.10624808861E+01 -0.36023271593E+00  0.11803356226E+01  0.00000000000E+00 0.  1.
         11    1    3    3    0    0  0.17750870500E+02  0.10813528254E+02  0.35154185048E+02  0.40839227753E+02  0.51100000000E-03 0. -1.
        -11    1    3    3    0    0 -0.56743101023E+00  0.88778771656E+01 -0.65098746254E+01  0.11023481701E+02  0.51100000000E-03 0.  1.
        -12    1    3    3    0    0 -0.17550262252E+02 -0.18628924534E+02 -0.28284077707E+02  0.38144954923E+02  0.00000000000E+00 0.  1.
</event>
<event>
 7    1  0.3925070E-015  0.9000776E+02  0.7816164E-02  0.1186339E+00
        -11   -1    0    0    0    0  0.00000000000E+00  0.00000000000E+00  0.45593999997E+02  0.45594000000E+02  0.51100000000E-03 0.  1.
         11   -1    0    0    0    0 -0.00000000000E+00 -0.00000000000E+00 -0.45593999997E+02  0.45594000000E+02  0.51100000000E-03 0. -1.
    9900012    2    1    2    0    0 -0.80844316190E+00 -0.84958471695E+00  0.13262116514E+00  0.90007761503E+02  0.90000023154E+02 0.  0.
        -12    1    1    2    0    0  0.80844316190E+00  0.84958471695E+00 -0.13262116514E+00  0.11802384974E+01  0.00000000000E+00 0.  1.
         11    1    3    3    0    0 -0.85738465964E+01 -0.59410037576E+01 -0.15283500526E+01  0.10542401304E+02  0.51100000000E-03 0. -1.
        -11    1    3    3    0    0 -0.25540663427E+01 -0.36423095842E+02 -0.17284322944E+01  0.36553421783E+02  0.51100000000E-03 0.  1.
         12    1    3    3    0    0  0.10319469777E+02  0.41514514883E+02  0.33894035121E+01  0.42911938416E+02  0.00000000000E+00 0. -1.
</event>
<event>
 7    1  0.3925070E-015  0.9000765E+02  0.7816164E-02  0.1186339E+00
        -11   -1    0    0    0    0  0.00000000000E+00  0.00000000000E+00  0.45593999997E+02  0.45594000000E+02  0.51100000000E-03 0.  1.
         11   -1    0    0    0    0 -0.00000000000E+00 -0.00000000000E+00 -0.45593999997E+02  0.45594000000E+02  0.51100000000E-03 0. -1.
    9900012    2    1    2    0    0  0.47141093692E+00 -0.10817085156E+01 -0.29923657056E-01  0.90007653860E+02  0.89999914091E+02 0.  0.
        -12    1    1    2    0    0 -0.47141093692E+00  0.10817085156E+01  0.29923657056E-01  0.11803461396E+01  0.00000000000E+00 0.  1.
         11    1    3    3    0    0 -0.61168747568E+01 -0.87209705819E+01  0.48312745276E+01  0.11696696051E+02  0.51100000000E-03 0. -1.
        -11    1    3    3    0    0  0.20756058253E+02 -0.74405025003E+01 -0.35231302678E+02  0.41562239116E+02  0.51100000000E-03 0.  1.
         12    1    3    3    0    0 -0.14167772560E+02  0.15079764567E+02  0.30370104493E+02  0.36748718694E+02  0.00000000000E+00 0. -1.
</event>
<event>
 7    1  0.3925070E-015  0.9000781E+02  0.7816164E-02  0.1186339E+00
        -11   -1    0    0    0    0  0.00000000000E+00  0.00000000000E+00  0.45593999997E+02  0.45594000000E+02  0.51100000000E-03 0.  1.
         11   -1    0    0    0    0 -0.00000000000E+00 -0.00000000000E+00 -0.45593999997E+02  0.45594000000E+02  0.51100000000E-03 0. -1.
    9900012    2    1    2    0    0  0.46585735602E+00  0.27930009417E+00 -0.10477689902E+01  0.90007808712E+02  0.90000070987E+02 0.  0.
        -12    1    1    2    0    0 -0.46585735602E+00 -0.27930009417E+00  0.10477689902E+01  0.11801912878E+01  0.00000000000E+00 0.  1.
         11    1    3    3    0    0  0.29530424818E+02 -0.22897060981E+02  0.11063217900E+02  0.38970709284E+02  0.51100000000E-03 0. -1.
        -11    1    3    3    0    0 -0.90973801093E+01 -0.76318528094E+01  0.13128777727E+01  0.11947014291E+02  0.51100000000E-03 0.  1.
        -12    1    3    3    0    0 -0.19967187353E+02  0.30808213885E+02 -0.13423864663E+02  0.39090085137E+02  0.00000000000E+00 0.  1.
</event>
<event>
 7    1  0.3925070E-015  0.9000774E+02  0.7816164E-02  0.1186339E+00
        -11   -1    0    0    0    0  0.00000000000E+00  0.00000000000E+00  0.45593999997E+02  0.45594000000E+02  0.51100000000E-03 0. -1.
         11   -1    0    0    0    0 -0.00000000000E+00 -0.00000000000E+00 -0.45593999997E+02  0.45594000000E+02  0.51100000000E-03 0.  1.
    9900012    2    1    2    0    0 -0.20892106809E+00  0.98170945073E-01  0.11574643959E+01  0.90007741819E+02  0.90000003211E+02 0.  0.
        -12    1    1    2    0    0  0.20892106809E+00 -0.98170945073E-01 -0.11574643959E+01  0.11802581815E+01  0.00000000000E+00 0.  1.
         11    1    3    3    0    0  0.89535973306E+01 -0.49458626210E+01 -0.27836778234E+01  0.10600817172E+02  0.51100000000E-03 0. -1.
        -11    1    3    3    0    0 -0.33935428869E+01 -0.21627412249E+01 -0.37111563344E+02  0.37329100137E+02  0.51100000000E-03 0.  1.
         12    1    3    3    0    0 -0.57689755119E+01  0.72067747909E+01  0.41052705564E+02  0.42077824509E+02  0.00000000000E+00 0. -1.
</event>
<event>
 7    1  0.3925070E-015  0.9000769E+02  0.7816164E-02  0.1186339E+00
        -11   -1    0    0    0    0  0.00000000000E+00  0.00000000000E+00  0.45593999997E+02  0.45594000000E+02  0.51100000000E-03 0.  1.
         11   -1    0    0    0    0 -0.00000000000E+00 -0.00000000000E+00 -0.45593999997E+02  0.45594000000E+02  0.51100000000E-03 0. -1.
    9900012    2    1    2    0    0 -0.23530266181E-01 -0.95483982389E+00 -0.69343428394E+00  0.90007693316E+02  0.89999954068E+02 0.  0.
        -12    1    1    2    0    0  0.23530266181E-01  0.95483982389E+00  0.69343428394E+00  0.11803066842E+01  0.00000000000E+00 0.  1.
         11    1    3    3    0    0  0.24645911312E+02 -0.47415607328E+01 -0.21285976517E+02  0.32908906684E+02  0.51100000000E-03 0. -1.
        -11    1    3    3    0    0 -0.60682673532E+00  0.45924281690E+01 -0.14116377354E+02  0.14857009963E+02  0.51100000000E-03 0.  1.
        -12    1    3    3    0    0 -0.24062614843E+02 -0.80570726009E+00  0.34708919587E+02  0.42241776669E+02  0.00000000000E+00 0.  1.
</event>
<event>
 7    1  0.3925070E-015  0.9000764E+02  0.7816164E-02  0.1186339E+00
        -11   -1    0    0    0    0  0.00000000000E+00  0.00000000000E+00  0.45593999997E+02  0.45594000000E+02  0.51100000000E-03 0. -1.
         11   -1    0    0    0    0 -0.00000000000E+00 -0.00000000000E+00 -0.45593999997E+02  0.45594000000E+02  0.51100000000E-03 0.  1.
    9900012    2    1    2    0    0  0.69061202978E+00 -0.55375656041E+00  0.78080081687E+00  0.90007643605E+02  0.89999903700E+02 0.  0.
        -12    1    1    2    0    0 -0.69061202978E+00  0.55375656041E+00 -0.78080081687E+00  0.11803563951E+01  0.00000000000E+00 0.  1.
         11    1    3    3    0    0  0.59537433687E+01 -0.39490579168E+01 -0.11153660982E+02  0.13245613315E+02  0.51100000000E-03 0. -1.
        -11    1    3    3    0    0  0.27529148887E+02  0.22723858082E+01 -0.17485947555E+02  0.32692141836E+02  0.51100000000E-03 0.  1.
         12    1    3    3    0    0 -0.32792280225E+02  0.11229155482E+01  0.29420409354E+02  0.44069888453E+02  0.00000000000E+00 0. -1.
</event>
<event>
 7    1  0.3925070E-015  0.9000772E+02  0.7816164E-02  0.1186339E+00
        -11   -1    0    0    0    0  0.00000000000E+00  0.00000000000E+00  0.45593999997E+02  0.45594000000E+02  0.51100000000E-03 0.  1.
         11   -1    0    0    0    0 -0.00000000000E+00 -0.00000000000E+00 -0.45593999997E+02  0.45594000000E+02  0.51100000000E-03 0. -1.
    9900012    2    1    2    0    0  0.36161501236E+00  0.88954712556E+00  0.68628891863E+00  0.90007723767E+02  0.89999984921E+02 0.  0.
        -12    1    1    2    0    0 -0.36161501236E+00 -0.88954712556E+00 -0.68628891863E+00  0.11802762328E+01  0.00000000000E+00 0.  1.
         11    1    3    3    0    0  0.51677115171E+01 -0.41600588421E+01  0.61763382289E+01  0.90641318433E+01  0.51100000000E-03 0. -1.
        -11    1    3    3    0    0  0.34301903321E+02  0.15010546674E+02  0.81968845372E+01  0.38329179476E+02  0.51100000000E-03 0.  1.
         12    1    3    3    0    0 -0.39107999826E+02 -0.99609407062E+01 -0.13686933848E+02  0.42614412448E+02  0.00000000000E+00 0. -1.
</event>
<event>
 7    1  0.3925070E-015  0.9000775E+02  0.7816164E-02  0.1186339E+00
        -11   -1    0    0    0    0  0.00000000000E+00  0.00000000000E+00  0.45593999997E+02  0.45594000000E+02  0.51100000000E-03 0.  1.
         11   -1    0    0    0    0 -0.00000000000E+00 -0.00000000000E+00 -0.45593999997E+02  0.45594000000E+02  0.51100000000E-03 0. -1.
    9900012    2    1    2    0    0 -0.32421340618E+00 -0.93109318251E+00  0.64879781567E+00  0.90007751106E+02  0.90000012620E+02 0.  0.
        -12    1    1    2    0    0  0.32421340618E+00  0.93109318251E+00 -0.64879781567E+00  0.11802488945E+01  0.00000000000E+00 0.  1.
         11    1    3    3    0    0  0.83421206856E+01  0.30570674342E+01  0.14663731247E+01  0.90048258857E+01  0.51100000000E-03 0. -1.
        -11    1    3    3    0    0 -0.30109839376E+01  0.34326621076E+02 -0.17717374648E+02  0.38746461818E+02  0.51100000000E-03 0.  1.
         12    1    3    3    0    0 -0.56553501541E+01 -0.38314781692E+02  0.16899799339E+02  0.42256463402E+02  0.00000000000E+00 0. -1.
</event>
<event>
 7    1  0.3925070E-015  0.9000774E+02  0.7816164E-02  0.1186339E+00
        -11   -1    0    0    0    0  0.00000000000E+00  0.00000000000E+00  0.45593999997E+02  0.45594000000E+02  0.51100000000E-03 0.  1.
         11   -1    0    0    0    0 -0.00000000000E+00 -0.00000000000E+00 -0.45593999997E+02  0.45594000000E+02  0.51100000000E-03 0. -1.
    9900012    2    1    2    0    0  0.72466620808E+00  0.10143357521E+00 -0.92605312141E+00  0.90007743982E+02  0.90000005403E+02 0.  0.
        -12    1    1    2    0    0 -0.72466620808E+00 -0.10143357521E+00  0.92605312141E+00  0.11802560176E+01  0.00000000000E+00 0.  1.
         11    1    3    3    0    0  0.10719346911E+02 -0.34544479130E+02 -0.14892910789E+02  0.39115524138E+02  0.51100000000E-03 0. -1.
        -11    1    3    3    0    0 -0.10477007434E+02 -0.12790535643E+00 -0.46298065403E+01  0.11455092903E+02  0.51100000000E-03 0.  1.
        -12    1    3    3    0    0  0.48232673158E+00  0.34773818062E+02  0.18596664208E+02  0.39437126941E+02  0.00000000000E+00 0.  1.
</event>
<event>
 7    1  0.5639989E-015  0.9000776E+02  0.7816164E-02  0.1186339E+00
        -11   -1    0    0    0    0  0.00000000000E+00  0.00000000000E+00  0.45593999997E+02  0.45594000000E+02  0.51100000000E-03 0. -1.
         11   -1    0    0    0    0 -0.00000000000E+00 -0.00000000000E+00 -0.45593999997E+02  0.45594000000E+02  0.51100000000E-03 0.  1.
    9900012    2    1    2    0    0 -0.19885218053E+00  0.49527731307E+00  0.10526738028E+01  0.90007761066E+02  0.90000022712E+02 0.  0.
        -12    1    1    2    0    0  0.19885218053E+00 -0.49527731307E+00 -0.10526738028E+01  0.11802389341E+01  0.00000000000E+00 0.  1.
         11    1    3    3    0    0 -0.11317592890E+02  0.32353129707E+02  0.16056365230E+02  0.37849964007E+02  0.51100000000E-03 0. -1.
        -11    1    3    3    0    0  0.72232240814E+01  0.46985418361E+01  0.53435665418E+01  0.10139278335E+02  0.51100000000E-03 0.  1.
        -12    1    3    3    0    0  0.38955166279E+01 -0.36556394230E+02 -0.20347257969E+02  0.42018518724E+02  0.00000000000E+00 0.  1.
</event>
<event>
 7    1  0.3925070E-015  0.9000771E+02  0.7816164E-02  0.1186339E+00
        -11   -1    0    0    0    0  0.00000000000E+00  0.00000000000E+00  0.45593999997E+02  0.45594000000E+02  0.51100000000E-03 0.  1.
         11   -1    0    0    0    0 -0.00000000000E+00 -0.00000000000E+00 -0.45593999997E+02  0.45594000000E+02  0.51100000000E-03 0. -1.
    9900012    2    1    2    0    0  0.55262608507E+00  0.30261056112E+00 -0.99805257134E+00  0.90007712884E+02  0.89999973894E+02 0.  0.
        -12    1    1    2    0    0 -0.55262608507E+00 -0.30261056112E+00  0.99805257134E+00  0.11802871162E+01  0.00000000000E+00 0.  1.
         11    1    3    3    0    0 -0.24779040591E+02 -0.21703808268E+02  0.13700624405E+02  0.35675807703E+02  0.51100000000E-03 0. -1.
        -11    1    3    3    0    0 -0.26057005100E+01 -0.46186819852E+00  0.10294112408E+02  0.10628816864E+02  0.51100000000E-03 0.  1.
        -12    1    3    3    0    0  0.27937367186E+02  0.22468287027E+02 -0.24992789385E+02  0.43703088317E+02  0.00000000000E+00 0.  1.
</event>
<event>
 7    1  0.3925070E-015  0.9000766E+02  0.7816164E-02  0.1186339E+00
        -11   -1    0    0    0    0  0.00000000000E+00  0.00000000000E+00  0.45593999997E+02  0.45594000000E+02  0.51100000000E-03 0. -1.
         11   -1    0    0    0    0 -0.00000000000E+00 -0.00000000000E+00 -0.45593999997E+02  0.45594000000E+02  0.51100000000E-03 0.  1.
    9900012    2    1    2    0    0  0.80323386147E+00 -0.69675433378E+00 -0.51239016799E+00  0.90007663217E+02  0.89999923571E+02 0.  0.
        -12    1    1    2    0    0 -0.80323386147E+00  0.69675433378E+00  0.51239016799E+00  0.11803367833E+01  0.00000000000E+00 0.  1.
         11    1    3    3    0    0  0.33526009607E+01 -0.25471892774E+01  0.37211095375E+02  0.37448547711E+02  0.51100000000E-03 0. -1.
        -11    1    3    3    0    0  0.15471096397E+01  0.67459829752E+01  0.55164153146E+01  0.88505747115E+01  0.51100000000E-03 0.  1.
        -12    1    3    3    0    0 -0.40964767390E+01 -0.48955480316E+01 -0.43239900857E+02  0.43708540794E+02  0.00000000000E+00 0.  1.
</event>
<event>
 7    1  0.3925070E-015  0.9000776E+02  0.7816164E-02  0.1186339E+00
        -11   -1    0    0    0    0  0.00000000000E+00  0.00000000000E+00  0.45593999997E+02  0.45594000000E+02  0.51100000000E-03 0.  1.
         11   -1    0    0    0    0 -0.00000000000E+00 -0.00000000000E+00 -0.45593999997E+02  0.45594000000E+02  0.51100000000E-03 0. -1.
    9900012    2    1    2    0    0  0.31546317182E+00  0.39935353866E+00 -0.10648741384E+01  0.90007763925E+02  0.90000025609E+02 0.  0.
        -12    1    1    2    0    0 -0.31546317182E+00 -0.39935353866E+00  0.10648741384E+01  0.11802360748E+01  0.00000000000E+00 0.  1.
         11    1    3    3    0    0 -0.88528355630E+01 -0.17792683473E+01 -0.45264971926E+01  0.10100874737E+02  0.51100000000E-03 0. -1.
        -11    1    3    3    0    0 -0.31251005475E+02 -0.15964469935E+02  0.56683485093E+01  0.35547430548E+02  0.51100000000E-03 0.  1.
         12    1    3    3    0    0  0.40419304210E+02  0.18143091821E+02 -0.22067254550E+01  0.44359458640E+02  0.00000000000E+00 0. -1.
</event>
<event>
 7    1  0.3925070E-015  0.9000779E+02  0.7816164E-02  0.1186339E+00
        -11   -1    0    0    0    0  0.00000000000E+00  0.00000000000E+00  0.45593999997E+02  0.45594000000E+02  0.51100000000E-03 0. -1.
         11   -1    0    0    0    0 -0.00000000000E+00 -0.00000000000E+00 -0.45593999997E+02  0.45594000000E+02  0.51100000000E-03 0.  1.
    9900012    2    1    2    0    0  0.66780553342E+00  0.22520512174E-01  0.97284526708E+00  0.90007788444E+02  0.90000050451E+02 0.  0.
        -12    1    1    2    0    0 -0.66780553342E+00 -0.22520512174E-01 -0.97284526708E+00  0.11802115563E+01  0.00000000000E+00 0.  1.
         11    1    3    3    0    0  0.30471289073E+01 -0.96235566167E+01 -0.90231913374E-01  0.10094849112E+02  0.51100000000E-03 0. -1.
        -11    1    3    3    0    0 -0.34762495754E+02  0.23648571891E+01 -0.20410336088E+02  0.40380756308E+02  0.51100000000E-03 0.  1.
         12    1    3    3    0    0  0.32383172380E+02  0.72812199398E+01  0.21473413268E+02  0.39532183023E+02  0.00000000000E+00 0. -1.
</event>
<event>
 7    1  0.3925070E-015  0.9000779E+02  0.7816164E-02  0.1186339E+00
        -11   -1    0    0    0    0  0.00000000000E+00  0.00000000000E+00  0.45593999997E+02  0.45594000000E+02  0.51100000000E-03 0.  1.
         11   -1    0    0    0    0 -0.00000000000E+00 -0.00000000000E+00 -0.45593999997E+02  0.45594000000E+02  0.51100000000E-03 0. -1.
    9900012    2    1    2    0    0  0.11335824898E+01 -0.15871490274E+00 -0.28757971186E+00  0.90007787404E+02  0.90000049398E+02 0.  0.
        -12    1    1    2    0    0 -0.11335824898E+01  0.15871490274E+00  0.28757971186E+00  0.11802125962E+01  0.00000000000E+00 0.  1.
         11    1    3    3    0    0 -0.41471132102E+01  0.61777912743E+01  0.88457890817E+01  0.11559050037E+02  0.51100000000E-03 0. -1.
        -11    1    3    3    0    0 -0.33349203822E+01 -0.40084258055E+02  0.56376467379E+01  0.40615914354E+02  0.51100000000E-03 0.  1.
         12    1    3    3    0    0  0.86156160822E+01  0.33747751878E+02 -0.14771015531E+02  0.37832823013E+02  0.00000000000E+00 0. -1.
</event>
<event>
 7    1  0.3925070E-015  0.9000776E+02  0.7816164E-02  0.1186339E+00
        -11   -1    0    0    0    0  0.00000000000E+00  0.00000000000E+00  0.45593999997E+02  0.45594000000E+02  0.51100000000E-03 0.  1.
         11   -1    0    0    0    0 -0.00000000000E+00 -0.00000000000E+00 -0.45593999997E+02  0.45594000000E+02  0.51100000000E-03 0. -1.
    9900012    2    1    2    0    0  0.70197044922E+00 -0.93930777407E+00 -0.13378885503E+00  0.90007762285E+02  0.90000023947E+02 0.  0.
        -12    1    1    2    0    0 -0.70197044922E+00  0.93930777407E+00  0.13378885503E+00  0.11802377149E+01  0.00000000000E+00 0.  1.
         11    1    3    3    0    0  0.14135576615E+02  0.23789796758E+02 -0.12139869948E+02  0.30218295760E+02  0.51100000000E-03 0. -1.
        -11    1    3    3    0    0 -0.28056191456E+01 -0.34204145579E+01 -0.19669999386E+02  0.20161339506E+02  0.51100000000E-03 0.  1.
        -12    1    3    3    0    0 -0.10627987020E+02 -0.21308689974E+02  0.31676080480E+02  0.39628127019E+02  0.00000000000E+00 0.  1.
</event>
<event>
 7    1  0.3925070E-015  0.9000828E+02  0.7816164E-02  0.1186338E+00
        -11   -1    0    0    0    0  0.00000000000E+00  0.00000000000E+00  0.45593999997E+02  0.45594000000E+02  0.51100000000E-03 0. -1.
         11   -1    0    0    0    0 -0.00000000000E+00 -0.00000000000E+00 -0.45593999997E+02  0.45594000000E+02  0.51100000000E-03 0.  1.
    9900012    2    1    2    0    0  0.13562959032E+00  0.11174049949E+01  0.35320238840E+00  0.90008279170E+02  0.90000547654E+02 0.  0.
        -12    1    1    2    0    0 -0.13562959032E+00 -0.11174049949E+01 -0.35320238840E+00  0.11797208295E+01  0.00000000000E+00 0.  1.
         11    1    3    3    0    0  0.29696606562E+01 -0.10378179698E+01  0.22300741539E+02  0.22521523572E+02  0.51100000000E-03 0. -1.
        -11    1    3    3    0    0  0.27357840003E+02 -0.12086508461E+02 -0.14703292428E+02  0.33327494728E+02  0.51100000000E-03 0.  1.
         12    1    3    3    0    0 -0.30191871069E+02  0.14241731425E+02 -0.72442467223E+01  0.34159260870E+02  0.00000000000E+00 0. -1.
</event>
<event>
 7    1  0.3925070E-015  0.9000775E+02  0.7816164E-02  0.1186339E+00
        -11   -1    0    0    0    0  0.00000000000E+00  0.00000000000E+00  0.45593999997E+02  0.45594000000E+02  0.51100000000E-03 0. -1.
         11   -1    0    0    0    0 -0.00000000000E+00 -0.00000000000E+00 -0.45593999997E+02  0.45594000000E+02  0.51100000000E-03 0.  1.
    9900012    2    1    2    0    0  0.56002350508E+00 -0.10041100088E+01  0.26671079081E+00  0.90007746687E+02  0.90000008144E+02 0.  0.
        -12    1    1    2    0    0 -0.56002350508E+00  0.10041100088E+01 -0.26671079081E+00  0.11802533126E+01  0.00000000000E+00 0.  1.
         11    1    3    3    0    0 -0.12760057874E+02 -0.32835582857E+02 -0.11799172751E+02  0.37151245690E+02  0.51100000000E-03 0. -1.
        -11    1    3    3    0    0 -0.76958933728E+01 -0.17065563140E+01 -0.54415012974E+01  0.95785722260E+01  0.51100000000E-03 0.  1.
        -12    1    3    3    0    0  0.21015974752E+02  0.33538029162E+02  0.17507384839E+02  0.43277928771E+02  0.00000000000E+00 0.  1.
</event>
<event>
 7    1  0.3925070E-015  0.9000773E+02  0.7816164E-02  0.1186339E+00
        -11   -1    0    0    0    0  0.00000000000E+00  0.00000000000E+00  0.45593999997E+02  0.45594000000E+02  0.51100000000E-03 0. -1.
         11   -1    0    0    0    0 -0.00000000000E+00 -0.00000000000E+00 -0.45593999997E+02  0.45594000000E+02  0.51100000000E-03 0.  1.
    9900012    2    1    2    0    0  0.84786788084E+00 -0.72042279786E+00  0.39390191706E+00  0.90007725595E+02  0.89999986773E+02 0.  0.
        -12    1    1    2    0    0 -0.84786788084E+00  0.72042279786E+00 -0.39390191706E+00  0.11802744051E+01  0.00000000000E+00 0.  1.
         11    1    3    3    0    0  0.28576490673E+02  0.80910988348E+01  0.24215060755E+02  0.38320371439E+02  0.51100000000E-03 0. -1.
        -11    1    3    3    0    0 -0.42833411180E+01 -0.17588961137E+02 -0.15310894612E+01  0.18167630561E+02  0.51100000000E-03 0.  1.
        -12    1    3    3    0    0 -0.23445281675E+02  0.87774395040E+01 -0.22290069377E+02  0.33519723595E+02  0.00000000000E+00 0.  1.
</event>
<event>
 7    1  0.3925070E-015  0.9000778E+02  0.7816164E-02  0.1186339E+00
        -11   -1    0    0    0    0  0.00000000000E+00  0.00000000000E+00  0.45593999997E+02  0.45594000000E+02  0.51100000000E-03 0.  1.
         11   -1    0    0    0    0 -0.00000000000E+00 -0.00000000000E+00 -0.45593999997E+02  0.45594000000E+02  0.51100000000E-03 0. -1.
    9900012    2    1    2    0    0 -0.41047231556E+00 -0.88607573657E+00  0.66280355579E+00  0.90007777018E+02  0.90000038875E+02 0.  0.
        -12    1    1    2    0    0  0.41047231556E+00  0.88607573657E+00 -0.66280355579E+00  0.11802229816E+01  0.00000000000E+00 0.  1.
         11    1    3    3    0    0  0.28189659350E+02  0.11634172946E+02 -0.23530046112E+02  0.38518488349E+02  0.51100000000E-03 0. -1.
        -11    1    3    3    0    0 -0.81269434479E+01  0.96894112272E+01 -0.22422887146E+00  0.12648406168E+02  0.51100000000E-03 0.  1.
        -12    1    3    3    0    0 -0.20473188218E+02 -0.22209659909E+02  0.24417078539E+02  0.38840882501E+02  0.00000000000E+00 0.  1.
</event>
<event>
 7    1  0.3925070E-015  0.9000761E+02  0.7816164E-02  0.1186339E+00
        -11   -1    0    0    0    0  0.00000000000E+00  0.00000000000E+00  0.45593999997E+02  0.45594000000E+02  0.51100000000E-03 0. -1.
         11   -1    0    0    0    0 -0.00000000000E+00 -0.00000000000E+00 -0.45593999997E+02  0.45594000000E+02  0.51100000000E-03 0.  1.
    9900012    2    1    2    0    0 -0.22276270663E+00 -0.62137097736E+00 -0.97856408084E+00  0.90007613294E+02  0.89999872990E+02 0.  0.
        -12    1    1    2    0    0  0.22276270663E+00  0.62137097736E+00  0.97856408084E+00  0.11803867058E+01  0.00000000000E+00 0.  1.
         11    1    3    3    0    0  0.63862285793E+01  0.61259087299E+01 -0.35392360424E+01  0.95308375948E+01  0.51100000000E-03 0. -1.
        -11    1    3    3    0    0 -0.54978668011E+00 -0.41377791403E+02 -0.10962668536E+02  0.42808924168E+02  0.51100000000E-03 0.  1.
         12    1    3    3    0    0 -0.60592046058E+01  0.34630511696E+02  0.13523340497E+02  0.37667851531E+02  0.00000000000E+00 0. -1.
</event>
<event>
 7    1  0.3925070E-015  0.9000777E+02  0.7816164E-02  0.1186339E+00
        -11   -1    0    0    0    0  0.00000000000E+00  0.00000000000E+00  0.45593999997E+02  0.45594000000E+02  0.51100000000E-03 0. -1.
         11   -1    0    0    0    0 -0.00000000000E+00 -0.00000000000E+00 -0.45593999997E+02  0.45594000000E+02  0.51100000000E-03 0.  1.
    9900012    2    1    2    0    0  0.18625660065E+00  0.79099962170E+00  0.85590414978E+00  0.90007769583E+02  0.90000031342E+02 0.  0.
        -12    1    1    2    0    0 -0.18625660065E+00 -0.79099962170E+00 -0.85590414978E+00  0.11802304167E+01  0.00000000000E+00 0.  1.
         11    1    3    3    0    0 -0.81315794660E+01  0.14038795314E+02  0.32818601760E+02  0.36609711556E+02  0.51100000000E-03 0. -1.
        -11    1    3    3    0    0 -0.75959120662E-01 -0.11621213289E+02  0.69607689831E+01  0.13546611133E+02  0.51100000000E-03 0.  1.
        -12    1    3    3    0    0  0.83937951874E+01 -0.16265824036E+01 -0.38923466593E+02  0.39851446895E+02  0.00000000000E+00 0.  1.
</event>
<event>
 7    1  0.3925070E-015  0.9000775E+02  0.7816164E-02  0.1186339E+00
        -11   -1    0    0    0    0  0.00000000000E+00  0.00000000000E+00  0.45593999997E+02  0.45594000000E+02  0.51100000000E-03 0.  1.
         11   -1    0    0    0    0 -0.00000000000E+00 -0.00000000000E+00 -0.45593999997E+02  0.45594000000E+02  0.51100000000E-03 0. -1.
    9900012    2    1    2    0    0 -0.91207981157E+00  0.74345455240E+00  0.91536243215E-01  0.90007748697E+02  0.90000010180E+02 0.  0.
        -12    1    1    2    0    0  0.91207981157E+00 -0.74345455240E+00 -0.91536243215E-01  0.11802513029E+01  0.00000000000E+00 0.  1.
         11    1    3    3    0    0 -0.41145480539E+01 -0.10803808544E+02 -0.50654941117E+01  0.12621846759E+02  0.51100000000E-03 0. -1.
        -11    1    3    3    0    0  0.22947593539E+02 -0.13714169759E+02  0.27464043955E+02  0.38326808008E+02  0.51100000000E-03 0.  1.
         12    1    3    3    0    0 -0.19745125297E+02  0.25261432855E+02 -0.22307013600E+02  0.39059093930E+02  0.00000000000E+00 0. -1.
</event>
<event>
 7    1  0.3925070E-015  0.9000743E+02  0.7816164E-02  0.1186340E+00
        -11   -1    0    0    0    0  0.00000000000E+00  0.00000000000E+00  0.45593999997E+02  0.45594000000E+02  0.51100000000E-03 0. -1.
         11   -1    0    0    0    0 -0.00000000000E+00 -0.00000000000E+00 -0.45593999997E+02  0.45594000000E+02  0.51100000000E-03 0.  1.
    9900012    2    1    2    0    0 -0.56141395518E+00  0.97250761317E+00  0.36441633324E+00  0.90007425584E+02  0.89999682802E+02 0.  0.
        -12    1    1    2    0    0  0.56141395518E+00 -0.97250761317E+00 -0.36441633324E+00  0.11805744156E+01  0.00000000000E+00 0.  1.
         11    1    3    3    0    0  0.13323251258E+02  0.99708517919E+01  0.34851359624E+02  0.38620514981E+02  0.51100000000E-03 0. -1.
        -11    1    3    3    0    0  0.58324696673E+01 -0.90774867139E+01  0.95249100518E+00  0.10831699167E+02  0.51100000000E-03 0.  1.
         12    1    3    3    0    0 -0.19717134880E+02  0.79142535141E-01 -0.35439434296E+02  0.40555211436E+02  0.00000000000E+00 0. -1.
</event>
<event>
 7    1  0.3925070E-015  0.9000769E+02  0.7816164E-02  0.1186339E+00
        -11   -1    0    0    0    0  0.00000000000E+00  0.00000000000E+00  0.45593999997E+02  0.45594000000E+02  0.51100000000E-03 0.  1.
         11   -1    0    0    0    0 -0.00000000000E+00 -0.00000000000E+00 -0.45593999997E+02  0.45594000000E+02  0.51100000000E-03 0. -1.
    9900012    2    1    2    0    0  0.31171299654E+00  0.11322645028E+01  0.11804879799E+00  0.90007693508E+02  0.89999954262E+02 0.  0.
        -12    1    1    2    0    0 -0.31171299654E+00 -0.11322645028E+01 -0.11804879799E+00  0.11803064921E+01  0.00000000000E+00 0.  1.
         11    1    3    3    0    0  0.28798276651E+02 -0.24948105721E+02  0.40879825129E+01  0.38320494757E+02  0.51100000000E-03 0. -1.
        -11    1    3    3    0    0  0.37428448501E+00 -0.37949530137E+01 -0.90674177750E+01  0.98366570855E+01  0.51100000000E-03 0.  1.
        -12    1    3    3    0    0 -0.28860848140E+02  0.29875323238E+02  0.50974840601E+01  0.41850541665E+02  0.00000000000E+00 0.  1.
</event>
<event>
 7    1  0.3925070E-015  0.9000766E+02  0.7816164E-02  0.1186339E+00
        -11   -1    0    0    0    0  0.00000000000E+00  0.00000000000E+00  0.45593999997E+02  0.45594000000E+02  0.51100000000E-03 0. -1.
         11   -1    0    0    0    0 -0.00000000000E+00 -0.00000000000E+00 -0.45593999997E+02  0.45594000000E+02  0.51100000000E-03 0.  1.
    9900012    2    1    2    0    0 -0.47851320450E+00 -0.10024836065E+01  0.39907736800E+00  0.90007656400E+02  0.89999916665E+02 0.  0.
        -12    1    1    2    0    0  0.47851320450E+00  0.10024836065E+01 -0.39907736800E+00  0.11803435999E+01  0.00000000000E+00 0.  1.
         11    1    3    3    0    0  0.19462189981E+02  0.33084865582E+02  0.13032142698E+01  0.38406816285E+02  0.51100000000E-03 0. -1.
        -11    1    3    3    0    0 -0.26390874125E+01  0.23588721454E+01  0.93297701397E+01  0.99786607964E+01  0.51100000000E-03 0.  1.
        -12    1    3    3    0    0 -0.17301615773E+02 -0.36446221334E+02 -0.10233907041E+02  0.41622179319E+02  0.00000000000E+00 0.  1.
</event>
<event>
 7    1  0.3925070E-015  0.9000771E+02  0.7816164E-02  0.1186339E+00
        -11   -1    0    0    0    0  0.00000000000E+00  0.00000000000E+00  0.45593999997E+02  0.45594000000E+02  0.51100000000E-03 0.  1.
         11   -1    0    0    0    0 -0.00000000000E+00 -0.00000000000E+00 -0.45593999997E+02  0.45594000000E+02  0.51100000000E-03 0. -1.
    9900012    2    1    2    0    0  0.21905832396E+00  0.10870549107E+01 -0.40425051777E+00  0.90007706219E+02  0.89999967141E+02 0.  0.
        -12    1    1    2    0    0 -0.21905832396E+00 -0.10870549107E+01  0.40425051777E+00  0.11802937809E+01  0.00000000000E+00 0.  1.
         11    1    3    3    0    0 -0.12135722216E+02  0.23106072394E+02 -0.32071195551E+02  0.41348856327E+02  0.51100000000E-03 0. -1.
        -11    1    3    3    0    0 -0.77834516306E+01 -0.23075331234E+01  0.35809433125E+01  0.88729918105E+01  0.51100000000E-03 0.  1.
        -12    1    3    3    0    0  0.20138232170E+02 -0.19711484360E+02  0.28086001721E+02  0.39785858082E+02  0.00000000000E+00 0.  1.
</event>
<event>
 7    1  0.6717564E-015  0.9000802E+02  0.7816164E-02  0.1186338E+00
        -11   -1    0    0    0    0  0.00000000000E+00  0.00000000000E+00  0.45593999997E+02  0.45594000000E+02  0.51100000000E-03 0. -1.
         11   -1    0    0    0    0 -0.00000000000E+00 -0.00000000000E+00 -0.45593999997E+02  0.45594000000E+02  0.51100000000E-03 0.  1.
    9900012    2    1    2    0    0  0.26479952358E+00 -0.51623498351E+00  0.10274873742E+01  0.90008022182E+02  0.90000287275E+02 0.  0.
        -12    1    1    2    0    0 -0.26479952358E+00  0.51623498351E+00 -0.10274873742E+01  0.11799778176E+01  0.00000000000E+00 0.  1.
         11    1    3    3    0    0  0.29332546760E+02  0.11351491778E+02  0.24201409311E+02  0.39685801969E+02  0.51100000000E-03 0. -1.
        -11    1    3    3    0    0 -0.43509151567E+01 -0.35254452269E+01  0.79420564806E+01  0.97177923497E+01  0.51100000000E-03 0.  1.
        -12    1    3    3    0    0 -0.24716832080E+02 -0.83422815351E+01 -0.31115978418E+02  0.40604427864E+02  0.00000000000E+00 0.  1.
</event>
<event>
 7    1  0.3925070E-015  0.9000777E+02  0.7816164E-02  0.1186339E+00
        -11   -1    0    0    0    0  0.00000000000E+00  0.00000000000E+00  0.45593999997E+02  0.45594000000E+02  0.51100000000E-03 0.  1.
         11   -1    0    0    0    0 -0.00000000000E+00 -0.00000000000E+00 -0.45593999997E+02  0.45594000000E+02  0.51100000000E-03 0. -1.
    9900012    2    1    2    0    0  0.68376568349E+00 -0.96185502544E+00  0.15206732115E-01  0.90007774664E+02  0.90000036489E+02 0.  0.
        -12    1    1    2    0    0 -0.68376568349E+00  0.96185502544E+00 -0.15206732115E-01  0.11802253364E+01  0.00000000000E+00 0.  1.
         11    1    3    3    0    0  0.11248651853E+02 -0.88297685386E+01 -0.62588533795E+01  0.15609940001E+02  0.51100000000E-03 0. -1.
        -11    1    3    3    0    0  0.17952665029E+02  0.15731585018E+01  0.31181581183E+02  0.36014774949E+02  0.51100000000E-03 0.  1.
         12    1    3    3    0    0 -0.28517551199E+02  0.62947550113E+01 -0.24907521071E+02  0.38383059713E+02  0.00000000000E+00 0. -1.
</event>
<event>
 7    1  0.3925070E-015  0.9000780E+02  0.7816164E-02  0.1186339E+00
        -11   -1    0    0    0    0  0.00000000000E+00  0.00000000000E+00  0.45593999997E+02  0.45594000000E+02  0.51100000000E-03 0.  1.
         11   -1    0    0    0    0 -0.00000000000E+00 -0.00000000000E+00 -0.45593999997E+02  0.45594000000E+02  0.51100000000E-03 0. -1.
    9900012    2    1    2    0    0  0.73317167658E+00  0.37320074535E-01 -0.92408960535E+00  0.90007798706E+02  0.90000060849E+02 0.  0.
        -12    1    1    2    0    0 -0.73317167658E+00 -0.37320074535E-01  0.92408960535E+00  0.11802012939E+01  0.00000000000E+00 0.  1.
         11    1    3    3    0    0 -0.29428666661E+01  0.48745989445E+01 -0.73508631656E+01  0.92982454594E+01  0.51100000000E-03 0. -1.
        -11    1    3    3    0    0 -0.22053433525E+02 -0.29413096980E+02  0.20911165361E+02  0.42293747070E+02  0.51100000000E-03 0.  1.
         12    1    3    3    0    0  0.25729471868E+02  0.24575818110E+02 -0.14484391801E+02  0.38415806177E+02  0.00000000000E+00 0. -1.
</event>
<event>
 7    1  0.3925070E-015  0.9000766E+02  0.7816164E-02  0.1186339E+00
        -11   -1    0    0    0    0  0.00000000000E+00  0.00000000000E+00  0.45593999997E+02  0.45594000000E+02  0.51100000000E-03 0.  1.
         11   -1    0    0    0    0 -0.00000000000E+00 -0.00000000000E+00 -0.45593999997E+02  0.45594000000E+02  0.51100000000E-03 0. -1.
    9900012    2    1    2    0    0  0.32014837988E+00 -0.42913174247E+00 -0.10519235303E+01  0.90007664391E+02  0.89999924760E+02 0.  0.
        -12    1    1    2    0    0 -0.32014837988E+00  0.42913174247E+00  0.10519235303E+01  0.11803356095E+01  0.00000000000E+00 0.  1.
         11    1    3    3    0    0 -0.60063704819E+01  0.61511871155E+01  0.71703411563E+01  0.11194971275E+02  0.51100000000E-03 0. -1.
        -11    1    3    3    0    0  0.17561849195E+02 -0.12348932931E+02  0.30942988025E+02  0.37661428542E+02  0.51100000000E-03 0.  1.
         12    1    3    3    0    0 -0.11235330333E+02  0.57686140734E+01 -0.39165252711E+02  0.41151264573E+02  0.00000000000E+00 0. -1.
</event>
<event>
 7    1  0.3925070E-015  0.9000784E+02  0.7816164E-02  0.1186339E+00
        -11   -1    0    0    0    0  0.00000000000E+00  0.00000000000E+00  0.45593999997E+02  0.45594000000E+02  0.51100000000E-03 0. -1.
         11   -1    0    0    0    0 -0.00000000000E+00 -0.00000000000E+00 -0.45593999997E+02  0.45594000000E+02  0.51100000000E-03 0.  1.
    9900012    2    1    2    0    0  0.73466504639E+00 -0.92337988019E+00 -0.20236982763E-01  0.90007842100E+02  0.90000104816E+02 0.  0.
        -12    1    1    2    0    0 -0.73466504639E+00  0.92337988019E+00  0.20236982763E-01  0.11801579000E+01  0.00000000000E+00 0.  1.
         11    1    3    3    0    0 -0.25114067707E+02  0.23435495709E+02  0.11982122118E+02  0.36380078431E+02  0.51100000000E-03 0. -1.
        -11    1    3    3    0    0 -0.67052557905E+01 -0.30385743770E+00  0.62994619460E+01  0.92052162185E+01  0.51100000000E-03 0.  1.
        -12    1    3    3    0    0  0.32553988544E+02 -0.24055018151E+02 -0.18301821047E+02  0.44422547451E+02  0.00000000000E+00 0.  1.
</event>
<event>
 7    1  0.3925070E-015  0.9000768E+02  0.7816164E-02  0.1186339E+00
        -11   -1    0    0    0    0  0.00000000000E+00  0.00000000000E+00  0.45593999997E+02  0.45594000000E+02  0.51100000000E-03 0.  1.
         11   -1    0    0    0    0 -0.00000000000E+00 -0.00000000000E+00 -0.45593999997E+02  0.45594000000E+02  0.51100000000E-03 0. -1.
    9900012    2    1    2    0    0  0.46674661482E+00  0.10398438967E+01 -0.30664470703E+00  0.90007678557E+02  0.89999939114E+02 0.  0.
        -12    1    1    2    0    0 -0.46674661482E+00 -0.10398438967E+01  0.30664470703E+00  0.11803214428E+01  0.00000000000E+00 0.  1.
         11    1    3    3    0    0  0.54309391413E+01  0.71113434353E+01  0.42763436528E+01  0.99173293133E+01  0.51100000000E-03 0. -1.
        -11    1    3    3    0    0 -0.68529671931E+01 -0.16131942418E+01  0.37284722944E+02  0.37943591294E+02  0.51100000000E-03 0.  1.
         12    1    3    3    0    0  0.18887746667E+01 -0.44583052968E+01 -0.41867711304E+02  0.42146757950E+02  0.00000000000E+00 0. -1.
</event>
<event>
 7    1  0.3925070E-015  0.9000777E+02  0.7816164E-02  0.1186339E+00
        -11   -1    0    0    0    0  0.00000000000E+00  0.00000000000E+00  0.45593999997E+02  0.45594000000E+02  0.51100000000E-03 0. -1.
         11   -1    0    0    0    0 -0.00000000000E+00 -0.00000000000E+00 -0.45593999997E+02  0.45594000000E+02  0.51100000000E-03 0.  1.
    9900012    2    1    2    0    0 -0.11399742447E+01 -0.10041066020E+00  0.28863604574E+00  0.90007773604E+02  0.90000035415E+02 0.  0.
        -12    1    1    2    0    0  0.11399742447E+01  0.10041066020E+00 -0.28863604574E+00  0.11802263961E+01  0.00000000000E+00 0.  1.
         11    1    3    3    0    0  0.35066412858E+02  0.45727551393E+01  0.15139977883E+02  0.38467939000E+02  0.51100000000E-03 0. -1.
        -11    1    3    3    0    0  0.19244325806E+01 -0.10402617628E+02 -0.12514886022E+01  0.10652892483E+02  0.51100000000E-03 0.  1.
        -12    1    3    3    0    0 -0.38130819684E+02  0.57294518286E+01 -0.13599853235E+02  0.40886942121E+02  0.00000000000E+00 0.  1.
</event>
<event>
 7    1  0.3925070E-015  0.9000780E+02  0.7816164E-02  0.1186339E+00
        -11   -1    0    0    0    0  0.00000000000E+00  0.00000000000E+00  0.45593999997E+02  0.45594000000E+02  0.51100000000E-03 0.  1.
         11   -1    0    0    0    0 -0.00000000000E+00 -0.00000000000E+00 -0.45593999997E+02  0.45594000000E+02  0.51100000000E-03 0. -1.
    9900012    2    1    2    0    0 -0.19895994158E+00  0.77974044084E+00  0.86330116574E+00  0.90007801239E+02  0.90000063415E+02 0.  0.
        -12    1    1    2    0    0  0.19895994158E+00 -0.77974044084E+00 -0.86330116574E+00  0.11801987613E+01  0.00000000000E+00 0.  1.
         11    1    3    3    0    0 -0.69146028305E+01  0.73449708440E-01 -0.60560606444E+01  0.91920072864E+01  0.51100000000E-03 0. -1.
        -11    1    3    3    0    0  0.66201187122E+01  0.38846292509E+02 -0.73646453621E+01  0.40088631993E+02  0.51100000000E-03 0.  1.
         12    1    3    3    0    0  0.95524176726E-01 -0.38140001777E+02  0.14284007172E+02  0.40727161960E+02  0.00000000000E+00 0. -1.
</event>
<event>
 7    1  0.3925070E-015  0.9000774E+02  0.7816164E-02  0.1186339E+00
        -11   -1    0    0    0    0  0.00000000000E+00  0.00000000000E+00  0.45593999997E+02  0.45594000000E+02  0.51100000000E-03 0.  1.
         11   -1    0    0    0    0 -0.00000000000E+00 -0.00000000000E+00 -0.45593999997E+02  0.45594000000E+02  0.51100000000E-03 0. -1.
    9900012    2    1    2    0    0  0.59940449112E+00 -0.80081542937E+00 -0.62642870464E+00  0.90007744088E+02  0.90000005510E+02 0.  0.
        -12    1    1    2    0    0 -0.59940449112E+00  0.80081542937E+00  0.62642870464E+00  0.11802559120E+01  0.00000000000E+00 0.  1.
         11    1    3    3    0    0  0.90781442140E+01 -0.22611031374E+02  0.28406821388E+02  0.37424843938E+02  0.51100000000E-03 0. -1.
        -11    1    3    3    0    0  0.55581092954E+01 -0.79290135729E+01 -0.17213912236E+01  0.98348880617E+01  0.51100000000E-03 0.  1.
        -12    1    3    3    0    0 -0.14036849018E+02  0.29739229517E+02 -0.27311858869E+02  0.42748012088E+02  0.00000000000E+00 0.  1.
</event>
<event>
 7    1  0.4888166E-015  0.9000669E+02  0.7816164E-02  0.1186341E+00
        -11   -1    0    0    0    0  0.00000000000E+00  0.00000000000E+00  0.45593999997E+02  0.45594000000E+02  0.51100000000E-03 0. -1.
         11   -1    0    0    0    0 -0.00000000000E+00 -0.00000000000E+00 -0.45593999997E+02  0.45594000000E+02  0.51100000000E-03 0.  1.
    9900012    2    1    2    0    0 -0.77400376556E+00 -0.81430653653E+00  0.36512027179E+00  0.90006691498E+02  0.89998939019E+02 0.  0.
        -12    1    1    2    0    0  0.77400376556E+00  0.81430653653E+00 -0.36512027179E+00  0.11813085022E+01  0.00000000000E+00 0.  1.
         11    1    3    3    0    0  0.87915286332E+00  0.84798623281E+01  0.38806652562E+02  0.39732068385E+02  0.51100000000E-03 0. -1.
        -11    1    3    3    0    0  0.13931364462E+01  0.91415012482E+01 -0.22084480946E+01  0.95071087864E+01  0.51100000000E-03 0.  1.
        -12    1    3    3    0    0 -0.30462930751E+01 -0.18435670113E+02 -0.36233084195E+02  0.40767514326E+02  0.00000000000E+00 0.  1.
</event>
<event>
 7    1  0.3925070E-015  0.9000772E+02  0.7816164E-02  0.1186339E+00
        -11   -1    0    0    0    0  0.00000000000E+00  0.00000000000E+00  0.45593999997E+02  0.45594000000E+02  0.51100000000E-03 0.  1.
         11   -1    0    0    0    0 -0.00000000000E+00 -0.00000000000E+00 -0.45593999997E+02  0.45594000000E+02  0.51100000000E-03 0. -1.
    9900012    2    1    2    0    0  0.15066469279E+00  0.89014000831E+00 -0.76027046407E+00  0.90007720261E+02  0.89999981368E+02 0.  0.
        -12    1    1    2    0    0 -0.15066469279E+00 -0.89014000831E+00  0.76027046407E+00  0.11802797391E+01  0.00000000000E+00 0.  1.
         11    1    3    3    0    0  0.22258754045E+02  0.10824310691E+02 -0.16939078201E+01  0.24809013634E+02  0.51100000000E-03 0. -1.
        -11    1    3    3    0    0 -0.16736259970E+02 -0.35385475422E+02  0.16252312540E+01  0.39177489015E+02  0.51100000000E-03 0.  1.
         12    1    3    3    0    0 -0.53718293818E+01  0.25451304740E+02 -0.69159389798E+00  0.26021217611E+02  0.00000000000E+00 0. -1.
</event>
<event>
 7    1  0.3925070E-015  0.9000764E+02  0.7816164E-02  0.1186339E+00
        -11   -1    0    0    0    0  0.00000000000E+00  0.00000000000E+00  0.45593999997E+02  0.45594000000E+02  0.51100000000E-03 0.  1.
         11   -1    0    0    0    0 -0.00000000000E+00 -0.00000000000E+00 -0.45593999997E+02  0.45594000000E+02  0.51100000000E-03 0. -1.
    9900012    2    1    2    0    0 -0.83663635494E+00  0.71531979595E+00 -0.42614918012E+00  0.90007641612E+02  0.89999901681E+02 0.  0.
        -12    1    1    2    0    0  0.83663635494E+00 -0.71531979595E+00  0.42614918012E+00  0.11803583882E+01  0.00000000000E+00 0.  1.
         11    1    3    3    0    0  0.33873037710E+02  0.54124592728E+01  0.14497306923E+02  0.37240425714E+02  0.51100000000E-03 0. -1.
        -11    1    3    3    0    0  0.10962690693E+01  0.74228469235E+01  0.59584439452E+01  0.95814151790E+01  0.51100000000E-03 0.  1.
        -12    1    3    3    0    0 -0.35805943134E+02 -0.12119986400E+02 -0.20881900049E+02  0.43185800719E+02  0.00000000000E+00 0.  1.
</event>
<event>
 7    1  0.3925070E-015  0.9000768E+02  0.7816164E-02  0.1186339E+00
        -11   -1    0    0    0    0  0.00000000000E+00  0.00000000000E+00  0.45593999997E+02  0.45594000000E+02  0.51100000000E-03 0.  1.
         11   -1    0    0    0    0 -0.00000000000E+00 -0.00000000000E+00 -0.45593999997E+02  0.45594000000E+02  0.51100000000E-03 0. -1.
    9900012    2    1    2    0    0  0.55597119888E-02  0.95069122649E-01 -0.11764726230E+01  0.90007679331E+02  0.89999939898E+02 0.  0.
        -12    1    1    2    0    0 -0.55597119888E-02 -0.95069122649E-01  0.11764726230E+01  0.11803206688E+01  0.00000000000E+00 0.  1.
         11    1    3    3    0    0 -0.14009265101E+02  0.19969269535E+02 -0.68451513109E+01  0.25335495478E+02  0.51100000000E-03 0. -1.
        -11    1    3    3    0    0 -0.72673909334E+01  0.16941769071E+02  0.11532955933E+02  0.21745058819E+02  0.51100000000E-03 0.  1.
        -12    1    3    3    0    0  0.21282215746E+02 -0.36815969483E+02 -0.58642772455E+01  0.42927125033E+02  0.00000000000E+00 0.  1.
</event>
<event>
 7    1  0.3925070E-015  0.9000774E+02  0.7816164E-02  0.1186339E+00
        -11   -1    0    0    0    0  0.00000000000E+00  0.00000000000E+00  0.45593999997E+02  0.45594000000E+02  0.51100000000E-03 0.  1.
         11   -1    0    0    0    0 -0.00000000000E+00 -0.00000000000E+00 -0.45593999997E+02  0.45594000000E+02  0.51100000000E-03 0. -1.
    9900012    2    1    2    0    0  0.11359524984E+01 -0.79855649765E-01  0.31022911382E+00  0.90007742779E+02  0.90000004184E+02 0.  0.
        -12    1    1    2    0    0 -0.11359524984E+01  0.79855649765E-01 -0.31022911382E+00  0.11802572205E+01  0.00000000000E+00 0.  1.
         11    1    3    3    0    0 -0.24842668362E+01 -0.75729079450E+01 -0.72639418964E+01  0.10783569381E+02  0.51100000000E-03 0. -1.
        -11    1    3    3    0    0  0.13153951158E+02  0.30034345380E+02 -0.23007065872E+02  0.40055129682E+02  0.51100000000E-03 0.  1.
         12    1    3    3    0    0 -0.95337318236E+01 -0.22541293085E+02  0.30581236883E+02  0.39169043717E+02  0.00000000000E+00 0. -1.
</event>
<event>
 7    1  0.3925070E-015  0.9000776E+02  0.7816164E-02  0.1186339E+00
        -11   -1    0    0    0    0  0.00000000000E+00  0.00000000000E+00  0.45593999997E+02  0.45594000000E+02  0.51100000000E-03 0.  1.
         11   -1    0    0    0    0 -0.00000000000E+00 -0.00000000000E+00 -0.45593999997E+02  0.45594000000E+02  0.51100000000E-03 0. -1.
    9900012    2    1    2    0    0  0.32601147050E+00 -0.11339956988E+01  0.26951738617E-01  0.90007764379E+02  0.90000026069E+02 0.  0.
        -12    1    1    2    0    0 -0.32601147050E+00  0.11339956988E+01 -0.26951738617E-01  0.11802356205E+01  0.00000000000E+00 0.  1.
         11    1    3    3    0    0 -0.92997671792E+01  0.50855507101E+01 -0.58032167683E+00  0.10615331795E+02  0.51100000000E-03 0. -1.
        -11    1    3    3    0    0 -0.13276350974E+02 -0.35680956170E+02 -0.12139414212E+02  0.39959448270E+02  0.51100000000E-03 0.  1.
         12    1    3    3    0    0  0.22902129623E+02  0.29461409761E+02  0.12746687628E+02  0.39432984314E+02  0.00000000000E+00 0. -1.
</event>
<event>
 7    1  0.3925070E-015  0.9000766E+02  0.7816164E-02  0.1186339E+00
        -11   -1    0    0    0    0  0.00000000000E+00  0.00000000000E+00  0.45593999997E+02  0.45594000000E+02  0.51100000000E-03 0.  1.
         11   -1    0    0    0    0 -0.00000000000E+00 -0.00000000000E+00 -0.45593999997E+02  0.45594000000E+02  0.51100000000E-03 0. -1.
    9900012    2    1    2    0    0  0.61116067711E+00 -0.58558477540E+00 -0.82265921022E+00  0.90007663150E+02  0.89999923504E+02 0.  0.
        -12    1    1    2    0    0 -0.61116067711E+00  0.58558477540E+00  0.82265921022E+00  0.11803368496E+01  0.00000000000E+00 0.  1.
         11    1    3    3    0    0  0.88266139236E+00 -0.85817572133E+01  0.57479074859E+01  0.10366488737E+02  0.51100000000E-03 0. -1.
        -11    1    3    3    0    0 -0.15678833462E+02 -0.19076036127E+01  0.32697052229E+02  0.36312008964E+02  0.51100000000E-03 0.  1.
         12    1    3    3    0    0  0.15407332747E+02  0.99037760507E+01 -0.39267618926E+02  0.43329165449E+02  0.00000000000E+00 0. -1.
</event>
<event>
 7    1  0.3925070E-015  0.9000773E+02  0.7816164E-02  0.1186339E+00
        -11   -1    0    0    0    0  0.00000000000E+00  0.00000000000E+00  0.45593999997E+02  0.45594000000E+02  0.51100000000E-03 0.  1.
         11   -1    0    0    0    0 -0.00000000000E+00 -0.00000000000E+00 -0.45593999997E+02  0.45594000000E+02  0.51100000000E-03 0. -1.
    9900012    2    1    2    0    0 -0.50198432728E+00 -0.55516320993E+00 -0.91259902662E+00  0.90007732472E+02  0.89999993741E+02 0.  0.
        -12    1    1    2    0    0  0.50198432728E+00  0.55516320993E+00  0.91259902662E+00  0.11802675281E+01  0.00000000000E+00 0.  1.
         11    1    3    3    0    0  0.19602434476E+02  0.22359272188E+02 -0.18203391500E+02  0.34864824000E+02  0.51100000000E-03 0. -1.
        -11    1    3    3    0    0  0.99974934481E+01  0.48062981481E+01  0.11462164350E+01  0.11151869328E+02  0.51100000000E-03 0.  1.
        -12    1    3    3    0    0 -0.30101912251E+02 -0.27720733546E+02  0.16144576039E+02  0.43991039144E+02  0.00000000000E+00 0.  1.
</event>
<event>
 7    1  0.3925070E-015  0.9000786E+02  0.7816164E-02  0.1186339E+00
        -11   -1    0    0    0    0  0.00000000000E+00  0.00000000000E+00  0.45593999997E+02  0.45594000000E+02  0.51100000000E-03 0.  1.
         11   -1    0    0    0    0 -0.00000000000E+00 -0.00000000000E+00 -0.45593999997E+02  0.45594000000E+02  0.51100000000E-03 0. -1.
    9900012    2    1    2    0    0 -0.77996634468E+00  0.87703235430E+00  0.12324765292E+00  0.90007863045E+02  0.90000126037E+02 0.  0.
        -12    1    1    2    0    0  0.77996634468E+00 -0.87703235430E+00 -0.12324765292E+00  0.11801369553E+01  0.00000000000E+00 0.  1.
         11    1    3    3    0    0  0.83712840969E+01 -0.48575092035E+01 -0.79348861889E+01  0.12515438953E+02  0.51100000000E-03 0. -1.
        -11    1    3    3    0    0  0.21163715852E+02  0.74499693672E+01  0.31821135650E+02  0.38935710942E+02  0.51100000000E-03 0.  1.
         12    1    3    3    0    0 -0.30314966293E+02 -0.17154278094E+01 -0.23763001809E+02  0.38556713150E+02  0.00000000000E+00 0. -1.
</event>
<event>
 7    1  0.3925070E-015  0.9000772E+02  0.7816164E-02  0.1186339E+00
        -11   -1    0    0    0    0  0.00000000000E+00  0.00000000000E+00  0.45593999997E+02  0.45594000000E+02  0.51100000000E-03 0. -1.
         11   -1    0    0    0    0 -0.00000000000E+00 -0.00000000000E+00 -0.45593999997E+02  0.45594000000E+02  0.51100000000E-03 0.  1.
    9900012    2    1    2    0    0 -0.11360660242E+01 -0.31984679457E+00 -0.10932250735E-01  0.90007717196E+02  0.89999978263E+02 0.  0.
        -12    1    1    2    0    0  0.11360660242E+01  0.31984679457E+00  0.10932250735E-01  0.11802828040E+01  0.00000000000E+00 0.  1.
         11    1    3    3    0    0 -0.74564766060E+01  0.55992450821E+01  0.23894201127E+02  0.25649238519E+02  0.51100000000E-03 0. -1.
        -11    1    3    3    0    0 -0.13602802847E+02 -0.89684593537E+01  0.13964856278E+02  0.21458954299E+02  0.51100000000E-03 0.  1.
        -12    1    3    3    0    0  0.19923213429E+02  0.30493674771E+01 -0.37869989655E+02  0.42899524378E+02  0.00000000000E+00 0.  1.
</event>
<event>
 7    1  0.3925070E-015  0.9000760E+02  0.7816164E-02  0.1186339E+00
        -11   -1    0    0    0    0  0.00000000000E+00  0.00000000000E+00  0.45593999997E+02  0.45594000000E+02  0.51100000000E-03 0. -1.
         11   -1    0    0    0    0 -0.00000000000E+00 -0.00000000000E+00 -0.45593999997E+02  0.45594000000E+02  0.51100000000E-03 0.  1.
    9900012    2    1    2    0    0  0.11047559497E+01 -0.30230522914E+00 -0.28542382575E+00  0.90007601372E+02  0.89999860910E+02 0.  0.
        -12    1    1    2    0    0 -0.11047559497E+01  0.30230522914E+00  0.28542382575E+00  0.11803986277E+01  0.00000000000E+00 0.  1.
         11    1    3    3    0    0 -0.20030490850E+01 -0.11356734613E+01 -0.88385965641E+01  0.91336054946E+01  0.51100000000E-03 0. -1.
        -11    1    3    3    0    0 -0.37410330904E+02 -0.46328502617E+00 -0.58186206778E+01  0.37862961298E+02  0.51100000000E-03 0.  1.
         12    1    3    3    0    0  0.40518135939E+02  0.12966532583E+01  0.14371793416E+02  0.43011034580E+02  0.00000000000E+00 0. -1.
</event>
<event>
 7    1  0.3925070E-015  0.9000776E+02  0.7816164E-02  0.1186339E+00
        -11   -1    0    0    0    0  0.00000000000E+00  0.00000000000E+00  0.45593999997E+02  0.45594000000E+02  0.51100000000E-03 0.  1.
         11   -1    0    0    0    0 -0.00000000000E+00 -0.00000000000E+00 -0.45593999997E+02  0.45594000000E+02  0.51100000000E-03 0. -1.
    9900012    2    1    2    0    0 -0.80880574795E+00  0.57719994004E+00 -0.63690701154E+00  0.90007755513E+02  0.90000017085E+02 0.  0.
        -12    1    1    2    0    0  0.80880574795E+00 -0.57719994004E+00  0.63690701154E+00  0.11802444874E+01  0.00000000000E+00 0.  1.
         11    1    3    3    0    0 -0.30684118913E+02  0.17522933091E+02  0.11795906834E+02  0.37252003380E+02  0.51100000000E-03 0. -1.
        -11    1    3    3    0    0 -0.70177329393E+01  0.47352426887E+01 -0.24769264745E+01  0.88207859031E+01  0.51100000000E-03 0.  1.
        -12    1    3    3    0    0  0.36893046104E+02 -0.21680975840E+02 -0.99558873705E+01  0.43934966229E+02  0.00000000000E+00 0.  1.
</event>
<event>
 7    1  0.3925070E-015  0.9000788E+02  0.7816164E-02  0.1186339E+00
        -11   -1    0    0    0    0  0.00000000000E+00  0.00000000000E+00  0.45593999997E+02  0.45594000000E+02  0.51100000000E-03 0.  1.
         11   -1    0    0    0    0 -0.00000000000E+00 -0.00000000000E+00 -0.45593999997E+02  0.45594000000E+02  0.51100000000E-03 0. -1.
    9900012    2    1    2    0    0 -0.75023439479E+00  0.36878611625E+00 -0.83296337750E+00  0.90007880161E+02  0.90000143379E+02 0.  0.
        -12    1    1    2    0    0  0.75023439479E+00 -0.36878611625E+00  0.83296337750E+00  0.11801198392E+01  0.00000000000E+00 0.  1.
         11    1    3    3    0    0  0.87355042310E-01  0.63093032877E+01 -0.73172533851E+01  0.96621496698E+01  0.51100000000E-03 0. -1.
        -11    1    3    3    0    0 -0.28357675424E+02 -0.14832818564E+02  0.29391685789E+02  0.43451599002E+02  0.51100000000E-03 0.  1.
         12    1    3    3    0    0  0.27520085987E+02  0.88923013928E+01 -0.22907395782E+02  0.36894131489E+02  0.00000000000E+00 0. -1.
</event>
<event>
 7    1  0.3925070E-015  0.9000773E+02  0.7816164E-02  0.1186339E+00
        -11   -1    0    0    0    0  0.00000000000E+00  0.00000000000E+00  0.45593999997E+02  0.45594000000E+02  0.51100000000E-03 0.  1.
         11   -1    0    0    0    0 -0.00000000000E+00 -0.00000000000E+00 -0.45593999997E+02  0.45594000000E+02  0.51100000000E-03 0. -1.
    9900012    2    1    2    0    0 -0.11159127076E+01  0.36089202663E+00  0.13238192308E+00  0.90007733420E+02  0.89999994701E+02 0.  0.
        -12    1    1    2    0    0  0.11159127076E+01 -0.36089202663E+00 -0.13238192308E+00  0.11802665799E+01  0.00000000000E+00 0.  1.
         11    1    3    3    0    0  0.84104428279E+01  0.30878525560E+01 -0.30806678489E+01  0.94742227452E+01  0.51100000000E-03 0. -1.
        -11    1    3    3    0    0  0.14513510963E+02  0.33719032161E+02  0.34589433184E+01  0.36872475093E+02  0.51100000000E-03 0.  1.
         12    1    3    3    0    0 -0.24039866499E+02 -0.36445992690E+02 -0.24589354647E+00  0.43661035582E+02  0.00000000000E+00 0. -1.
</event>
<event>
 7    1  0.3925070E-015  0.9000769E+02  0.7816164E-02  0.1186339E+00
        -11   -1    0    0    0    0  0.00000000000E+00  0.00000000000E+00  0.45593999997E+02  0.45594000000E+02  0.51100000000E-03 0.  1.
         11   -1    0    0    0    0 -0.00000000000E+00 -0.00000000000E+00 -0.45593999997E+02  0.45594000000E+02  0.51100000000E-03 0. -1.
    9900012    2    1    2    0    0 -0.21733607600E+00 -0.10414781772E+01 -0.51110400891E+00  0.90007686876E+02  0.89999947542E+02 0.  0.
        -12    1    1    2    0    0  0.21733607600E+00  0.10414781772E+01  0.51110400891E+00  0.11803131243E+01  0.00000000000E+00 0.  1.
         11    1    3    3    0    0 -0.33667839894E+00  0.36343372136E+02  0.86841400464E+01  0.37368012245E+02  0.51100000000E-03 0. -1.
        -11    1    3    3    0    0 -0.51023394726E+01 -0.21306528564E+01  0.10539355395E+02  0.11901746178E+02  0.51100000000E-03 0.  1.
        -12    1    3    3    0    0  0.52216817955E+01 -0.35254197457E+02 -0.19734599451E+02  0.40737928452E+02  0.00000000000E+00 0.  1.
</event>
<event>
 7    1  0.3925070E-015  0.9000767E+02  0.7816164E-02  0.1186339E+00
        -11   -1    0    0    0    0  0.00000000000E+00  0.00000000000E+00  0.45593999997E+02  0.45594000000E+02  0.51100000000E-03 0.  1.
         11   -1    0    0    0    0 -0.00000000000E+00 -0.00000000000E+00 -0.45593999997E+02  0.45594000000E+02  0.51100000000E-03 0. -1.
    9900012    2    1    2    0    0 -0.71372193899E+00 -0.89777536945E+00  0.27889308419E+00  0.90007669126E+02  0.89999929558E+02 0.  0.
        -12    1    1    2    0    0  0.71372193899E+00  0.89777536945E+00 -0.27889308419E+00  0.11803308742E+01  0.00000000000E+00 0.  1.
         11    1    3    3    0    0 -0.35009402223E+01  0.32306941705E+02 -0.16557254795E+01  0.32538231235E+02  0.51100000000E-03 0. -1.
        -11    1    3    3    0    0  0.98887008681E+01  0.53559665132E+01  0.12547158869E+02  0.16849450379E+02  0.51100000000E-03 0.  1.
        -12    1    3    3    0    0 -0.71014825848E+01 -0.38560683588E+02 -0.10612540305E+02  0.40619987511E+02  0.00000000000E+00 0.  1.
</event>
<event>
 7    1  0.3925070E-015  0.9000798E+02  0.7816164E-02  0.1186339E+00
        -11   -1    0    0    0    0  0.00000000000E+00  0.00000000000E+00  0.45593999997E+02  0.45594000000E+02  0.51100000000E-03 0.  1.
         11   -1    0    0    0    0 -0.00000000000E+00 -0.00000000000E+00 -0.45593999997E+02  0.45594000000E+02  0.51100000000E-03 0. -1.
    9900012    2    1    2    0    0 -0.19798889415E+00 -0.19102521434E+00 -0.11474996456E+01  0.90007980648E+02  0.90000245192E+02 0.  0.
        -12    1    1    2    0    0  0.19798889415E+00  0.19102521434E+00  0.11474996456E+01  0.11800193521E+01  0.00000000000E+00 0.  1.
         11    1    3    3    0    0  0.11343424410E+02  0.17539393338E+02  0.33343367996E+02  0.39345695897E+02  0.51100000000E-03 0. -1.
        -11    1    3    3    0    0 -0.43647030099E+01  0.56093379557E+01  0.14084071911E+01  0.72456135519E+01  0.51100000000E-03 0.  1.
        -12    1    3    3    0    0 -0.71767102942E+01 -0.23339756508E+02 -0.35899274833E+02  0.43416671199E+02  0.00000000000E+00 0.  1.
</event>
<event>
 7    1  0.3925070E-015  0.9000766E+02  0.7816164E-02  0.1186339E+00
        -11   -1    0    0    0    0  0.00000000000E+00  0.00000000000E+00  0.45593999997E+02  0.45594000000E+02  0.51100000000E-03 0.  1.
         11   -1    0    0    0    0 -0.00000000000E+00 -0.00000000000E+00 -0.45593999997E+02  0.45594000000E+02  0.51100000000E-03 0. -1.
    9900012    2    1    2    0    0 -0.72946595911E+00  0.18348578357E-01 -0.92775976441E+00  0.90007662999E+02  0.89999923350E+02 0.  0.
        -12    1    1    2    0    0  0.72946595911E+00 -0.18348578357E-01  0.92775976441E+00  0.11803370012E+01  0.00000000000E+00 0.  1.
         11    1    3    3    0    0 -0.19621395106E+02 -0.61249273046E+01 -0.34347000140E+02  0.40027869032E+02  0.51100000000E-03 0. -1.
        -11    1    3    3    0    0  0.15890969481E+01 -0.75261379300E+01 -0.22769247651E+01  0.80219927635E+01  0.51100000000E-03 0.  1.
        -12    1    3    3    0    0  0.17302832199E+02  0.13669413813E+02  0.35696165140E+02  0.41957801203E+02  0.00000000000E+00 0.  1.
</event>
<event>
 7    1  0.3925070E-015  0.9000780E+02  0.7816164E-02  0.1186339E+00
        -11   -1    0    0    0    0  0.00000000000E+00  0.00000000000E+00  0.45593999997E+02  0.45594000000E+02  0.51100000000E-03 0.  1.
         11   -1    0    0    0    0 -0.00000000000E+00 -0.00000000000E+00 -0.45593999997E+02  0.45594000000E+02  0.51100000000E-03 0. -1.
    9900012    2    1    2    0    0 -0.11581534517E+01  0.14405341447E+00  0.17551226200E+00  0.90007798594E+02  0.90000060736E+02 0.  0.
        -12    1    1    2    0    0  0.11581534517E+01 -0.14405341447E+00 -0.17551226200E+00  0.11802014057E+01  0.00000000000E+00 0.  1.
         11    1    3    3    0    0 -0.11961092322E+02  0.14563737251E+02 -0.19427956675E+02  0.27066874092E+02  0.51100000000E-03 0. -1.
        -11    1    3    3    0    0 -0.62460925296E+01 -0.26535734795E+02 -0.79050176731E+01  0.28383942602E+02  0.51100000000E-03 0.  1.
        -12    1    3    3    0    0  0.17049031400E+02  0.12116050958E+02  0.27508486610E+02  0.34556981900E+02  0.00000000000E+00 0.  1.
</event>
<event>
 7    1  0.3925070E-015  0.9000751E+02  0.7816164E-02  0.1186339E+00
        -11   -1    0    0    0    0  0.00000000000E+00  0.00000000000E+00  0.45593999997E+02  0.45594000000E+02  0.51100000000E-03 0. -1.
         11   -1    0    0    0    0 -0.00000000000E+00 -0.00000000000E+00 -0.45593999997E+02  0.45594000000E+02  0.51100000000E-03 0.  1.
    9900012    2    1    2    0    0 -0.77870434550E+00  0.54616540210E+00  0.69919166104E+00  0.90007514471E+02  0.89999772862E+02 0.  0.
        -12    1    1    2    0    0  0.77870434550E+00 -0.54616540210E+00 -0.69919166104E+00  0.11804855285E+01  0.00000000000E+00 0.  1.
         11    1    3    3    0    0  0.46973065009E+00 -0.58941265355E+01 -0.86882456399E+01  0.10509376150E+02  0.51100000000E-03 0. -1.
        -11    1    3    3    0    0  0.19411143748E+02  0.10551364668E+02 -0.28552840817E+02  0.36102472449E+02  0.51100000000E-03 0.  1.
         12    1    3    3    0    0 -0.20659578743E+02 -0.41110727301E+01  0.37940278118E+02  0.43395665873E+02  0.00000000000E+00 0. -1.
</event>
<event>
 7    1  0.3925070E-015  0.9000765E+02  0.7816164E-02  0.1186339E+00
        -11   -1    0    0    0    0  0.00000000000E+00  0.00000000000E+00  0.45593999997E+02  0.45594000000E+02  0.51100000000E-03 0.  1.
         11   -1    0    0    0    0 -0.00000000000E+00 -0.00000000000E+00 -0.45593999997E+02  0.45594000000E+02  0.51100000000E-03 0. -1.
    9900012    2    1    2    0    0 -0.90869593282E+00 -0.71469172944E+00  0.23813909832E+00  0.90007651409E+02  0.89999911607E+02 0.  0.
        -12    1    1    2    0    0  0.90869593282E+00  0.71469172944E+00 -0.23813909832E+00  0.11803485911E+01  0.00000000000E+00 0.  1.
         11    1    3    3    0    0  0.95660024823E+01  0.18724511450E+02 -0.32689540379E+02  0.38868004618E+02  0.51100000000E-03 0. -1.
        -11    1    3    3    0    0 -0.40745387819E+01  0.86058964436E+01  0.39505844376E+01  0.10308755383E+02  0.51100000000E-03 0.  1.
        -12    1    3    3    0    0 -0.64001596332E+01 -0.28045099623E+02  0.28977095040E+02  0.40830891408E+02  0.00000000000E+00 0.  1.
</event>
<event>
 7    1  0.3925070E-015  0.9000777E+02  0.7816164E-02  0.1186339E+00
        -11   -1    0    0    0    0  0.00000000000E+00  0.00000000000E+00  0.45593999997E+02  0.45594000000E+02  0.51100000000E-03 0.  1.
         11   -1    0    0    0    0 -0.00000000000E+00 -0.00000000000E+00 -0.45593999997E+02  0.45594000000E+02  0.51100000000E-03 0. -1.
    9900012    2    1    2    0    0 -0.11039968455E-01 -0.10819251331E+01 -0.47144018688E+00  0.90007771325E+02  0.90000033107E+02 0.  0.
        -12    1    1    2    0    0  0.11039968455E-01  0.10819251331E+01  0.47144018688E+00  0.11802286746E+01  0.00000000000E+00 0.  1.
         11    1    3    3    0    0  0.21265791698E+01 -0.19486947947E+02 -0.30455578308E+02  0.36218858756E+02  0.51100000000E-03 0. -1.
        -11    1    3    3    0    0  0.71470478886E+01 -0.57729973031E+01 -0.48441709514E+01  0.10386230493E+02  0.51100000000E-03 0.  1.
        -12    1    3    3    0    0 -0.92846670269E+01  0.24178020117E+02  0.34828309072E+02  0.43402682076E+02  0.00000000000E+00 0.  1.
</event>
<event>
 7    1  0.3925070E-015  0.9000773E+02  0.7816164E-02  0.1186339E+00
        -11   -1    0    0    0    0  0.00000000000E+00  0.00000000000E+00  0.45593999997E+02  0.45594000000E+02  0.51100000000E-03 0.  1.
         11   -1    0    0    0    0 -0.00000000000E+00 -0.00000000000E+00 -0.45593999997E+02  0.45594000000E+02  0.51100000000E-03 0. -1.
    9900012    2    1    2    0    0 -0.92980653208E+00  0.67622301184E+00  0.26685921022E+00  0.90007732409E+02  0.89999993677E+02 0.  0.
        -12    1    1    2    0    0  0.92980653208E+00 -0.67622301184E+00 -0.26685921022E+00  0.11802675912E+01  0.00000000000E+00 0.  1.
         11    1    3    3    0    0  0.77067067086E+01 -0.65027107969E+01 -0.28252062646E+01  0.10471884582E+02  0.51100000000E-03 0. -1.
        -11    1    3    3    0    0 -0.19253058401E+02 -0.19433504724E+02  0.29739465463E+02  0.40407637519E+02  0.51100000000E-03 0.  1.
         12    1    3    3    0    0  0.10616545160E+02  0.26612438532E+02 -0.26647399988E+02  0.39128210308E+02  0.00000000000E+00 0. -1.
</event>
<event>
 7    1  0.3925070E-015  0.9000797E+02  0.7816164E-02  0.1186339E+00
        -11   -1    0    0    0    0  0.00000000000E+00  0.00000000000E+00  0.45593999997E+02  0.45594000000E+02  0.51100000000E-03 0.  1.
         11   -1    0    0    0    0 -0.00000000000E+00 -0.00000000000E+00 -0.45593999997E+02  0.45594000000E+02  0.51100000000E-03 0. -1.
    9900012    2    1    2    0    0 -0.83029684796E-01  0.72141066477E+00  0.93012930222E+00  0.90007971274E+02  0.90000235694E+02 0.  0.
        -12    1    1    2    0    0  0.83029684796E-01 -0.72141066477E+00 -0.93012930222E+00  0.11800287262E+01  0.00000000000E+00 0.  1.
         11    1    3    3    0    0 -0.21989111487E+02 -0.36664682786E+02 -0.10065514665E+02  0.43921914502E+02  0.51100000000E-03 0. -1.
        -11    1    3    3    0    0  0.84267298925E+01  0.54411511341E+01  0.34014190201E+01  0.10591768217E+02  0.51100000000E-03 0.  1.
        -12    1    3    3    0    0  0.13479351910E+02  0.31944942316E+02  0.75942249470E+01  0.35494288555E+02  0.00000000000E+00 0.  1.
</event>
<event>
 7    1  0.3925070E-015  0.9000778E+02  0.7816164E-02  0.1186339E+00
        -11   -1    0    0    0    0  0.00000000000E+00  0.00000000000E+00  0.45593999997E+02  0.45594000000E+02  0.51100000000E-03 0. -1.
         11   -1    0    0    0    0 -0.00000000000E+00 -0.00000000000E+00 -0.45593999997E+02  0.45594000000E+02  0.51100000000E-03 0.  1.
    9900012    2    1    2    0    0  0.50342491717E-01 -0.53556544990E+00  0.10505046177E+01  0.90007777703E+02  0.90000039569E+02 0.  0.
        -12    1    1    2    0    0 -0.50342491717E-01  0.53556544990E+00 -0.10505046177E+01  0.11802222966E+01  0.00000000000E+00 0.  1.
         11    1    3    3    0    0 -0.84291638896E+00  0.84064136626E+01 -0.54594001863E+01  0.10058993457E+02  0.51100000000E-03 0. -1.
        -11    1    3    3    0    0 -0.46280630886E+01 -0.10958935383E+02 -0.35546136964E+02  0.37483931037E+02  0.51100000000E-03 0.  1.
         12    1    3    3    0    0  0.55213219693E+01  0.20169562702E+01  0.42056041768E+02  0.42464853209E+02  0.00000000000E+00 0. -1.
</event>
<event>
 7    1  0.3925070E-015  0.9000761E+02  0.7816164E-02  0.1186339E+00
        -11   -1    0    0    0    0  0.00000000000E+00  0.00000000000E+00  0.45593999997E+02  0.45594000000E+02  0.51100000000E-03 0. -1.
         11   -1    0    0    0    0 -0.00000000000E+00 -0.00000000000E+00 -0.45593999997E+02  0.45594000000E+02  0.51100000000E-03 0.  1.
    9900012    2    1    2    0    0 -0.11659721052E+01  0.10847762627E+00  0.14849410610E+00  0.90007614959E+02  0.89999874676E+02 0.  0.
        -12    1    1    2    0    0  0.11659721052E+01 -0.10847762627E+00 -0.14849410610E+00  0.11803850410E+01  0.00000000000E+00 0.  1.
         11    1    3    3    0    0  0.18999327051E+02  0.29592734849E+02  0.14525027791E+02  0.38048400976E+02  0.51100000000E-03 0. -1.
        -11    1    3    3    0    0 -0.10997208206E+01  0.78035146677E+01 -0.38827860183E+01  0.87852293411E+01  0.51100000000E-03 0.  1.
        -12    1    3    3    0    0 -0.19065578335E+02 -0.37287771890E+02 -0.10493747666E+02  0.43173984642E+02  0.00000000000E+00 0.  1.
</event>
<event>
 7    1  0.3925070E-015  0.9000805E+02  0.7816164E-02  0.1186338E+00
        -11   -1    0    0    0    0  0.00000000000E+00  0.00000000000E+00  0.45593999997E+02  0.45594000000E+02  0.51100000000E-03 0. -1.
         11   -1    0    0    0    0 -0.00000000000E+00 -0.00000000000E+00 -0.45593999997E+02  0.45594000000E+02  0.51100000000E-03 0.  1.
    9900012    2    1    2    0    0 -0.29900978119E+00  0.11067642481E+01  0.27919390430E+00  0.90008049498E+02  0.90000314951E+02 0.  0.
        -12    1    1    2    0    0  0.29900978119E+00 -0.11067642481E+01 -0.27919390430E+00  0.11799505016E+01  0.00000000000E+00 0.  1.
         11    1    3    3    0    0 -0.23094644518E+02  0.17141580409E+02  0.27510324799E+02  0.39799677827E+02  0.51100000000E-03 0. -1.
        -11    1    3    3    0    0 -0.74115682969E+01  0.80298841683E+00 -0.33003122604E+01  0.81528029716E+01  0.51100000000E-03 0.  1.
        -12    1    3    3    0    0  0.30207203034E+02 -0.16837804578E+02 -0.23930818634E+02  0.42055568700E+02  0.00000000000E+00 0.  1.
</event>
<event>
 7    1  0.3925070E-015  0.9000782E+02  0.7816164E-02  0.1186339E+00
        -11   -1    0    0    0    0  0.00000000000E+00  0.00000000000E+00  0.45593999997E+02  0.45594000000E+02  0.51100000000E-03 0. -1.
         11   -1    0    0    0    0 -0.00000000000E+00 -0.00000000000E+00 -0.45593999997E+02  0.45594000000E+02  0.51100000000E-03 0.  1.
    9900012    2    1    2    0    0 -0.28984168773E+00 -0.11268874593E+01 -0.19731430508E+00  0.90007823537E+02  0.90000086007E+02 0.  0.
        -12    1    1    2    0    0  0.28984168773E+00  0.11268874593E+01  0.19731430508E+00  0.11801764634E+01  0.00000000000E+00 0.  1.
         11    1    3    3    0    0 -0.90236847837E+01 -0.49427526565E+00  0.16708217546E+01  0.91903667343E+01  0.51100000000E-03 0. -1.
        -11    1    3    3    0    0 -0.33069121733E+02 -0.11855723051E+02  0.88481573880E+01  0.36227266950E+02  0.51100000000E-03 0.  1.
         12    1    3    3    0    0  0.41802964829E+02  0.11223110858E+02 -0.10716293448E+02  0.44590189852E+02  0.00000000000E+00 0. -1.
</event>
<event>
 7    1  0.3925070E-015  0.9000772E+02  0.7816164E-02  0.1186339E+00
        -11   -1    0    0    0    0  0.00000000000E+00  0.00000000000E+00  0.45593999997E+02  0.45594000000E+02  0.51100000000E-03 0. -1.
         11   -1    0    0    0    0 -0.00000000000E+00 -0.00000000000E+00 -0.45593999997E+02  0.45594000000E+02  0.51100000000E-03 0.  1.
    9900012    2    1    2    0    0  0.18031162971E+00  0.26960919547E-01  0.11661130455E+01  0.90007720876E+02  0.89999981992E+02 0.  0.
        -12    1    1    2    0    0 -0.18031162971E+00 -0.26960919547E-01 -0.11661130455E+01  0.11802791237E+01  0.00000000000E+00 0.  1.
         11    1    3    3    0    0  0.20221126665E+01 -0.38336330628E+02 -0.72341976138E+01  0.39065288953E+02  0.51100000000E-03 0. -1.
        -11    1    3    3    0    0 -0.52528784795E+00 -0.34736976853E+01  0.83779341173E+01  0.90847280238E+01  0.51100000000E-03 0.  1.
        -12    1    3    3    0    0 -0.13165131889E+01  0.41836989232E+02  0.22376541994E-01  0.41857703899E+02  0.00000000000E+00 0.  1.
</event>
<event>
 7    1  0.3925070E-015  0.9000768E+02  0.7816164E-02  0.1186339E+00
        -11   -1    0    0    0    0  0.00000000000E+00  0.00000000000E+00  0.45593999997E+02  0.45594000000E+02  0.51100000000E-03 0. -1.
         11   -1    0    0    0    0 -0.00000000000E+00 -0.00000000000E+00 -0.45593999997E+02  0.45594000000E+02  0.51100000000E-03 0.  1.
    9900012    2    1    2    0    0 -0.11731860226E+01  0.40509240786E-01 -0.12305320987E+00  0.90007682867E+02  0.89999943481E+02 0.  0.
        -12    1    1    2    0    0  0.11731860226E+01 -0.40509240786E-01  0.12305320987E+00  0.11803171331E+01  0.00000000000E+00 0.  1.
         11    1    3    3    0    0 -0.16717505963E+02  0.20618505007E+02  0.26814157288E+02  0.37730581571E+02  0.51100000000E-03 0. -1.
        -11    1    3    3    0    0  0.20421499133E+01 -0.45479185834E-01  0.87288898185E+01  0.89647064843E+01  0.51100000000E-03 0.  1.
        -12    1    3    3    0    0  0.13502170027E+02 -0.20532516580E+02 -0.35666100316E+02  0.43312394812E+02  0.00000000000E+00 0.  1.
</event>
<event>
 7    1  0.3925070E-015  0.9000791E+02  0.7816164E-02  0.1186339E+00
        -11   -1    0    0    0    0  0.00000000000E+00  0.00000000000E+00  0.45593999997E+02  0.45594000000E+02  0.51100000000E-03 0.  1.
         11   -1    0    0    0    0 -0.00000000000E+00 -0.00000000000E+00 -0.45593999997E+02  0.45594000000E+02  0.51100000000E-03 0. -1.
    9900012    2    1    2    0    0  0.74317175184E+00 -0.91399659298E+00 -0.70203479282E-01  0.90007905702E+02  0.90000169257E+02 0.  0.
        -12    1    1    2    0    0 -0.74317175184E+00  0.91399659298E+00  0.70203479282E-01  0.11800942984E+01  0.00000000000E+00 0.  1.
         11    1    3    3    0    0  0.14815118300E+02 -0.15970941745E+02 -0.22400466778E+02  0.31246433758E+02  0.51100000000E-03 0. -1.
        -11    1    3    3    0    0  0.13630727173E+02 -0.39673352624E+01 -0.54029838455E+01  0.15189756648E+02  0.51100000000E-03 0.  1.
        -12    1    3    3    0    0 -0.27702673721E+02  0.19024280415E+02  0.27733247144E+02  0.43571715295E+02  0.00000000000E+00 0.  1.
</event>
<event>
 7    1  0.3925070E-015  0.9000776E+02  0.7816164E-02  0.1186339E+00
        -11   -1    0    0    0    0  0.00000000000E+00  0.00000000000E+00  0.45593999997E+02  0.45594000000E+02  0.51100000000E-03 0.  1.
         11   -1    0    0    0    0 -0.00000000000E+00 -0.00000000000E+00 -0.45593999997E+02  0.45594000000E+02  0.51100000000E-03 0. -1.
    9900012    2    1    2    0    0 -0.11382813738E+01 -0.62045225637E-01 -0.30566184241E+00  0.90007761356E+02  0.90000023005E+02 0.  0.
        -12    1    1    2    0    0  0.11382813738E+01  0.62045225637E-01  0.30566184241E+00  0.11802386444E+01  0.00000000000E+00 0.  1.
         11    1    3    3    0    0 -0.68107154032E+01  0.11758132864E+02 -0.35908912351E+01  0.14054680106E+02  0.51100000000E-03 0. -1.
        -11    1    3    3    0    0 -0.25916887093E+02 -0.18978967704E+02 -0.18356565081E+02  0.36997969316E+02  0.51100000000E-03 0.  1.
         12    1    3    3    0    0  0.31589321122E+02  0.71587896140E+01  0.21641794474E+02  0.38955111934E+02  0.00000000000E+00 0. -1.
</event>
<event>
 7    1  0.3925070E-015  0.9000777E+02  0.7816164E-02  0.1186339E+00
        -11   -1    0    0    0    0  0.00000000000E+00  0.00000000000E+00  0.45593999997E+02  0.45594000000E+02  0.51100000000E-03 0.  1.
         11   -1    0    0    0    0 -0.00000000000E+00 -0.00000000000E+00 -0.45593999997E+02  0.45594000000E+02  0.51100000000E-03 0. -1.
    9900012    2    1    2    0    0  0.11191975651E+01 -0.26224471129E+00  0.26753937734E+00  0.90007765787E+02  0.90000027496E+02 0.  0.
        -12    1    1    2    0    0 -0.11191975651E+01  0.26224471129E+00 -0.26753937734E+00  0.11802342127E+01  0.00000000000E+00 0.  1.
         11    1    3    3    0    0  0.28809137692E+02  0.26817244018E+02  0.84371601475E+00  0.39368043490E+02  0.51100000000E-03 0. -1.
        -11    1    3    3    0    0  0.72659806901E+01 -0.63702139436E+01 -0.24425648538E+01  0.99669566269E+01  0.51100000000E-03 0.  1.
        -12    1    3    3    0    0 -0.34955920817E+02 -0.20709274786E+02  0.18663882164E+01  0.40672765670E+02  0.00000000000E+00 0.  1.
</event>
<event>
 7    1  0.3925070E-015  0.9000797E+02  0.7816164E-02  0.1186339E+00
        -11   -1    0    0    0    0  0.00000000000E+00  0.00000000000E+00  0.45593999997E+02  0.45594000000E+02  0.51100000000E-03 0.  1.
         11   -1    0    0    0    0 -0.00000000000E+00 -0.00000000000E+00 -0.45593999997E+02  0.45594000000E+02  0.51100000000E-03 0. -1.
    9900012    2    1    2    0    0  0.10721433803E+01 -0.40940284517E+00 -0.27452812855E+00  0.90007971267E+02  0.90000235687E+02 0.  0.
        -12    1    1    2    0    0 -0.10721433803E+01  0.40940284517E+00  0.27452812855E+00  0.11800287331E+01  0.00000000000E+00 0.  1.
         11    1    3    3    0    0  0.22729255125E+01  0.48508808662E+01  0.15439341512E+02  0.16342291827E+02  0.51100000000E-03 0. -1.
        -11    1    3    3    0    0 -0.11778281633E+02  0.27718463465E+02  0.86337939046E+01  0.31330233521E+02  0.51100000000E-03 0.  1.
         12    1    3    3    0    0  0.10577499501E+02 -0.32978747176E+02 -0.24347663546E+02  0.42335445918E+02  0.00000000000E+00 0. -1.
</event>
<event>
 7    1  0.3925070E-015  0.9000774E+02  0.7816164E-02  0.1186339E+00
        -11   -1    0    0    0    0  0.00000000000E+00  0.00000000000E+00  0.45593999997E+02  0.45594000000E+02  0.51100000000E-03 0. -1.
         11   -1    0    0    0    0 -0.00000000000E+00 -0.00000000000E+00 -0.45593999997E+02  0.45594000000E+02  0.51100000000E-03 0.  1.
    9900012    2    1    2    0    0  0.19544560298E+00 -0.61048398872E+00 -0.99102042917E+00  0.90007741056E+02  0.90000002438E+02 0.  0.
        -12    1    1    2    0    0 -0.19544560298E+00  0.61048398872E+00  0.99102042917E+00  0.11802589441E+01  0.00000000000E+00 0.  1.
         11    1    3    3    0    0  0.91671119731E+01  0.92680531608E+01  0.34057432370E+02  0.36466991255E+02  0.51100000000E-03 0. -1.
        -11    1    3    3    0    0 -0.48789947871E+01 -0.53558459985E+01  0.75756835819E+01  0.10482397554E+02  0.51100000000E-03 0.  1.
        -12    1    3    3    0    0 -0.40926715831E+01 -0.45226911510E+01 -0.42624136381E+02  0.43058352246E+02  0.00000000000E+00 0.  1.
</event>
<event>
 7    1  0.3925070E-015  0.9000775E+02  0.7816164E-02  0.1186339E+00
        -11   -1    0    0    0    0  0.00000000000E+00  0.00000000000E+00  0.45593999997E+02  0.45594000000E+02  0.51100000000E-03 0. -1.
         11   -1    0    0    0    0 -0.00000000000E+00 -0.00000000000E+00 -0.45593999997E+02  0.45594000000E+02  0.51100000000E-03 0.  1.
    9900012    2    1    2    0    0 -0.82920628164E+00  0.22554434292E+00  0.80904164516E+00  0.90007745073E+02  0.90000006508E+02 0.  0.
        -12    1    1    2    0    0  0.82920628164E+00 -0.22554434292E+00 -0.80904164516E+00  0.11802549266E+01  0.00000000000E+00 0.  1.
         11    1    3    3    0    0  0.78752453985E+01 -0.14092786775E+01 -0.45924096573E+01  0.92247375681E+01  0.51100000000E-03 0. -1.
        -11    1    3    3    0    0 -0.38377787722E+01  0.92888276076E+01 -0.36527130487E+02  0.37884589559E+02  0.51100000000E-03 0.  1.
         12    1    3    3    0    0 -0.48666729080E+01 -0.76540045872E+01  0.41928581789E+02  0.42898417946E+02  0.00000000000E+00 0. -1.
</event>
<event>
 7    1  0.3925070E-015  0.9000778E+02  0.7816164E-02  0.1186339E+00
        -11   -1    0    0    0    0  0.00000000000E+00  0.00000000000E+00  0.45593999997E+02  0.45594000000E+02  0.51100000000E-03 0. -1.
         11   -1    0    0    0    0 -0.00000000000E+00 -0.00000000000E+00 -0.45593999997E+02  0.45594000000E+02  0.51100000000E-03 0.  1.
    9900012    2    1    2    0    0 -0.14726963205E+00 -0.11651290382E+01 -0.11703314814E+00  0.90007783589E+02  0.90000045532E+02 0.  0.
        -12    1    1    2    0    0  0.14726963205E+00  0.11651290382E+01  0.11703314814E+00  0.11802164115E+01  0.00000000000E+00 0.  1.
         11    1    3    3    0    0  0.25485136465E+01  0.83632161974E+01 -0.37430591773E+01  0.95104573621E+01  0.51100000000E-03 0. -1.
        -11    1    3    3    0    0 -0.29128481829E+02  0.58871087420E+01 -0.24819371607E+02  0.38718570612E+02  0.51100000000E-03 0.  1.
         12    1    3    3    0    0  0.26432698550E+02 -0.15415453978E+02  0.28445397636E+02  0.41778755614E+02  0.00000000000E+00 0. -1.
</event>
<event>
 7    1  0.3925070E-015  0.9000771E+02  0.7816164E-02  0.1186339E+00
        -11   -1    0    0    0    0  0.00000000000E+00  0.00000000000E+00  0.45593999997E+02  0.45594000000E+02  0.51100000000E-03 0.  1.
         11   -1    0    0    0    0 -0.00000000000E+00 -0.00000000000E+00 -0.45593999997E+02  0.45594000000E+02  0.51100000000E-03 0. -1.
    9900012    2    1    2    0    0  0.10629049142E+01  0.39242011802E+00 -0.33064245574E+00  0.90007709850E+02  0.89999970820E+02 0.  0.
        -12    1    1    2    0    0 -0.10629049142E+01 -0.39242011802E+00  0.33064245574E+00  0.11802901504E+01  0.00000000000E+00 0.  1.
         11    1    3    3    0    0 -0.13473499605E+01  0.41318568412E+01  0.75907172776E+01  0.87468040976E+01  0.51100000000E-03 0. -1.
        -11    1    3    3    0    0  0.11249498939E+02 -0.25329647925E+02  0.27372253229E+02  0.38953594667E+02  0.51100000000E-03 0.  1.
         12    1    3    3    0    0 -0.88392440648E+01  0.21590211201E+02 -0.35293612962E+02  0.42307311085E+02  0.00000000000E+00 0. -1.
</event>
<event>
 7    1  0.3925070E-015  0.9000768E+02  0.7816164E-02  0.1186339E+00
        -11   -1    0    0    0    0  0.00000000000E+00  0.00000000000E+00  0.45593999997E+02  0.45594000000E+02  0.51100000000E-03 0.  1.
         11   -1    0    0    0    0 -0.00000000000E+00 -0.00000000000E+00 -0.45593999997E+02  0.45594000000E+02  0.51100000000E-03 0. -1.
    9900012    2    1    2    0    0 -0.42360369344E+00  0.79712961782E+00 -0.76046562832E+00  0.90007676448E+02  0.89999936977E+02 0.  0.
        -12    1    1    2    0    0  0.42360369344E+00 -0.79712961782E+00  0.76046562832E+00  0.11803235525E+01  0.00000000000E+00 0.  1.
         11    1    3    3    0    0 -0.56070868990E+01  0.81731028181E+01 -0.77777844099E+00  0.99420306141E+01  0.51100000000E-03 0. -1.
        -11    1    3    3    0    0 -0.34661507643E+02 -0.17625970981E+02  0.12365560312E+01  0.38905321438E+02  0.51100000000E-03 0.  1.
         12    1    3    3    0    0  0.39844990849E+02  0.10249997781E+02 -0.12192432186E+01  0.41160324395E+02  0.00000000000E+00 0. -1.
</event>
<event>
 7    1  0.6476339E-015  0.9000747E+02  0.7816164E-02  0.1186340E+00
        -11   -1    0    0    0    0  0.00000000000E+00  0.00000000000E+00  0.45593999997E+02  0.45594000000E+02  0.51100000000E-03 0.  1.
         11   -1    0    0    0    0 -0.00000000000E+00 -0.00000000000E+00 -0.45593999997E+02  0.45594000000E+02  0.51100000000E-03 0. -1.
    9900012    2    1    2    0    0 -0.79104649856E+00  0.62979507841E+00  0.60931041012E+00  0.90007468095E+02  0.89999725873E+02 0.  0.
        -12    1    1    2    0    0  0.79104649856E+00 -0.62979507841E+00 -0.60931041012E+00  0.11805319054E+01  0.00000000000E+00 0.  1.
         11    1    3    3    0    0  0.11672567069E+01 -0.14743496438E+02  0.40431904548E+02  0.43051969538E+02  0.51100000000E-03 0. -1.
        -11    1    3    3    0    0 -0.36773231269E+00 -0.46992950595E+01 -0.84904286266E+01  0.97111265894E+01  0.51100000000E-03 0.  1.
        -12    1    3    3    0    0 -0.15905708928E+01  0.20072586576E+02 -0.31332165511E+02  0.37244371967E+02  0.00000000000E+00 0.  1.
</event>
<event>
 7    1  0.3925070E-015  0.9000835E+02  0.7816164E-02  0.1186338E+00
        -11   -1    0    0    0    0  0.00000000000E+00  0.00000000000E+00  0.45593999997E+02  0.45594000000E+02  0.51100000000E-03 0.  1.
         11   -1    0    0    0    0 -0.00000000000E+00 -0.00000000000E+00 -0.45593999997E+02  0.45594000000E+02  0.51100000000E-03 0. -1.
    9900012    2    1    2    0    0 -0.34245854854E-01  0.96782750099E+00 -0.67357694854E+00  0.90008352275E+02  0.90000621723E+02 0.  0.
        -12    1    1    2    0    0  0.34245854854E-01 -0.96782750099E+00  0.67357694854E+00  0.11796477253E+01  0.00000000000E+00 0.  1.
         11    1    3    3    0    0 -0.97411911100E+01  0.23874225631E+02  0.95642082702E+01  0.27501700563E+02  0.51100000000E-03 0. -1.
        -11    1    3    3    0    0 -0.72591056965E+00  0.77599091956E+01  0.17948698330E+02  0.19567802863E+02  0.51100000000E-03 0.  1.
         12    1    3    3    0    0  0.10432855825E+02 -0.30666307326E+02 -0.28186483549E+02  0.42938848849E+02  0.00000000000E+00 0. -1.
</event>
<event>
 7    1  0.3925070E-015  0.9000778E+02  0.7816164E-02  0.1186339E+00
        -11   -1    0    0    0    0  0.00000000000E+00  0.00000000000E+00  0.45593999997E+02  0.45594000000E+02  0.51100000000E-03 0. -1.
         11   -1    0    0    0    0 -0.00000000000E+00 -0.00000000000E+00 -0.45593999997E+02  0.45594000000E+02  0.51100000000E-03 0.  1.
    9900012    2    1    2    0    0 -0.16463724317E+00  0.78454625954E+00  0.86619714537E+00  0.90007781482E+02  0.90000043398E+02 0.  0.
        -12    1    1    2    0    0  0.16463724317E+00 -0.78454625954E+00 -0.86619714537E+00  0.11802185178E+01  0.00000000000E+00 0.  1.
         11    1    3    3    0    0  0.36536317905E+00  0.20743665040E+01 -0.94395894674E+01  0.96717287090E+01  0.51100000000E-03 0. -1.
        -11    1    3    3    0    0 -0.49289601094E+01 -0.37368051701E+02 -0.96020847121E+01  0.38895577727E+02  0.51100000000E-03 0.  1.
         12    1    3    3    0    0  0.43989596871E+01  0.36078231456E+02  0.19907871325E+02  0.41440475046E+02  0.00000000000E+00 0. -1.
</event>
<event>
 7    1  0.3925070E-015  0.9000770E+02  0.7816164E-02  0.1186339E+00
        -11   -1    0    0    0    0  0.00000000000E+00  0.00000000000E+00  0.45593999997E+02  0.45594000000E+02  0.51100000000E-03 0. -1.
         11   -1    0    0    0    0 -0.00000000000E+00 -0.00000000000E+00 -0.45593999997E+02  0.45594000000E+02  0.51100000000E-03 0.  1.
    9900012    2    1    2    0    0  0.21596555536E+00 -0.11107641400E+01  0.33567543390E+00  0.90007696610E+02  0.89999957405E+02 0.  0.
        -12    1    1    2    0    0 -0.21596555536E+00  0.11107641400E+01 -0.33567543390E+00  0.11803033901E+01  0.00000000000E+00 0.  1.
         11    1    3    3    0    0  0.13027778324E+01  0.89032376400E+01  0.36758065049E+02  0.37843364239E+02  0.51100000000E-03 0. -1.
        -11    1    3    3    0    0 -0.72450237183E+01  0.53378872044E+01  0.29404488872E+01  0.94672936157E+01  0.51100000000E-03 0.  1.
        -12    1    3    3    0    0  0.61582114412E+01 -0.15351888984E+02 -0.39362838502E+02  0.42697038755E+02  0.00000000000E+00 0.  1.
</event>
<event>
 7    1  0.3925070E-015  0.9000777E+02  0.7816164E-02  0.1186339E+00
        -11   -1    0    0    0    0  0.00000000000E+00  0.00000000000E+00  0.45593999997E+02  0.45594000000E+02  0.51100000000E-03 0.  1.
         11   -1    0    0    0    0 -0.00000000000E+00 -0.00000000000E+00 -0.45593999997E+02  0.45594000000E+02  0.51100000000E-03 0. -1.
    9900012    2    1    2    0    0 -0.60847439236E+00 -0.67449600705E+00 -0.75348893951E+00  0.90007774796E+02  0.90000036624E+02 0.  0.
        -12    1    1    2    0    0  0.60847439236E+00  0.67449600705E+00  0.75348893951E+00  0.11802252038E+01  0.00000000000E+00 0.  1.
         11    1    3    3    0    0  0.13496496060E+02  0.36856080861E+02 -0.16149158221E+00  0.39249868562E+02  0.51100000000E-03 0. -1.
        -11    1    3    3    0    0  0.80823038728E+01 -0.21103258631E+02 -0.39739403747E+01  0.22944789454E+02  0.51100000000E-03 0.  1.
        -12    1    3    3    0    0 -0.22187274325E+02 -0.16427318238E+02  0.33819430174E+01  0.27813116780E+02  0.00000000000E+00 0.  1.
</event>
<event>
 7    1  0.3925070E-015  0.9000776E+02  0.7816164E-02  0.1186339E+00
        -11   -1    0    0    0    0  0.00000000000E+00  0.00000000000E+00  0.45593999997E+02  0.45594000000E+02  0.51100000000E-03 0.  1.
         11   -1    0    0    0    0 -0.00000000000E+00 -0.00000000000E+00 -0.45593999997E+02  0.45594000000E+02  0.51100000000E-03 0. -1.
    9900012    2    1    2    0    0  0.29088555574E+00 -0.11339421374E+01 -0.15011279474E+00  0.90007757216E+02  0.90000018811E+02 0.  0.
        -12    1    1    2    0    0 -0.29088555574E+00  0.11339421374E+01  0.15011279474E+00  0.11802427838E+01  0.00000000000E+00 0.  1.
         11    1    3    3    0    0 -0.27420760360E+02  0.20304068695E+02 -0.68884422148E+01  0.34808101653E+02  0.51100000000E-03 0. -1.
        -11    1    3    3    0    0 -0.45781690320E+01  0.90961576795E+01  0.29285653966E+01  0.10596046987E+02  0.51100000000E-03 0.  1.
        -12    1    3    3    0    0  0.32289814948E+02 -0.30534168512E+02  0.38097640234E+01  0.44603608576E+02  0.00000000000E+00 0.  1.
</event>
<event>
 7    1  0.3925070E-015  0.9000819E+02  0.7816164E-02  0.1186338E+00
        -11   -1    0    0    0    0  0.00000000000E+00  0.00000000000E+00  0.45593999997E+02  0.45594000000E+02  0.51100000000E-03 0. -1.
         11   -1    0    0    0    0 -0.00000000000E+00 -0.00000000000E+00 -0.45593999997E+02  0.45594000000E+02  0.51100000000E-03 0.  1.
    9900012    2    1    2    0    0 -0.10246795196E+01 -0.30426228839E+00 -0.49941176605E+00  0.90008188248E+02  0.90000455532E+02 0.  0.
        -12    1    1    2    0    0  0.10246795196E+01  0.30426228839E+00  0.49941176605E+00  0.11798117520E+01  0.00000000000E+00 0.  1.
         11    1    3    3    0    0  0.49917520092E+01 -0.55115279633E+01 -0.66944453155E+01  0.10005504833E+02  0.51100000000E-03 0. -1.
        -11    1    3    3    0    0  0.11764024951E+02 -0.95090082085E+01 -0.31988933204E+02  0.35385100932E+02  0.51100000000E-03 0.  1.
         12    1    3    3    0    0 -0.17780456480E+02  0.14716273883E+02  0.38183966754E+02  0.44617582484E+02  0.00000000000E+00 0. -1.
</event>
<event>
 7    1  0.3925070E-015  0.9000775E+02  0.7816164E-02  0.1186339E+00
        -11   -1    0    0    0    0  0.00000000000E+00  0.00000000000E+00  0.45593999997E+02  0.45594000000E+02  0.51100000000E-03 0.  1.
         11   -1    0    0    0    0 -0.00000000000E+00 -0.00000000000E+00 -0.45593999997E+02  0.45594000000E+02  0.51100000000E-03 0. -1.
    9900012    2    1    2    0    0 -0.90124063837E+00  0.64940898333E+00 -0.39877304922E+00  0.90007751441E+02  0.90000012960E+02 0.  0.
        -12    1    1    2    0    0  0.90124063837E+00 -0.64940898333E+00  0.39877304922E+00  0.11802485588E+01  0.00000000000E+00 0.  1.
         11    1    3    3    0    0  0.56587367188E+01 -0.62330847448E+01  0.39266345495E+01  0.92893006107E+01  0.51100000000E-03 0. -1.
        -11    1    3    3    0    0 -0.14166667426E+02 -0.30581923946E+02 -0.20234541561E+02  0.39311387799E+02  0.51100000000E-03 0.  1.
         12    1    3    3    0    0  0.76066900687E+01  0.37464417674E+02  0.15909133962E+02  0.41407063032E+02  0.00000000000E+00 0. -1.
</event>
<event>
 7    1  0.3925070E-015  0.9000773E+02  0.7816164E-02  0.1186339E+00
        -11   -1    0    0    0    0  0.00000000000E+00  0.00000000000E+00  0.45593999997E+02  0.45594000000E+02  0.51100000000E-03 0. -1.
         11   -1    0    0    0    0 -0.00000000000E+00 -0.00000000000E+00 -0.45593999997E+02  0.45594000000E+02  0.51100000000E-03 0.  1.
    9900012    2    1    2    0    0 -0.19430454840E+00  0.73115548521E+00  0.90592670775E+00  0.90007726387E+02  0.89999987576E+02 0.  0.
        -12    1    1    2    0    0  0.19430454840E+00 -0.73115548521E+00 -0.90592670775E+00  0.11802736127E+01  0.00000000000E+00 0.  1.
         11    1    3    3    0    0  0.12162902112E+02 -0.35576731997E+02 -0.10069544280E+02  0.38923460402E+02  0.51100000000E-03 0. -1.
        -11    1    3    3    0    0 -0.10249924790E+02 -0.27412191781E+01  0.60876273754E+00  0.10627597712E+02  0.51100000000E-03 0.  1.
        -12    1    3    3    0    0 -0.21072818704E+01  0.39049106660E+02  0.10366708250E+02  0.40456668274E+02  0.00000000000E+00 0.  1.
</event>
<event>
 7    1  0.3925070E-015  0.9000784E+02  0.7816164E-02  0.1186339E+00
        -11   -1    0    0    0    0  0.00000000000E+00  0.00000000000E+00  0.45593999997E+02  0.45594000000E+02  0.51100000000E-03 0.  1.
         11   -1    0    0    0    0 -0.00000000000E+00 -0.00000000000E+00 -0.45593999997E+02  0.45594000000E+02  0.51100000000E-03 0. -1.
    9900012    2    1    2    0    0 -0.33282365501E+00 -0.28196951765E+00 -0.10965853301E+01  0.90007839934E+02  0.90000102622E+02 0.  0.
        -12    1    1    2    0    0  0.33282365501E+00  0.28196951765E+00  0.10965853301E+01  0.11801600656E+01  0.00000000000E+00 0.  1.
         11    1    3    3    0    0 -0.40721824578E+02 -0.66800804826E+01  0.16108794541E+02  0.44298800594E+02  0.51100000000E-03 0. -1.
        -11    1    3    3    0    0  0.68361714641E+01  0.34821889226E+00 -0.77255259575E+01  0.10321736688E+02  0.51100000000E-03 0.  1.
        -12    1    3    3    0    0  0.33552829459E+02  0.60498920727E+01 -0.94798539139E+01  0.35387302652E+02  0.00000000000E+00 0.  1.
</event>
<event>
 7    1  0.3925070E-015  0.9000780E+02  0.7816164E-02  0.1186339E+00
        -11   -1    0    0    0    0  0.00000000000E+00  0.00000000000E+00  0.45593999997E+02  0.45594000000E+02  0.51100000000E-03 0. -1.
         11   -1    0    0    0    0 -0.00000000000E+00 -0.00000000000E+00 -0.45593999997E+02  0.45594000000E+02  0.51100000000E-03 0.  1.
    9900012    2    1    2    0    0  0.10867680034E+01 -0.41960725770E-01  0.45831782541E+00  0.90007796363E+02  0.90000058475E+02 0.  0.
        -12    1    1    2    0    0 -0.10867680034E+01  0.41960725770E-01 -0.45831782541E+00  0.11802036371E+01  0.00000000000E+00 0.  1.
         11    1    3    3    0    0  0.15983517912E+01 -0.12557504335E+01  0.85216652084E+01  0.87607314640E+01  0.51100000000E-03 0. -1.
        -11    1    3    3    0    0 -0.33616320947E+02 -0.22381228084E+01  0.18704368828E+02  0.38534655068E+02  0.51100000000E-03 0.  1.
         12    1    3    3    0    0  0.33104737159E+02  0.34519125161E+01 -0.26767716211E+02  0.42712409831E+02  0.00000000000E+00 0. -1.
</event>
<event>
 7    1  0.3925070E-015  0.9000773E+02  0.7816164E-02  0.1186339E+00
        -11   -1    0    0    0    0  0.00000000000E+00  0.00000000000E+00  0.45593999997E+02  0.45594000000E+02  0.51100000000E-03 0. -1.
         11   -1    0    0    0    0 -0.00000000000E+00 -0.00000000000E+00 -0.45593999997E+02  0.45594000000E+02  0.51100000000E-03 0.  1.
    9900012    2    1    2    0    0  0.98055142168E+00  0.27336153566E+00  0.59735029696E+00  0.90007730964E+02  0.89999992213E+02 0.  0.
        -12    1    1    2    0    0 -0.98055142168E+00 -0.27336153566E+00 -0.59735029696E+00  0.11802690359E+01  0.00000000000E+00 0.  1.
         11    1    3    3    0    0 -0.17488367708E+02  0.76259921182E+01 -0.31698952363E+02  0.36997599138E+02  0.51100000000E-03 0. -1.
        -11    1    3    3    0    0 -0.65652554289E+01 -0.61039035642E+01 -0.32325982026E+01  0.95294233282E+01  0.51100000000E-03 0.  1.
        -12    1    3    3    0    0  0.25034174558E+02 -0.12487270183E+01  0.35528900862E+02  0.43480708498E+02  0.00000000000E+00 0.  1.
</event>
<event>
 7    1  0.3925070E-015  0.9000778E+02  0.7816164E-02  0.1186339E+00
        -11   -1    0    0    0    0  0.00000000000E+00  0.00000000000E+00  0.45593999997E+02  0.45594000000E+02  0.51100000000E-03 0. -1.
         11   -1    0    0    0    0 -0.00000000000E+00 -0.00000000000E+00 -0.45593999997E+02  0.45594000000E+02  0.51100000000E-03 0.  1.
    9900012    2    1    2    0    0  0.19528600551E-01  0.62435968481E+00  0.10013593275E+01  0.90007776765E+02  0.90000038618E+02 0.  0.
        -12    1    1    2    0    0 -0.19528600551E-01 -0.62435968481E+00 -0.10013593275E+01  0.11802232352E+01  0.00000000000E+00 0.  1.
         11    1    3    3    0    0  0.27429713060E+02  0.24541913699E+02 -0.13130279294E+02  0.39078113071E+02  0.51100000000E-03 0. -1.
        -11    1    3    3    0    0 -0.23103852695E+01  0.54835796102E+01 -0.50225623188E+01  0.77867617109E+01  0.51100000000E-03 0.  1.
        -12    1    3    3    0    0 -0.25099799190E+02 -0.29401133625E+02  0.19154200940E+02  0.43142901983E+02  0.00000000000E+00 0.  1.
</event>
<event>
 7    1  0.3925070E-015  0.9000764E+02  0.7816164E-02  0.1186339E+00
        -11   -1    0    0    0    0  0.00000000000E+00  0.00000000000E+00  0.45593999997E+02  0.45594000000E+02  0.51100000000E-03 0. -1.
         11   -1    0    0    0    0 -0.00000000000E+00 -0.00000000000E+00 -0.45593999997E+02  0.45594000000E+02  0.51100000000E-03 0.  1.
    9900012    2    1    2    0    0 -0.19306147612E+00 -0.10779097008E+01  0.44056491557E+00  0.90007635861E+02  0.89999895854E+02 0.  0.
        -12    1    1    2    0    0  0.19306147612E+00  0.10779097008E+01 -0.44056491557E+00  0.11803641394E+01  0.00000000000E+00 0.  1.
         11    1    3    3    0    0 -0.42400099977E+01 -0.74304700684E+01 -0.36228746771E+01  0.92905754076E+01  0.51100000000E-03 0. -1.
        -11    1    3    3    0    0  0.58796451061E+01 -0.29328259057E+02 -0.21455884840E+02  0.36811302618E+02  0.51100000000E-03 0.  1.
         12    1    3    3    0    0 -0.18326965846E+01  0.35680819425E+02  0.25519324432E+02  0.43905757835E+02  0.00000000000E+00 0. -1.
</event>
<event>
 7    1  0.3925070E-015  0.9000770E+02  0.7816164E-02  0.1186339E+00
        -11   -1    0    0    0    0  0.00000000000E+00  0.00000000000E+00  0.45593999997E+02  0.45594000000E+02  0.51100000000E-03 0.  1.
         11   -1    0    0    0    0 -0.00000000000E+00 -0.00000000000E+00 -0.45593999997E+02  0.45594000000E+02  0.51100000000E-03 0. -1.
    9900012    2    1    2    0    0  0.11017933980E+01 -0.36737128678E+00 -0.21023290952E+00  0.90007699941E+02  0.89999960780E+02 0.  0.
        -12    1    1    2    0    0 -0.11017933980E+01  0.36737128678E+00  0.21023290952E+00  0.11803000595E+01  0.00000000000E+00 0.  1.
         11    1    3    3    0    0 -0.22732752251E+02 -0.11136300041E+01 -0.13847547698E+02  0.26641561031E+02  0.51100000000E-03 0. -1.
        -11    1    3    3    0    0 -0.12477774804E+02  0.70789295125E+01  0.21335849851E+02  0.25710398601E+02  0.51100000000E-03 0.  1.
         12    1    3    3    0    0  0.36312320453E+02 -0.63326707952E+01 -0.76985350630E+01  0.37655740308E+02  0.00000000000E+00 0. -1.
</event>
<event>
 7    1  0.3925070E-015  0.9000812E+02  0.7816164E-02  0.1186338E+00
        -11   -1    0    0    0    0  0.00000000000E+00  0.00000000000E+00  0.45593999997E+02  0.45594000000E+02  0.51100000000E-03 0.  1.
         11   -1    0    0    0    0 -0.00000000000E+00 -0.00000000000E+00 -0.45593999997E+02  0.45594000000E+02  0.51100000000E-03 0. -1.
    9900012    2    1    2    0    0  0.97122681418E+00  0.66832657672E+00 -0.46685564893E-01  0.90008118023E+02  0.90000384380E+02 0.  0.
        -12    1    1    2    0    0 -0.97122681418E+00 -0.66832657672E+00  0.46685564893E-01  0.11798819770E+01  0.00000000000E+00 0.  1.
         11    1    3    3    0    0  0.26313489035E+02  0.26183208594E+02  0.17195420418E+02  0.40910177231E+02  0.51100000000E-03 0. -1.
        -11    1    3    3    0    0 -0.10662390144E+02  0.11941077419E+01  0.45264426085E+01  0.11644790245E+02  0.51100000000E-03 0.  1.
        -12    1    3    3    0    0 -0.14679872077E+02 -0.26708989759E+02 -0.21768548591E+02  0.37453150547E+02  0.00000000000E+00 0.  1.
</event>
<event>
 7    1  0.3925070E-015  0.9000764E+02  0.7816164E-02  0.1186339E+00
        -11   -1    0    0    0    0  0.00000000000E+00  0.00000000000E+00  0.45593999997E+02  0.45594000000E+02  0.51100000000E-03 0.  1.
         11   -1    0    0    0    0 -0.00000000000E+00 -0.00000000000E+00 -0.45593999997E+02  0.45594000000E+02  0.51100000000E-03 0. -1.
    9900012    2    1    2    0    0 -0.26859188099E+00  0.10891430119E+01 -0.36724852779E+00  0.90007641758E+02  0.89999901829E+02 0.  0.
        -12    1    1    2    0    0  0.26859188099E+00 -0.10891430119E+01  0.36724852779E+00  0.11803582423E+01  0.00000000000E+00 0.  1.
         11    1    3    3    0    0  0.48461265602E+00  0.27730850378E+01  0.64361356757E+01  0.70248624720E+01  0.51100000000E-03 0. -1.
        -11    1    3    3    0    0  0.18356615369E+02 -0.30630038287E+02  0.18339233785E+02  0.40143393845E+02  0.51100000000E-03 0.  1.
         12    1    3    3    0    0 -0.19109819906E+02  0.28946096261E+02 -0.25142617989E+02  0.42839385441E+02  0.00000000000E+00 0. -1.
</event>
<event>
 7    1  0.3925070E-015  0.9000815E+02  0.7816164E-02  0.1186338E+00
        -11   -1    0    0    0    0  0.00000000000E+00  0.00000000000E+00  0.45593999997E+02  0.45594000000E+02  0.51100000000E-03 0.  1.
         11   -1    0    0    0    0 -0.00000000000E+00 -0.00000000000E+00 -0.45593999997E+02  0.45594000000E+02  0.51100000000E-03 0. -1.
    9900012    2    1    2    0    0 -0.50457574491E+00 -0.93848430909E+00 -0.50665699855E+00  0.90008147978E+02  0.90000414730E+02 0.  0.
        -12    1    1    2    0    0  0.50457574491E+00  0.93848430909E+00  0.50665699855E+00  0.11798520225E+01  0.00000000000E+00 0.  1.
         11    1    3    3    0    0 -0.57387537352E+00  0.85900531373E+01  0.49008860978E+01  0.99064136119E+01  0.51100000000E-03 0. -1.
        -11    1    3    3    0    0 -0.94083747302E+01  0.12264868272E+02  0.32140717806E+02  0.35664691925E+02  0.51100000000E-03 0.  1.
         12    1    3    3    0    0  0.94776743589E+01 -0.21793405719E+02 -0.37548260902E+02  0.44437042440E+02  0.00000000000E+00 0. -1.
</event>
<event>
 7    1  0.3925070E-015  0.9000767E+02  0.7816164E-02  0.1186339E+00
        -11   -1    0    0    0    0  0.00000000000E+00  0.00000000000E+00  0.45593999997E+02  0.45594000000E+02  0.51100000000E-03 0.  1.
         11   -1    0    0    0    0 -0.00000000000E+00 -0.00000000000E+00 -0.45593999997E+02  0.45594000000E+02  0.51100000000E-03 0. -1.
    9900012    2    1    2    0    0  0.86068366026E+00  0.29908367024E+00 -0.75030793730E+00  0.90007665553E+02  0.89999925939E+02 0.  0.
        -12    1    1    2    0    0 -0.86068366026E+00 -0.29908367024E+00  0.75030793730E+00  0.11803344465E+01  0.00000000000E+00 0.  1.
         11    1    3    3    0    0 -0.41793222242E+01 -0.34764695584E+02 -0.61972935998E+01  0.35559207550E+02  0.51100000000E-03 0. -1.
        -11    1    3    3    0    0  0.13997630901E+02 -0.23302504679E+00 -0.73975530936E+01  0.15833880243E+02  0.51100000000E-03 0.  1.
        -12    1    3    3    0    0 -0.89576250162E+01  0.35296804301E+02  0.12844538756E+02  0.38614577761E+02  0.00000000000E+00 0.  1.
</event>
<event>
 7    1  0.3925070E-015  0.9000756E+02  0.7816164E-02  0.1186339E+00
        -11   -1    0    0    0    0  0.00000000000E+00  0.00000000000E+00  0.45593999997E+02  0.45594000000E+02  0.51100000000E-03 0. -1.
         11   -1    0    0    0    0 -0.00000000000E+00 -0.00000000000E+00 -0.45593999997E+02  0.45594000000E+02  0.51100000000E-03 0.  1.
    9900012    2    1    2    0    0 -0.10055856082E+01 -0.40378135268E+00  0.46817418204E+00  0.90007564123E+02  0.89999823169E+02 0.  0.
        -12    1    1    2    0    0  0.10055856082E+01  0.40378135268E+00 -0.46817418204E+00  0.11804358775E+01  0.00000000000E+00 0.  1.
         11    1    3    3    0    0 -0.27149231594E+02 -0.26612729375E+02 -0.12652575782E+02  0.40067515709E+02  0.51100000000E-03 0. -1.
        -11    1    3    3    0    0 -0.50460424238E+01  0.95325790474E+01 -0.28159767966E+01  0.11147301603E+02  0.51100000000E-03 0.  1.
        -12    1    3    3    0    0  0.31189688409E+02  0.16676368975E+02  0.15936726761E+02  0.38792746811E+02  0.00000000000E+00 0.  1.
</event>
<event>
 7    1  0.3925070E-015  0.9000771E+02  0.7816164E-02  0.1186339E+00
        -11   -1    0    0    0    0  0.00000000000E+00  0.00000000000E+00  0.45593999997E+02  0.45594000000E+02  0.51100000000E-03 0. -1.
         11   -1    0    0    0    0 -0.00000000000E+00 -0.00000000000E+00 -0.45593999997E+02  0.45594000000E+02  0.51100000000E-03 0.  1.
    9900012    2    1    2    0    0 -0.10633553063E+01  0.48091001259E+00  0.17628847174E+00  0.90007713351E+02  0.89999974368E+02 0.  0.
        -12    1    1    2    0    0  0.10633553063E+01 -0.48091001259E+00 -0.17628847174E+00  0.11802866487E+01  0.00000000000E+00 0.  1.
         11    1    3    3    0    0 -0.84466371428E+00 -0.48391536551E+01 -0.47892633258E+01  0.68606055383E+01  0.51100000000E-03 0. -1.
        -11    1    3    3    0    0  0.20789923158E+02 -0.16501242131E+02 -0.27860953960E+02  0.38480445068E+02  0.51100000000E-03 0.  1.
         12    1    3    3    0    0 -0.21008614750E+02  0.21821305799E+02  0.32826505758E+02  0.44666662745E+02  0.00000000000E+00 0. -1.
</event>
<event>
 7    1  0.3925070E-015  0.9000752E+02  0.7816164E-02  0.1186339E+00
        -11   -1    0    0    0    0  0.00000000000E+00  0.00000000000E+00  0.45593999997E+02  0.45594000000E+02  0.51100000000E-03 0. -1.
         11   -1    0    0    0    0 -0.00000000000E+00 -0.00000000000E+00 -0.45593999997E+02  0.45594000000E+02  0.51100000000E-03 0.  1.
    9900012    2    1    2    0    0  0.75684527354E+00 -0.32440793608E+00  0.84585501986E+00  0.90007522981E+02  0.89999781484E+02 0.  0.
        -12    1    1    2    0    0 -0.75684527354E+00  0.32440793608E+00 -0.84585501986E+00  0.11804770187E+01  0.00000000000E+00 0.  1.
         11    1    3    3    0    0 -0.36641618508E+01 -0.58565956924E+00 -0.64053398488E+01  0.74025305159E+01  0.51100000000E-03 0. -1.
        -11    1    3    3    0    0  0.24739208273E+02 -0.84694962600E+01 -0.29681895877E+02  0.39557246314E+02  0.51100000000E-03 0.  1.
         12    1    3    3    0    0 -0.20318201148E+02  0.87307478932E+01  0.36933090746E+02  0.43047746151E+02  0.00000000000E+00 0. -1.
</event>
<event>
 7    1  0.3925070E-015  0.9000789E+02  0.7816164E-02  0.1186339E+00
        -11   -1    0    0    0    0  0.00000000000E+00  0.00000000000E+00  0.45593999997E+02  0.45594000000E+02  0.51100000000E-03 0. -1.
         11   -1    0    0    0    0 -0.00000000000E+00 -0.00000000000E+00 -0.45593999997E+02  0.45594000000E+02  0.51100000000E-03 0.  1.
    9900012    2    1    2    0    0 -0.11215938767E+01 -0.21012464637E+00 -0.30087924474E+00  0.90007892585E+02  0.90000155967E+02 0.  0.
        -12    1    1    2    0    0  0.11215938767E+01  0.21012464637E+00  0.30087924474E+00  0.11801074151E+01  0.00000000000E+00 0.  1.
         11    1    3    3    0    0 -0.62376047899E+01  0.33277083956E+02  0.11333197650E+02  0.35703128706E+02  0.51100000000E-03 0. -1.
        -11    1    3    3    0    0  0.18503480126E+02 -0.19849167243E+01 -0.18297415628E+01  0.18699375006E+02  0.51100000000E-03 0.  1.
         12    1    3    3    0    0 -0.13387469213E+02 -0.31502291878E+02 -0.98043353316E+01  0.35605388873E+02  0.00000000000E+00 0. -1.
</event>
<event>
 7    1  0.3925070E-015  0.9000771E+02  0.7816164E-02  0.1186339E+00
        -11   -1    0    0    0    0  0.00000000000E+00  0.00000000000E+00  0.45593999997E+02  0.45594000000E+02  0.51100000000E-03 0. -1.
         11   -1    0    0    0    0 -0.00000000000E+00 -0.00000000000E+00 -0.45593999997E+02  0.45594000000E+02  0.51100000000E-03 0.  1.
    9900012    2    1    2    0    0 -0.68605622883E+00 -0.95615355361E+00  0.90478301920E-01  0.90007708049E+02  0.89999968995E+02 0.  0.
        -12    1    1    2    0    0  0.68605622883E+00  0.95615355361E+00 -0.90478301920E-01  0.11802919513E+01  0.00000000000E+00 0.  1.
         11    1    3    3    0    0 -0.26379921157E+02 -0.27733026743E+02  0.15334618268E+02  0.41233136314E+02  0.51100000000E-03 0. -1.
        -11    1    3    3    0    0 -0.43771688752E+01  0.80310771138E+01 -0.89262719401E+01  0.12780302734E+02  0.51100000000E-03 0.  1.
        -12    1    3    3    0    0  0.30071033803E+02  0.18745796076E+02 -0.63178680255E+01  0.35994269001E+02  0.00000000000E+00 0.  1.
</event>
<event>
 7    1  0.3925070E-015  0.9000773E+02  0.7816164E-02  0.1186339E+00
        -11   -1    0    0    0    0  0.00000000000E+00  0.00000000000E+00  0.45593999997E+02  0.45594000000E+02  0.51100000000E-03 0.  1.
         11   -1    0    0    0    0 -0.00000000000E+00 -0.00000000000E+00 -0.45593999997E+02  0.45594000000E+02  0.51100000000E-03 0. -1.
    9900012    2    1    2    0    0  0.61906488835E+00 -0.34676994943E+00 -0.94316013185E+00  0.90007728096E+02  0.89999989307E+02 0.  0.
        -12    1    1    2    0    0 -0.61906488835E+00  0.34676994943E+00  0.94316013185E+00  0.11802719043E+01  0.00000000000E+00 0.  1.
         11    1    3    3    0    0 -0.93060325771E+01  0.26917843050E+02 -0.25632384916E+02  0.38316989359E+02  0.51100000000E-03 0. -1.
        -11    1    3    3    0    0 -0.16116731433E+00 -0.27151457013E+01 -0.86555613637E+01  0.90728569847E+01  0.51100000000E-03 0.  1.
        -12    1    3    3    0    0  0.10086264780E+02 -0.24549467298E+02  0.33344786148E+02  0.42617881752E+02  0.00000000000E+00 0.  1.
</event>
<event>
 7    1  0.3925070E-015  0.9000777E+02  0.7816164E-02  0.1186339E+00
        -11   -1    0    0    0    0  0.00000000000E+00  0.00000000000E+00  0.45593999997E+02  0.45594000000E+02  0.51100000000E-03 0.  1.
         11   -1    0    0    0    0 -0.00000000000E+00 -0.00000000000E+00 -0.45593999997E+02  0.45594000000E+02  0.51100000000E-03 0. -1.
    9900012    2    1    2    0    0  0.10966309489E+01 -0.40374629126E-01 -0.43441572846E+00  0.90007768424E+02  0.90000030167E+02 0.  0.
        -12    1    1    2    0    0 -0.10966309489E+01  0.40374629126E-01  0.43441572846E+00  0.11802315764E+01  0.00000000000E+00 0.  1.
         11    1    3    3    0    0  0.46130808155E+01 -0.19997918729E+01 -0.81269148090E+01  0.95564861073E+01  0.51100000000E-03 0. -1.
        -11    1    3    3    0    0  0.30078313348E+02 -0.17072230157E+02 -0.12628697780E+02  0.36819152411E+02  0.51100000000E-03 0.  1.
         12    1    3    3    0    0 -0.33594763214E+02  0.19031647401E+02  0.20321196861E+02  0.43632129905E+02  0.00000000000E+00 0. -1.
</event>
<event>
 7    1  0.3925070E-015  0.9000771E+02  0.7816164E-02  0.1186339E+00
        -11   -1    0    0    0    0  0.00000000000E+00  0.00000000000E+00  0.45593999997E+02  0.45594000000E+02  0.51100000000E-03 0. -1.
         11   -1    0    0    0    0 -0.00000000000E+00 -0.00000000000E+00 -0.45593999997E+02  0.45594000000E+02  0.51100000000E-03 0.  1.
    9900012    2    1    2    0    0  0.23246919380E-01  0.30672641467E+00  0.11395047101E+01  0.90007706606E+02  0.89999967533E+02 0.  0.
        -12    1    1    2    0    0 -0.23246919380E-01 -0.30672641467E+00 -0.11395047101E+01  0.11802933945E+01  0.00000000000E+00 0.  1.
         11    1    3    3    0    0  0.26301193639E+01 -0.18335235148E+00 -0.13979418523E+01  0.29841896114E+01  0.51100000000E-03 0. -1.
        -11    1    3    3    0    0  0.31198356642E+02  0.23532112397E+02  0.18338258453E+02  0.43166995429E+02  0.51100000000E-03 0.  1.
         12    1    3    3    0    0 -0.33805229086E+02 -0.23042033631E+02 -0.15800811890E+02  0.43856521565E+02  0.00000000000E+00 0. -1.
</event>
<event>
 7    1  0.3925070E-015  0.9000771E+02  0.7816164E-02  0.1186339E+00
        -11   -1    0    0    0    0  0.00000000000E+00  0.00000000000E+00  0.45593999997E+02  0.45594000000E+02  0.51100000000E-03 0.  1.
         11   -1    0    0    0    0 -0.00000000000E+00 -0.00000000000E+00 -0.45593999997E+02  0.45594000000E+02  0.51100000000E-03 0. -1.
    9900012    2    1    2    0    0  0.14837477144E-01 -0.82138756335E+00 -0.84745261561E+00  0.90007714604E+02  0.89999975637E+02 0.  0.
        -12    1    1    2    0    0 -0.14837477144E-01  0.82138756335E+00  0.84745261561E+00  0.11802853958E+01  0.00000000000E+00 0.  1.
         11    1    3    3    0    0 -0.29773474948E+02  0.20699987050E+02 -0.19663109626E+02  0.41250298845E+02  0.51100000000E-03 0. -1.
        -11    1    3    3    0    0  0.69976413150E+01  0.39519584916E+01 -0.25707615361E+01  0.84376403710E+01  0.51100000000E-03 0.  1.
        -12    1    3    3    0    0  0.22790671110E+02 -0.25473333105E+02  0.21386418547E+02  0.40319775388E+02  0.00000000000E+00 0.  1.
</event>
<event>
 7    1  0.3925070E-015  0.9000737E+02  0.7816164E-02  0.1186340E+00
        -11   -1    0    0    0    0  0.00000000000E+00  0.00000000000E+00  0.45593999997E+02  0.45594000000E+02  0.51100000000E-03 0. -1.
         11   -1    0    0    0    0 -0.00000000000E+00 -0.00000000000E+00 -0.45593999997E+02  0.45594000000E+02  0.51100000000E-03 0.  1.
    9900012    2    1    2    0    0 -0.97234886388E+00  0.28206944616E+00  0.60734761690E+00  0.90007366012E+02  0.89999622443E+02 0.  0.
        -12    1    1    2    0    0  0.97234886388E+00 -0.28206944616E+00 -0.60734761690E+00  0.11806339879E+01  0.00000000000E+00 0.  1.
         11    1    3    3    0    0 -0.11082094076E+02 -0.30931586815E+02 -0.64414952519E+01  0.33482364512E+02  0.51100000000E-03 0. -1.
        -11    1    3    3    0    0 -0.95576102364E+01 -0.75819363435E+01 -0.11827220686E+01  0.12256936971E+02  0.51100000000E-03 0.  1.
        -12    1    3    3    0    0  0.19667355449E+02  0.38795592604E+02  0.82315649373E+01  0.44268064529E+02  0.00000000000E+00 0.  1.
</event>
<event>
 7    1  0.3925070E-015  0.9000781E+02  0.7816164E-02  0.1186339E+00
        -11   -1    0    0    0    0  0.00000000000E+00  0.00000000000E+00  0.45593999997E+02  0.45594000000E+02  0.51100000000E-03 0.  1.
         11   -1    0    0    0    0 -0.00000000000E+00 -0.00000000000E+00 -0.45593999997E+02  0.45594000000E+02  0.51100000000E-03 0. -1.
    9900012    2    1    2    0    0 -0.98668931136E+00 -0.37150575317E+00  0.53035014985E+00  0.90007812047E+02  0.90000074366E+02 0.  0.
        -12    1    1    2    0    0  0.98668931136E+00  0.37150575317E+00 -0.53035014985E+00  0.11801879525E+01  0.00000000000E+00 0.  1.
         11    1    3    3    0    0 -0.24709714111E+02  0.27581587686E+02 -0.22592487464E-01  0.37031263298E+02  0.51100000000E-03 0. -1.
        -11    1    3    3    0    0 -0.24755187665E+01  0.73680988843E+01  0.42248238575E+01  0.88468192714E+01  0.51100000000E-03 0.  1.
        -12    1    3    3    0    0  0.26198543567E+02 -0.35321192323E+02 -0.36718812202E+01  0.44129729478E+02  0.00000000000E+00 0.  1.
</event>
<event>
 7    1  0.3925070E-015  0.9000773E+02  0.7816164E-02  0.1186339E+00
        -11   -1    0    0    0    0  0.00000000000E+00  0.00000000000E+00  0.45593999997E+02  0.45594000000E+02  0.51100000000E-03 0. -1.
         11   -1    0    0    0    0 -0.00000000000E+00 -0.00000000000E+00 -0.45593999997E+02  0.45594000000E+02  0.51100000000E-03 0.  1.
    9900012    2    1    2    0    0  0.11631009486E+01 -0.19806857802E+00 -0.31697855919E-01  0.90007728958E+02  0.89999990180E+02 0.  0.
        -12    1    1    2    0    0 -0.11631009486E+01  0.19806857802E+00  0.31697855918E-01  0.11802710419E+01  0.00000000000E+00 0.  1.
         11    1    3    3    0    0 -0.56119073523E+01 -0.84743283315E+01  0.10610859464E+01  0.10219278274E+02  0.51100000000E-03 0. -1.
        -11    1    3    3    0    0  0.24475709341E+00 -0.12322916978E+01 -0.39585048938E+02  0.39604981361E+02  0.51100000000E-03 0.  1.
         12    1    3    3    0    0  0.65302512075E+01  0.95085514514E+01  0.38492265136E+02  0.40183469323E+02  0.00000000000E+00 0. -1.
</event>
<event>
 7    1  0.3925070E-015  0.9000780E+02  0.7816164E-02  0.1186339E+00
        -11   -1    0    0    0    0  0.00000000000E+00  0.00000000000E+00  0.45593999997E+02  0.45594000000E+02  0.51100000000E-03 0.  1.
         11   -1    0    0    0    0 -0.00000000000E+00 -0.00000000000E+00 -0.45593999997E+02  0.45594000000E+02  0.51100000000E-03 0. -1.
    9900012    2    1    2    0    0 -0.91117057552E+00  0.11708757655E+00 -0.74089197883E+00  0.90007804151E+02  0.90000066366E+02 0.  0.
        -12    1    1    2    0    0  0.91117057552E+00 -0.11708757655E+00  0.74089197883E+00  0.11801958492E+01  0.00000000000E+00 0.  1.
         11    1    3    3    0    0 -0.91910601381E+01 -0.29929761346E+01  0.45023098415E+00  0.96765800159E+01  0.51100000000E-03 0. -1.
        -11    1    3    3    0    0 -0.31881175639E+02  0.84818692932E+01  0.15573438934E+02  0.36481275572E+02  0.51100000000E-03 0.  1.
         12    1    3    3    0    0  0.40161065202E+02 -0.53718055820E+01 -0.16764561897E+02  0.43849948563E+02  0.00000000000E+00 0. -1.
</event>
<event>
 7    1  0.3925070E-015  0.9000775E+02  0.7816164E-02  0.1186339E+00
        -11   -1    0    0    0    0  0.00000000000E+00  0.00000000000E+00  0.45593999997E+02  0.45594000000E+02  0.51100000000E-03 0.  1.
         11   -1    0    0    0    0 -0.00000000000E+00 -0.00000000000E+00 -0.45593999997E+02  0.45594000000E+02  0.51100000000E-03 0. -1.
    9900012    2    1    2    0    0 -0.24461833804E+00  0.78874187161E+00 -0.84323563485E+00  0.90007746550E+02  0.90000008004E+02 0.  0.
        -12    1    1    2    0    0  0.24461833804E+00 -0.78874187161E+00  0.84323563485E+00  0.11802534504E+01  0.00000000000E+00 0.  1.
         11    1    3    3    0    0  0.23381565441E+01  0.14025360976E+02  0.38685576530E+01  0.14735788581E+02  0.51100000000E-03 0. -1.
        -11    1    3    3    0    0  0.29710291977E+02  0.49102715941E+01  0.14635151275E+02  0.33481336137E+02  0.51100000000E-03 0.  1.
         12    1    3    3    0    0 -0.32293066859E+02 -0.18146890698E+02 -0.19346944562E+02  0.41790621831E+02  0.00000000000E+00 0. -1.
</event>
<event>
 7    1  0.3925070E-015  0.9000777E+02  0.7816164E-02  0.1186339E+00
        -11   -1    0    0    0    0  0.00000000000E+00  0.00000000000E+00  0.45593999997E+02  0.45594000000E+02  0.51100000000E-03 0.  1.
         11   -1    0    0    0    0 -0.00000000000E+00 -0.00000000000E+00 -0.45593999997E+02  0.45594000000E+02  0.51100000000E-03 0. -1.
    9900012    2    1    2    0    0 -0.29686644307E+00 -0.35510494311E-01 -0.11417299180E+01  0.90007772104E+02  0.90000033896E+02 0.  0.
        -12    1    1    2    0    0  0.29686644307E+00  0.35510494311E-01  0.11417299180E+01  0.11802278957E+01  0.00000000000E+00 0.  1.
         11    1    3    3    0    0  0.13327351456E+02 -0.12706384475E+02 -0.30853652514E+02  0.35930744175E+02  0.51100000000E-03 0. -1.
        -11    1    3    3    0    0  0.19757308696E+01  0.23018974434E+01 -0.98489920081E+01  0.10305575585E+02  0.51100000000E-03 0.  1.
        -12    1    3    3    0    0 -0.15599948769E+02  0.10368976537E+02  0.39560914604E+02  0.43771452344E+02  0.00000000000E+00 0.  1.
</event>
<event>
 7    1  0.3925070E-015  0.9000787E+02  0.7816164E-02  0.1186339E+00
        -11   -1    0    0    0    0  0.00000000000E+00  0.00000000000E+00  0.45593999997E+02  0.45594000000E+02  0.51100000000E-03 0.  1.
         11   -1    0    0    0    0 -0.00000000000E+00 -0.00000000000E+00 -0.45593999997E+02  0.45594000000E+02  0.51100000000E-03 0. -1.
    9900012    2    1    2    0    0  0.94946152461E+00  0.15461164436E+00 -0.68360773400E+00  0.90007872261E+02  0.90000135374E+02 0.  0.
        -12    1    1    2    0    0 -0.94946152461E+00 -0.15461164436E+00  0.68360773400E+00  0.11801277394E+01  0.00000000000E+00 0.  1.
         11    1    3    3    0    0  0.66706787145E+00  0.36251726397E+02 -0.20337032210E+02  0.41571956000E+02  0.51100000000E-03 0. -1.
        -11    1    3    3    0    0 -0.39529738957E+01  0.19804933922E+01  0.66328489815E+01  0.79713889987E+01  0.51100000000E-03 0.  1.
        -12    1    3    3    0    0  0.42353675488E+01 -0.38077608145E+02  0.13020575494E+02  0.40464527262E+02  0.00000000000E+00 0.  1.
</event>
<event>
 7    1  0.3925070E-015  0.9000775E+02  0.7816164E-02  0.1186339E+00
        -11   -1    0    0    0    0  0.00000000000E+00  0.00000000000E+00  0.45593999997E+02  0.45594000000E+02  0.51100000000E-03 0. -1.
         11   -1    0    0    0    0 -0.00000000000E+00 -0.00000000000E+00 -0.45593999997E+02  0.45594000000E+02  0.51100000000E-03 0.  1.
    9900012    2    1    2    0    0  0.30328374483E+00  0.98072293001E+00  0.58240716334E+00  0.90007747231E+02  0.90000008694E+02 0.  0.
        -12    1    1    2    0    0 -0.30328374483E+00 -0.98072293001E+00 -0.58240716334E+00  0.11802527692E+01  0.00000000000E+00 0.  1.
         11    1    3    3    0    0 -0.27629486075E+02 -0.30252636787E+02 -0.87638150356E+01  0.41897672818E+02  0.51100000000E-03 0. -1.
        -11    1    3    3    0    0 -0.17579677208E+01  0.10635826080E+02  0.43742371553E+01  0.11633795506E+02  0.51100000000E-03 0.  1.
        -12    1    3    3    0    0  0.29690737541E+02  0.20597533637E+02  0.49719850437E+01  0.36476278907E+02  0.00000000000E+00 0.  1.
</event>
<event>
 7    1  0.3925070E-015  0.9000774E+02  0.7816164E-02  0.1186339E+00
        -11   -1    0    0    0    0  0.00000000000E+00  0.00000000000E+00  0.45593999997E+02  0.45594000000E+02  0.51100000000E-03 0. -1.
         11   -1    0    0    0    0 -0.00000000000E+00 -0.00000000000E+00 -0.45593999997E+02  0.45594000000E+02  0.51100000000E-03 0.  1.
    9900012    2    1    2    0    0  0.79049926822E+00 -0.62629666949E+00  0.61309435363E+00  0.90007736768E+02  0.89999998093E+02 0.  0.
        -12    1    1    2    0    0 -0.79049926822E+00  0.62629666949E+00 -0.61309435363E+00  0.11802632324E+01  0.00000000000E+00 0.  1.
         11    1    3    3    0    0  0.37138396977E+01  0.28407650829E+01  0.86444169712E+01  0.98279446778E+01  0.51100000000E-03 0. -1.
        -11    1    3    3    0    0 -0.81499177023E+00  0.29878653087E+02  0.20499163270E+02  0.36243810740E+02  0.51100000000E-03 0.  1.
         12    1    3    3    0    0 -0.21083486593E+01 -0.33345714840E+02 -0.28530485887E+02  0.43935981350E+02  0.00000000000E+00 0. -1.
</event>
<event>
 7    1  0.3925070E-015  0.9000772E+02  0.7816164E-02  0.1186339E+00
        -11   -1    0    0    0    0  0.00000000000E+00  0.00000000000E+00  0.45593999997E+02  0.45594000000E+02  0.51100000000E-03 0.  1.
         11   -1    0    0    0    0 -0.00000000000E+00 -0.00000000000E+00 -0.45593999997E+02  0.45594000000E+02  0.51100000000E-03 0. -1.
    9900012    2    1    2    0    0 -0.16838626403E+00 -0.37060334990E+00 -0.11078617954E+01  0.90007720993E+02  0.89999982110E+02 0.  0.
        -12    1    1    2    0    0  0.16838626403E+00  0.37060334990E+00  0.11078617954E+01  0.11802790071E+01  0.00000000000E+00 0.  1.
         11    1    3    3    0    0 -0.14620399094E+02  0.27797555830E+02 -0.22320205623E+02  0.38531179052E+02  0.51100000000E-03 0. -1.
        -11    1    3    3    0    0  0.12045839062E+02  0.40789864997E+01 -0.15366514989E+00  0.12718647051E+02  0.51100000000E-03 0.  1.
        -12    1    3    3    0    0  0.24061737682E+01 -0.32247145679E+02  0.21366008978E+02  0.38757894890E+02  0.00000000000E+00 0.  1.
</event>
<event>
 7    1  0.3925070E-015  0.9000776E+02  0.7816164E-02  0.1186339E+00
        -11   -1    0    0    0    0  0.00000000000E+00  0.00000000000E+00  0.45593999997E+02  0.45594000000E+02  0.51100000000E-03 0. -1.
         11   -1    0    0    0    0 -0.00000000000E+00 -0.00000000000E+00 -0.45593999997E+02  0.45594000000E+02  0.51100000000E-03 0.  1.
    9900012    2    1    2    0    0  0.10156747855E+01 -0.47538380958E+00 -0.36792741205E+00  0.90007764593E+02  0.90000026285E+02 0.  0.
        -12    1    1    2    0    0 -0.10156747855E+01  0.47538380958E+00  0.36792741205E+00  0.11802354074E+01  0.00000000000E+00 0.  1.
         11    1    3    3    0    0 -0.34215192810E+02 -0.13664362459E+02  0.12661445795E+02  0.38957751865E+02  0.51100000000E-03 0. -1.
        -11    1    3    3    0    0  0.83278311935E+01 -0.10367861163E+02 -0.10575801556E+01  0.13340307100E+02  0.51100000000E-03 0.  1.
        -12    1    3    3    0    0  0.26903036402E+02  0.23556839813E+02 -0.11971793052E+02  0.37709705627E+02  0.00000000000E+00 0.  1.
</event>
<event>
 7    1  0.3925070E-015  0.9000765E+02  0.7816164E-02  0.1186339E+00
        -11   -1    0    0    0    0  0.00000000000E+00  0.00000000000E+00  0.45593999997E+02  0.45594000000E+02  0.51100000000E-03 0.  1.
         11   -1    0    0    0    0 -0.00000000000E+00 -0.00000000000E+00 -0.45593999997E+02  0.45594000000E+02  0.51100000000E-03 0. -1.
    9900012    2    1    2    0    0 -0.32550398056E+00  0.90055006268E+00 -0.69013492936E+00  0.90007648579E+02  0.89999908740E+02 0.  0.
        -12    1    1    2    0    0  0.32550398056E+00 -0.90055006268E+00  0.69013492936E+00  0.11803514212E+01  0.00000000000E+00 0.  1.
         11    1    3    3    0    0  0.52482800178E+01  0.58094162414E+01  0.57678816989E+01  0.97243107604E+01  0.51100000000E-03 0. -1.
        -11    1    3    3    0    0 -0.10601898416E+02  0.19860385569E+02  0.29016574793E+02  0.36725968714E+02  0.51100000000E-03 0.  1.
         12    1    3    3    0    0  0.50281144180E+01 -0.24769251748E+02 -0.35474591422E+02  0.43557369104E+02  0.00000000000E+00 0. -1.
</event>
<event>
 7    1  0.3925070E-015  0.9000731E+02  0.7816164E-02  0.1186340E+00
        -11   -1    0    0    0    0  0.00000000000E+00  0.00000000000E+00  0.45593999997E+02  0.45594000000E+02  0.51100000000E-03 0.  1.
         11   -1    0    0    0    0 -0.00000000000E+00 -0.00000000000E+00 -0.45593999997E+02  0.45594000000E+02  0.51100000000E-03 0. -1.
    9900012    2    1    2    0    0 -0.81278025866E+00 -0.41948615299E+00 -0.74662288302E+00  0.90007311171E+02  0.89999566877E+02 0.  0.
        -12    1    1    2    0    0  0.81278025866E+00  0.41948615299E+00  0.74662288302E+00  0.11806888290E+01  0.00000000000E+00 0.  1.
         11    1    3    3    0    0 -0.34705802324E+01  0.69153808161E+01  0.16883883110E+01  0.79194743722E+01  0.51100000000E-03 0. -1.
        -11    1    3    3    0    0  0.20301656394E+02  0.70427338693E+01  0.33352765120E+02  0.39675739365E+02  0.51100000000E-03 0.  1.
         12    1    3    3    0    0 -0.17643856421E+02 -0.14377600838E+02 -0.35787776314E+02  0.42412097434E+02  0.00000000000E+00 0. -1.
</event>
<event>
 7    1  0.3925070E-015  0.9000695E+02  0.7816164E-02  0.1186341E+00
        -11   -1    0    0    0    0  0.00000000000E+00  0.00000000000E+00  0.45593999997E+02  0.45594000000E+02  0.51100000000E-03 0.  1.
         11   -1    0    0    0    0 -0.00000000000E+00 -0.00000000000E+00 -0.45593999997E+02  0.45594000000E+02  0.51100000000E-03 0. -1.
    9900012    2    1    2    0    0 -0.11532301805E+01  0.16013394770E+00  0.19822619772E+00  0.90006951163E+02  0.89999202115E+02 0.  0.
        -12    1    1    2    0    0  0.11532301805E+01 -0.16013394770E+00 -0.19822619772E+00  0.11810488372E+01  0.00000000000E+00 0.  1.
         11    1    3    3    0    0  0.78981843546E+01  0.39728760152E+02 -0.92440611811E+01  0.41547663794E+02  0.51100000000E-03 0. -1.
        -11    1    3    3    0    0 -0.75787851143E+01 -0.25185734881E+01 -0.41088927155E+01  0.89813248373E+01  0.51100000000E-03 0.  1.
        -12    1    3    3    0    0 -0.14726294207E+01 -0.37050052717E+02  0.13551180094E+02  0.39477962532E+02  0.00000000000E+00 0.  1.
</event>
<event>
 7    1  0.3925070E-015  0.9000775E+02  0.7816164E-02  0.1186339E+00
        -11   -1    0    0    0    0  0.00000000000E+00  0.00000000000E+00  0.45593999997E+02  0.45594000000E+02  0.51100000000E-03 0. -1.
         11   -1    0    0    0    0 -0.00000000000E+00 -0.00000000000E+00 -0.45593999997E+02  0.45594000000E+02  0.51100000000E-03 0.  1.
    9900012    2    1    2    0    0 -0.34494251294E+00  0.10630253001E+01 -0.37945904631E+00  0.90007746937E+02  0.90000008396E+02 0.  0.
        -12    1    1    2    0    0  0.34494251294E+00 -0.10630253001E+01  0.37945904631E+00  0.11802530634E+01  0.00000000000E+00 0.  1.
         11    1    3    3    0    0  0.58090899570E+01  0.36569110681E+02  0.69128088238E+00  0.37034082298E+02  0.51100000000E-03 0. -1.
        -11    1    3    3    0    0 -0.22366369712E+01  0.75765297810E+01  0.49108129931E+01  0.93017435450E+01  0.51100000000E-03 0.  1.
        -12    1    3    3    0    0 -0.39173954988E+01 -0.43082615162E+02 -0.59815529218E+01  0.43671921094E+02  0.00000000000E+00 0.  1.
</event>
<event>
 7    1  0.3925070E-015  0.9000785E+02  0.7816164E-02  0.1186339E+00
        -11   -1    0    0    0    0  0.00000000000E+00  0.00000000000E+00  0.45593999997E+02  0.45594000000E+02  0.51100000000E-03 0. -1.
         11   -1    0    0    0    0 -0.00000000000E+00 -0.00000000000E+00 -0.45593999997E+02  0.45594000000E+02  0.51100000000E-03 0.  1.
    9900012    2    1    2    0    0 -0.59684481054E+00 -0.73702844298E+00  0.70235982059E+00  0.90007854258E+02  0.90000117135E+02 0.  0.
        -12    1    1    2    0    0  0.59684481054E+00  0.73702844298E+00 -0.70235982059E+00  0.11801457415E+01  0.00000000000E+00 0.  1.
         11    1    3    3    0    0 -0.28783395335E+02  0.49141722356E+01 -0.20812260966E+02  0.35857818430E+02  0.51100000000E-03 0. -1.
        -11    1    3    3    0    0 -0.65348599594E+01 -0.53129623472E+01 -0.55833242749E+01  0.10104725321E+02  0.51100000000E-03 0.  1.
        -12    1    3    3    0    0  0.34721410484E+02 -0.33823833141E+00  0.27097945061E+02  0.44045310508E+02  0.00000000000E+00 0.  1.
</event>
<event>
 7    1  0.3925070E-015  0.9000754E+02  0.7816164E-02  0.1186339E+00
        -11   -1    0    0    0    0  0.00000000000E+00  0.00000000000E+00  0.45593999997E+02  0.45594000000E+02  0.51100000000E-03 0.  1.
         11   -1    0    0    0    0 -0.00000000000E+00 -0.00000000000E+00 -0.45593999997E+02  0.45594000000E+02  0.51100000000E-03 0. -1.
    9900012    2    1    2    0    0 -0.97014440338E+00  0.43901746908E+00  0.50947151422E+00  0.90007543425E+02  0.89999802198E+02 0.  0.
        -12    1    1    2    0    0  0.97014440338E+00 -0.43901746908E+00 -0.50947151422E+00  0.11804565750E+01  0.00000000000E+00 0.  1.
         11    1    3    3    0    0  0.80030916861E+01  0.45701769488E+01 -0.55848108606E+01  0.10776182371E+02  0.51100000000E-03 0. -1.
        -11    1    3    3    0    0 -0.13542933451E+02  0.75291890290E+01  0.40101674919E+02  0.42991209165E+02  0.51100000000E-03 0.  1.
         12    1    3    3    0    0  0.45696973616E+01 -0.11660348509E+02 -0.34007392544E+02  0.36240151889E+02  0.00000000000E+00 0. -1.
</event>
<event>
 7    1  0.3925070E-015  0.9000776E+02  0.7816164E-02  0.1186339E+00
        -11   -1    0    0    0    0  0.00000000000E+00  0.00000000000E+00  0.45593999997E+02  0.45594000000E+02  0.51100000000E-03 0. -1.
         11   -1    0    0    0    0 -0.00000000000E+00 -0.00000000000E+00 -0.45593999997E+02  0.45594000000E+02  0.51100000000E-03 0.  1.
    9900012    2    1    2    0    0  0.81524739304E+00  0.41416478846E+00  0.74619599979E+00  0.90007758815E+02  0.90000020432E+02 0.  0.
        -12    1    1    2    0    0 -0.81524739304E+00 -0.41416478846E+00 -0.74619599979E+00  0.11802411847E+01  0.00000000000E+00 0.  1.
         11    1    3    3    0    0  0.98778606366E-01  0.61245641162E+01  0.24844625343E+02  0.25588580491E+02  0.51100000000E-03 0. -1.
        -11    1    3    3    0    0  0.24006644422E+02 -0.20964659166E+02 -0.11866358474E+02  0.34009504172E+02  0.51100000000E-03 0.  1.
        -12    1    3    3    0    0 -0.23290175635E+02  0.15254259838E+02 -0.12232070869E+02  0.30409674153E+02  0.00000000000E+00 0.  1.
</event>
<event>
 7    1  0.3925070E-015  0.9000770E+02  0.7816164E-02  0.1186339E+00
        -11   -1    0    0    0    0  0.00000000000E+00  0.00000000000E+00  0.45593999997E+02  0.45594000000E+02  0.51100000000E-03 0.  1.
         11   -1    0    0    0    0 -0.00000000000E+00 -0.00000000000E+00 -0.45593999997E+02  0.45594000000E+02  0.51100000000E-03 0. -1.
    9900012    2    1    2    0    0  0.10839729538E+01 -0.46478791810E+00 -0.45691089794E-01  0.90007697984E+02  0.89999958797E+02 0.  0.
        -12    1    1    2    0    0 -0.10839729538E+01  0.46478791810E+00  0.45691089794E-01  0.11803020160E+01  0.00000000000E+00 0.  1.
         11    1    3    3    0    0 -0.13725748753E+02 -0.30517240948E+02  0.21215280446E+02  0.39620528752E+02  0.51100000000E-03 0. -1.
        -11    1    3    3    0    0  0.16782591632E+01 -0.60819937238E+01 -0.68906194382E+01  0.93427960471E+01  0.51100000000E-03 0.  1.
        -12    1    3    3    0    0  0.13131462544E+02  0.36134446754E+02 -0.14370352098E+02  0.41044373185E+02  0.00000000000E+00 0.  1.
</event>
<event>
 7    1  0.3925070E-015  0.9000771E+02  0.7816164E-02  0.1186339E+00
        -11   -1    0    0    0    0  0.00000000000E+00  0.00000000000E+00  0.45593999997E+02  0.45594000000E+02  0.51100000000E-03 0. -1.
         11   -1    0    0    0    0 -0.00000000000E+00 -0.00000000000E+00 -0.45593999997E+02  0.45594000000E+02  0.51100000000E-03 0.  1.
    9900012    2    1    2    0    0 -0.94673720741E-01  0.11750874017E+01  0.57430841178E-01  0.90007706894E+02  0.89999967825E+02 0.  0.
        -12    1    1    2    0    0  0.94673720741E-01 -0.11750874017E+01 -0.57430841178E-01  0.11802931062E+01  0.00000000000E+00 0.  1.
         11    1    3    3    0    0  0.17051468199E+01 -0.76089601561E+01 -0.55821116475E+01  0.95897742956E+01  0.51100000000E-03 0. -1.
        -11    1    3    3    0    0  0.62258555694E+01  0.34201499970E+02 -0.22695668692E+02  0.41516228820E+02  0.51100000000E-03 0.  1.
         12    1    3    3    0    0 -0.80256761101E+01 -0.25417452412E+02  0.28335211181E+02  0.38901703778E+02  0.00000000000E+00 0. -1.
</event>
<event>
 7    1  0.3925070E-015  0.9000775E+02  0.7816164E-02  0.1186339E+00
        -11   -1    0    0    0    0  0.00000000000E+00  0.00000000000E+00  0.45593999997E+02  0.45594000000E+02  0.51100000000E-03 0.  1.
         11   -1    0    0    0    0 -0.00000000000E+00 -0.00000000000E+00 -0.45593999997E+02  0.45594000000E+02  0.51100000000E-03 0. -1.
    9900012    2    1    2    0    0  0.49526705952E+00  0.10686169376E+01 -0.75917617547E-01  0.90007747864E+02  0.90000009336E+02 0.  0.
        -12    1    1    2    0    0 -0.49526705952E+00 -0.10686169376E+01  0.75917617547E-01  0.11802521359E+01  0.00000000000E+00 0.  1.
         11    1    3    3    0    0 -0.57501122449E+01  0.55967898620E+01 -0.76197397072E+01  0.11065635140E+02  0.51100000000E-03 0. -1.
        -11    1    3    3    0    0 -0.29727033289E+02  0.16852316671E+02  0.13365613369E+02  0.36692461165E+02  0.51100000000E-03 0.  1.
         12    1    3    3    0    0  0.35972412593E+02 -0.21380489596E+02 -0.58217912798E+01  0.42249651559E+02  0.00000000000E+00 0. -1.
</event>
<event>
 7    1  0.3925070E-015  0.9000783E+02  0.7816164E-02  0.1186339E+00
        -11   -1    0    0    0    0  0.00000000000E+00  0.00000000000E+00  0.45593999997E+02  0.45594000000E+02  0.51100000000E-03 0.  1.
         11   -1    0    0    0    0 -0.00000000000E+00 -0.00000000000E+00 -0.45593999997E+02  0.45594000000E+02  0.51100000000E-03 0. -1.
    9900012    2    1    2    0    0  0.64248098879E+00  0.98925359081E+00  0.37350244235E-01  0.90007830720E+02  0.90000093286E+02 0.  0.
        -12    1    1    2    0    0 -0.64248098879E+00 -0.98925359081E+00 -0.37350244235E-01  0.11801692796E+01  0.00000000000E+00 0.  1.
         11    1    3    3    0    0  0.28077525042E+02 -0.11562768913E+01  0.21686418195E+02  0.35496269143E+02  0.51100000000E-03 0. -1.
        -11    1    3    3    0    0  0.43202433016E+01 -0.42844113814E+01  0.83665646360E+01  0.10345051336E+02  0.51100000000E-03 0.  1.
        -12    1    3    3    0    0 -0.31755287354E+02  0.64299418635E+01 -0.30015632587E+02  0.44166510241E+02  0.00000000000E+00 0.  1.
</event>
<event>
 7    1  0.3925070E-015  0.9000773E+02  0.7816164E-02  0.1186339E+00
        -11   -1    0    0    0    0  0.00000000000E+00  0.00000000000E+00  0.45593999997E+02  0.45594000000E+02  0.51100000000E-03 0. -1.
         11   -1    0    0    0    0 -0.00000000000E+00 -0.00000000000E+00 -0.45593999997E+02  0.45594000000E+02  0.51100000000E-03 0.  1.
    9900012    2    1    2    0    0  0.11328265873E+01 -0.30272188893E+00 -0.13453597512E+00  0.90007730307E+02  0.89999991547E+02 0.  0.
        -12    1    1    2    0    0 -0.11328265873E+01  0.30272188893E+00  0.13453597512E+00  0.11802696927E+01  0.00000000000E+00 0.  1.
         11    1    3    3    0    0 -0.38040236373E+01 -0.19618384967E+02  0.36220719816E+02  0.41367767269E+02  0.51100000000E-03 0. -1.
        -11    1    3    3    0    0 -0.70405389601E+01  0.59014823028E+01 -0.13497719253E+01  0.92853953460E+01  0.51100000000E-03 0.  1.
        -12    1    3    3    0    0  0.11977389185E+02  0.13414180776E+02 -0.35005483866E+02  0.39354567692E+02  0.00000000000E+00 0.  1.
</event>
<event>
 7    1  0.3925070E-015  0.9000772E+02  0.7816164E-02  0.1186339E+00
        -11   -1    0    0    0    0  0.00000000000E+00  0.00000000000E+00  0.45593999997E+02  0.45594000000E+02  0.51100000000E-03 0.  1.
         11   -1    0    0    0    0 -0.00000000000E+00 -0.00000000000E+00 -0.45593999997E+02  0.45594000000E+02  0.51100000000E-03 0. -1.
    9900012    2    1    2    0    0 -0.67683537204E+00 -0.71056843681E+00 -0.65578427443E+00  0.90007717560E+02  0.89999978632E+02 0.  0.
        -12    1    1    2    0    0  0.67683537204E+00  0.71056843681E+00  0.65578427443E+00  0.11802824403E+01  0.00000000000E+00 0.  1.
         11    1    3    3    0    0 -0.22868525241E+02  0.16199609223E+02 -0.18241665658E+02  0.33438827012E+02  0.51100000000E-03 0. -1.
        -11    1    3    3    0    0 -0.13432082465E+02  0.89319966809E+00  0.12353856396E+01  0.13518314353E+02  0.51100000000E-03 0.  1.
        -12    1    3    3    0    0  0.35623772335E+02 -0.17803377328E+02  0.16350495744E+02  0.43050576195E+02  0.00000000000E+00 0.  1.
</event>
<event>
 7    1  0.3925070E-015  0.9000764E+02  0.7816164E-02  0.1186339E+00
        -11   -1    0    0    0    0  0.00000000000E+00  0.00000000000E+00  0.45593999997E+02  0.45594000000E+02  0.51100000000E-03 0.  1.
         11   -1    0    0    0    0 -0.00000000000E+00 -0.00000000000E+00 -0.45593999997E+02  0.45594000000E+02  0.51100000000E-03 0. -1.
    9900012    2    1    2    0    0 -0.23412653076E+00 -0.67728703293E+00 -0.93793645638E+00  0.90007636601E+02  0.89999896604E+02 0.  0.
        -12    1    1    2    0    0  0.23412653076E+00  0.67728703293E+00  0.93793645638E+00  0.11803633989E+01  0.00000000000E+00 0.  1.
         11    1    3    3    0    0 -0.10946339792E+02  0.35449846753E+02 -0.11014568854E+02  0.38701869683E+02  0.51100000000E-03 0. -1.
        -11    1    3    3    0    0 -0.25307310288E+01 -0.58240373721E+01 -0.10561771722E+02  0.12323758884E+02  0.51100000000E-03 0.  1.
        -12    1    3    3    0    0  0.13242944290E+02 -0.30303096414E+02  0.20638404120E+02  0.38982008034E+02  0.00000000000E+00 0.  1.
</event>
<event>
 7    1  0.3925070E-015  0.9000770E+02  0.7816164E-02  0.1186339E+00
        -11   -1    0    0    0    0  0.00000000000E+00  0.00000000000E+00  0.45593999997E+02  0.45594000000E+02  0.51100000000E-03 0.  1.
         11   -1    0    0    0    0 -0.00000000000E+00 -0.00000000000E+00 -0.45593999997E+02  0.45594000000E+02  0.51100000000E-03 0. -1.
    9900012    2    1    2    0    0 -0.11442309880E+01 -0.28947353506E+00 -0.65694150783E-02  0.90007702309E+02  0.89999963180E+02 0.  0.
        -12    1    1    2    0    0  0.11442309880E+01  0.28947353506E+00  0.65694150783E-02  0.11802976906E+01  0.00000000000E+00 0.  1.
         11    1    3    3    0    0  0.19984124159E+02 -0.66939244753E+01 -0.30133134403E+02  0.36771995220E+02  0.51100000000E-03 0. -1.
        -11    1    3    3    0    0  0.90292222319E+01  0.50005427703E+01 -0.36334375715E+00  0.10327841065E+02  0.51100000000E-03 0.  1.
        -12    1    3    3    0    0 -0.30157577379E+02  0.14039081699E+01  0.30489908745E+02  0.42907866024E+02  0.00000000000E+00 0.  1.
</event>
<event>
 7    1  0.3925070E-015  0.9000800E+02  0.7816164E-02  0.1186339E+00
        -11   -1    0    0    0    0  0.00000000000E+00  0.00000000000E+00  0.45593999997E+02  0.45594000000E+02  0.51100000000E-03 0.  1.
         11   -1    0    0    0    0 -0.00000000000E+00 -0.00000000000E+00 -0.45593999997E+02  0.45594000000E+02  0.51100000000E-03 0. -1.
    9900012    2    1    2    0    0  0.73960429914E+00 -0.13774203791E+00 -0.90907289647E+00  0.90007999610E+02  0.90000264405E+02 0.  0.
        -12    1    1    2    0    0 -0.73960429914E+00  0.13774203791E+00  0.90907289647E+00  0.11800003896E+01  0.00000000000E+00 0.  1.
         11    1    3    3    0    0  0.23523261140E+02 -0.23591648847E+02  0.23281327693E+02  0.40643940869E+02  0.51100000000E-03 0. -1.
        -11    1    3    3    0    0 -0.71397367567E+01 -0.60665249174E+01 -0.31643555878E+01  0.98889692120E+01  0.51100000000E-03 0.  1.
        -12    1    3    3    0    0 -0.15643920084E+02  0.29520431727E+02 -0.21026045002E+02  0.39475089529E+02  0.00000000000E+00 0.  1.
</event>
<event>
 7    1  0.3925070E-015  0.9000774E+02  0.7816164E-02  0.1186339E+00
        -11   -1    0    0    0    0  0.00000000000E+00  0.00000000000E+00  0.45593999997E+02  0.45594000000E+02  0.51100000000E-03 0. -1.
         11   -1    0    0    0    0 -0.00000000000E+00 -0.00000000000E+00 -0.45593999997E+02  0.45594000000E+02  0.51100000000E-03 0.  1.
    9900012    2    1    2    0    0  0.63105928331E+00 -0.68887345156E+00  0.72127635800E+00  0.90007736455E+02  0.89999997776E+02 0.  0.
        -12    1    1    2    0    0 -0.63105928331E+00  0.68887345156E+00 -0.72127635800E+00  0.11802635451E+01  0.00000000000E+00 0.  1.
         11    1    3    3    0    0  0.11689751621E+02 -0.65056872524E+01 -0.10974408233E+01  0.13423063592E+02  0.51100000000E-03 0. -1.
        -11    1    3    3    0    0  0.54006081374E+01  0.37644017904E+02  0.11014156015E+02  0.39592300832E+02  0.51100000000E-03 0.  1.
         12    1    3    3    0    0 -0.16459300475E+02 -0.31827204103E+02 -0.91954388341E+01  0.36992372031E+02  0.00000000000E+00 0. -1.
</event>
<event>
 7    1  0.3925070E-015  0.9000785E+02  0.7816164E-02  0.1186339E+00
        -11   -1    0    0    0    0  0.00000000000E+00  0.00000000000E+00  0.45593999997E+02  0.45594000000E+02  0.51100000000E-03 0. -1.
         11   -1    0    0    0    0 -0.00000000000E+00 -0.00000000000E+00 -0.45593999997E+02  0.45594000000E+02  0.51100000000E-03 0.  1.
    9900012    2    1    2    0    0 -0.64998458906E-01 -0.87316291463E+00  0.79127793417E+00  0.90007847872E+02  0.90000110664E+02 0.  0.
        -12    1    1    2    0    0  0.64998458906E-01  0.87316291463E+00 -0.79127793417E+00  0.11801521276E+01  0.00000000000E+00 0.  1.
         11    1    3    3    0    0 -0.39858034119E+01 -0.49044686438E+01  0.10514552808E+02  0.12267691818E+02  0.51100000000E-03 0. -1.
        -11    1    3    3    0    0  0.52967653568E+01 -0.34130951789E+02 -0.17575665690E+02  0.38754117433E+02  0.51100000000E-03 0.  1.
         12    1    3    3    0    0 -0.13759604039E+01  0.38162257518E+02  0.78523908155E+01  0.38986038622E+02  0.00000000000E+00 0. -1.
</event>
<event>
 7    1  0.3925070E-015  0.9000772E+02  0.7816164E-02  0.1186339E+00
        -11   -1    0    0    0    0  0.00000000000E+00  0.00000000000E+00  0.45593999997E+02  0.45594000000E+02  0.51100000000E-03 0.  1.
         11   -1    0    0    0    0 -0.00000000000E+00 -0.00000000000E+00 -0.45593999997E+02  0.45594000000E+02  0.51100000000E-03 0. -1.
    9900012    2    1    2    0    0 -0.52045972769E-01 -0.14118066524E+00 -0.11706537069E+01  0.90007715769E+02  0.89999976818E+02 0.  0.
        -12    1    1    2    0    0  0.52045972769E-01  0.14118066524E+00  0.11706537069E+01  0.11802842306E+01  0.00000000000E+00 0.  1.
         11    1    3    3    0    0 -0.89325190053E+01 -0.20554184031E+00 -0.17033120847E+01  0.90957910897E+01  0.51100000000E-03 0. -1.
        -11    1    3    3    0    0 -0.35721828312E+02  0.17505734396E+01  0.47509486810E+01  0.36078872473E+02  0.51100000000E-03 0.  1.
         12    1    3    3    0    0  0.44602301345E+02 -0.16862122646E+01 -0.42182903032E+01  0.44833052206E+02  0.00000000000E+00 0. -1.
</event>
<event>
 7    1  0.3925070E-015  0.9000788E+02  0.7816164E-02  0.1186339E+00
        -11   -1    0    0    0    0  0.00000000000E+00  0.00000000000E+00  0.45593999997E+02  0.45594000000E+02  0.51100000000E-03 0.  1.
         11   -1    0    0    0    0 -0.00000000000E+00 -0.00000000000E+00 -0.45593999997E+02  0.45594000000E+02  0.51100000000E-03 0. -1.
    9900012    2    1    2    0    0  0.85179505867E+00 -0.20605822051E+00 -0.79036433944E+00  0.90007876870E+02  0.90000140045E+02 0.  0.
        -12    1    1    2    0    0 -0.85179505867E+00  0.20605822051E+00  0.79036433944E+00  0.11801231297E+01  0.00000000000E+00 0.  1.
         11    1    3    3    0    0  0.40528038782E+01 -0.15778025494E+02 -0.24662987389E+02  0.29557304596E+02  0.51100000000E-03 0. -1.
        -11    1    3    3    0    0  0.23085579696E+02 -0.28615140261E+01  0.12368345617E+02  0.26345933766E+02  0.51100000000E-03 0.  1.
        -12    1    3    3    0    0 -0.26286588515E+02  0.18433481300E+02  0.11504277432E+02  0.34104638509E+02  0.00000000000E+00 0.  1.
</event>
<event>
 7    1  0.3925070E-015  0.9000763E+02  0.7816164E-02  0.1186339E+00
        -11   -1    0    0    0    0  0.00000000000E+00  0.00000000000E+00  0.45593999997E+02  0.45594000000E+02  0.51100000000E-03 0.  1.
         11   -1    0    0    0    0 -0.00000000000E+00 -0.00000000000E+00 -0.45593999997E+02  0.45594000000E+02  0.51100000000E-03 0. -1.
    9900012    2    1    2    0    0 -0.15732020127E+00 -0.18030709629E+00 -0.11558553554E+01  0.90007634846E+02  0.89999894826E+02 0.  0.
        -12    1    1    2    0    0  0.15732020127E+00  0.18030709629E+00  0.11558553554E+01  0.11803651542E+01  0.00000000000E+00 0.  1.
         11    1    3    3    0    0 -0.60538156270E+01  0.33860999938E+01 -0.50762985826E+01  0.85955316516E+01  0.51100000000E-03 0. -1.
        -11    1    3    3    0    0 -0.11885324466E+01  0.29415836607E+02  0.27474271051E+02  0.40268345170E+02  0.51100000000E-03 0.  1.
         12    1    3    3    0    0  0.70850278724E+01 -0.32982243697E+02 -0.23553827823E+02  0.41143758025E+02  0.00000000000E+00 0. -1.
</event>
<event>
 7    1  0.3925070E-015  0.9000743E+02  0.7816164E-02  0.1186340E+00
        -11   -1    0    0    0    0  0.00000000000E+00  0.00000000000E+00  0.45593999997E+02  0.45594000000E+02  0.51100000000E-03 0.  1.
         11   -1    0    0    0    0 -0.00000000000E+00 -0.00000000000E+00 -0.45593999997E+02  0.45594000000E+02  0.51100000000E-03 0. -1.
    9900012    2    1    2    0    0 -0.18981383923E+00 -0.11373331372E+01 -0.25335260697E+00  0.90007430857E+02  0.89999688144E+02 0.  0.
        -12    1    1    2    0    0  0.18981383923E+00  0.11373331372E+01  0.25335260697E+00  0.11805691432E+01  0.00000000000E+00 0.  1.
         11    1    3    3    0    0  0.70091579015E+01 -0.37972653350E+01 -0.66195308231E+01  0.10361742474E+02  0.51100000000E-03 0. -1.
        -11    1    3    3    0    0 -0.37328628215E+02 -0.12018993543E+02 -0.12532053573E+02  0.41169588985E+02  0.51100000000E-03 0.  1.
         12    1    3    3    0    0  0.30129656474E+02  0.14678925741E+02  0.18898231789E+02  0.38476099398E+02  0.00000000000E+00 0. -1.
</event>
<event>
 7    1  0.3925070E-015  0.9000776E+02  0.7816164E-02  0.1186339E+00
        -11   -1    0    0    0    0  0.00000000000E+00  0.00000000000E+00  0.45593999997E+02  0.45594000000E+02  0.51100000000E-03 0. -1.
         11   -1    0    0    0    0 -0.00000000000E+00 -0.00000000000E+00 -0.45593999997E+02  0.45594000000E+02  0.51100000000E-03 0.  1.
    9900012    2    1    2    0    0  0.35006842403E+00  0.92246355992E-01  0.11233454873E+01  0.90007761729E+02  0.90000023384E+02 0.  0.
        -12    1    1    2    0    0 -0.35006842403E+00 -0.92246355992E-01 -0.11233454873E+01  0.11802382707E+01  0.00000000000E+00 0.  1.
         11    1    3    3    0    0  0.60628620736E+01  0.53268999171E+01  0.10411736942E+01  0.81374567386E+01  0.51100000000E-03 0. -1.
        -11    1    3    3    0    0  0.35405446975E+02  0.19009826454E+01 -0.13565052790E+02  0.37962745790E+02  0.51100000000E-03 0.  1.
         12    1    3    3    0    0 -0.41118240624E+02 -0.71356362066E+01  0.13647224583E+02  0.43907559200E+02  0.00000000000E+00 0. -1.
</event>
<event>
 7    1  0.3925070E-015  0.9000688E+02  0.7816164E-02  0.1186341E+00
        -11   -1    0    0    0    0  0.00000000000E+00  0.00000000000E+00  0.45593999997E+02  0.45594000000E+02  0.51100000000E-03 0.  1.
         11   -1    0    0    0    0 -0.00000000000E+00 -0.00000000000E+00 -0.45593999997E+02  0.45594000000E+02  0.51100000000E-03 0. -1.
    9900012    2    1    2    0    0  0.27914503331E+00  0.53136268079E+00 -0.10172371713E+01  0.90006882008E+02  0.89999132046E+02 0.  0.
        -12    1    1    2    0    0 -0.27914503331E+00 -0.53136268079E+00  0.10172371713E+01  0.11811179919E+01  0.00000000000E+00 0.  1.
         11    1    3    3    0    0  0.34680986468E+01  0.82050141402E+01  0.16544404455E+01  0.90601952912E+01  0.51100000000E-03 0. -1.
        -11    1    3    3    0    0 -0.22628986995E+02 -0.36571412208E+02  0.95182164555E+01  0.44046971384E+02  0.51100000000E-03 0.  1.
         12    1    3    3    0    0  0.19440033382E+02  0.28897760749E+02 -0.12189894072E+02  0.36899715333E+02  0.00000000000E+00 0. -1.
</event>
<event>
 7    1  0.3925070E-015  0.9000774E+02  0.7816164E-02  0.1186339E+00
        -11   -1    0    0    0    0  0.00000000000E+00  0.00000000000E+00  0.45593999997E+02  0.45594000000E+02  0.51100000000E-03 0.  1.
         11   -1    0    0    0    0 -0.00000000000E+00 -0.00000000000E+00 -0.45593999997E+02  0.45594000000E+02  0.51100000000E-03 0. -1.
    9900012    2    1    2    0    0  0.25414870257E+00 -0.11019427838E+01 -0.33785483921E+00  0.90007739286E+02  0.90000000644E+02 0.  0.
        -12    1    1    2    0    0 -0.25414870257E+00  0.11019427838E+01  0.33785483921E+00  0.11802607145E+01  0.00000000000E+00 0.  1.
         11    1    3    3    0    0  0.64047283520E+01 -0.32147063679E+00  0.74715847477E+01  0.98462412898E+01  0.51100000000E-03 0. -1.
        -11    1    3    3    0    0  0.60466554543E+01 -0.18422372309E+02  0.30567254399E+02  0.36198106102E+02  0.51100000000E-03 0.  1.
         12    1    3    3    0    0 -0.12197235104E+02  0.17641900162E+02 -0.38376693985E+02  0.43963391893E+02  0.00000000000E+00 0. -1.
</event>
<event>
 7    1  0.3925070E-015  0.9000758E+02  0.7816164E-02  0.1186339E+00
        -11   -1    0    0    0    0  0.00000000000E+00  0.00000000000E+00  0.45593999997E+02  0.45594000000E+02  0.51100000000E-03 0.  1.
         11   -1    0    0    0    0 -0.00000000000E+00 -0.00000000000E+00 -0.45593999997E+02  0.45594000000E+02  0.51100000000E-03 0. -1.
    9900012    2    1    2    0    0  0.75279694784E+00  0.56248957866E+00 -0.71434935849E+00  0.90007579407E+02  0.89999838655E+02 0.  0.
        -12    1    1    2    0    0 -0.75279694784E+00 -0.56248957866E+00  0.71434935849E+00  0.11804205932E+01  0.00000000000E+00 0.  1.
         11    1    3    3    0    0  0.31698986369E+02 -0.15776552892E+02  0.10747386344E+01  0.35424291402E+02  0.51100000000E-03 0. -1.
        -11    1    3    3    0    0  0.70212021948E+01 -0.60970694689E+01 -0.46357584328E+01  0.10390466442E+02  0.51100000000E-03 0.  1.
        -12    1    3    3    0    0 -0.37967391616E+02  0.22436111939E+02  0.28466704399E+01  0.44192821563E+02  0.00000000000E+00 0.  1.
</event>
<event>
 7    1  0.3925070E-015  0.9000732E+02  0.7816164E-02  0.1186340E+00
        -11   -1    0    0    0    0  0.00000000000E+00  0.00000000000E+00  0.45593999997E+02  0.45594000000E+02  0.51100000000E-03 0.  1.
         11   -1    0    0    0    0 -0.00000000000E+00 -0.00000000000E+00 -0.45593999997E+02  0.45594000000E+02  0.51100000000E-03 0. -1.
    9900012    2    1    2    0    0 -0.55296950205E+00 -0.99754844022E+00 -0.30517635437E+00  0.90007317668E+02  0.89999573461E+02 0.  0.
        -12    1    1    2    0    0  0.55296950205E+00  0.99754844022E+00  0.30517635437E+00  0.11806823316E+01  0.00000000000E+00 0.  1.
         11    1    3    3    0    0 -0.24236372500E+02 -0.10147837714E+02 -0.31076826142E+02  0.40695816560E+02  0.51100000000E-03 0. -1.
        -11    1    3    3    0    0  0.52493295537E+01 -0.83842493929E-01 -0.54913024818E+01  0.75971635190E+01  0.51100000000E-03 0.  1.
        -12    1    3    3    0    0  0.18434073444E+02  0.92341317676E+01  0.36262952269E+02  0.41714337589E+02  0.00000000000E+00 0.  1.
</event>
<event>
 7    1  0.3925070E-015  0.9000771E+02  0.7816164E-02  0.1186339E+00
        -11   -1    0    0    0    0  0.00000000000E+00  0.00000000000E+00  0.45593999997E+02  0.45594000000E+02  0.51100000000E-03 0.  1.
         11   -1    0    0    0    0 -0.00000000000E+00 -0.00000000000E+00 -0.45593999997E+02  0.45594000000E+02  0.51100000000E-03 0. -1.
    9900012    2    1    2    0    0 -0.26370320011E+00  0.97762564828E+00 -0.60645595181E+00  0.90007711854E+02  0.89999972851E+02 0.  0.
        -12    1    1    2    0    0  0.26370320011E+00 -0.97762564828E+00  0.60645595181E+00  0.11802881459E+01  0.00000000000E+00 0.  1.
         11    1    3    3    0    0  0.20530900609E+02  0.26413685983E+02  0.12067502144E+02  0.35564382397E+02  0.51100000000E-03 0. -1.
        -11    1    3    3    0    0  0.85555858556E+01  0.56006403105E+01 -0.21462395233E+01  0.10448519779E+02  0.51100000000E-03 0.  1.
        -12    1    3    3    0    0 -0.29350189665E+02 -0.31036700645E+02 -0.10527718573E+02  0.43994809678E+02  0.00000000000E+00 0.  1.
</event>
<event>
 7    1  0.3925070E-015  0.9000815E+02  0.7816164E-02  0.1186338E+00
        -11   -1    0    0    0    0  0.00000000000E+00  0.00000000000E+00  0.45593999997E+02  0.45594000000E+02  0.51100000000E-03 0. -1.
         11   -1    0    0    0    0 -0.00000000000E+00 -0.00000000000E+00 -0.45593999997E+02  0.45594000000E+02  0.51100000000E-03 0.  1.
    9900012    2    1    2    0    0  0.17190583787E+00 -0.10363304926E+00  0.11626530352E+01  0.90008146829E+02  0.90000413566E+02 0.  0.
        -12    1    1    2    0    0 -0.17190583787E+00  0.10363304926E+00 -0.11626530352E+01  0.11798531715E+01  0.00000000000E+00 0.  1.
         11    1    3    3    0    0  0.10057233632E+02  0.16140893850E+02 -0.93477924077E+01  0.21190979821E+02  0.51100000000E-03 0. -1.
        -11    1    3    3    0    0  0.20818079381E+02 -0.10965424738E+02  0.25110517047E+02  0.34411786286E+02  0.51100000000E-03 0.  1.
         12    1    3    3    0    0 -0.30703407175E+02 -0.52791021608E+01 -0.14600071604E+02  0.34405380722E+02  0.00000000000E+00 0. -1.
</event>
<event>
 7    1  0.3925070E-015  0.9000783E+02  0.7816164E-02  0.1186339E+00
        -11   -1    0    0    0    0  0.00000000000E+00  0.00000000000E+00  0.45593999997E+02  0.45594000000E+02  0.51100000000E-03 0. -1.
         11   -1    0    0    0    0 -0.00000000000E+00 -0.00000000000E+00 -0.45593999997E+02  0.45594000000E+02  0.51100000000E-03 0.  1.
    9900012    2    1    2    0    0 -0.41473987762E+00 -0.84254419088E+00  0.71477894112E+00  0.90007831023E+02  0.90000093592E+02 0.  0.
        -12    1    1    2    0    0  0.41473987762E+00  0.84254419088E+00 -0.71477894112E+00  0.11801689770E+01  0.00000000000E+00 0.  1.
         11    1    3    3    0    0  0.14264694498E+02 -0.34228514315E+02 -0.14567109536E+02  0.39840599667E+02  0.51100000000E-03 0. -1.
        -11    1    3    3    0    0  0.95317064514E+01  0.62402201524E+01  0.30899883464E+01  0.11804312927E+02  0.51100000000E-03 0.  1.
        -12    1    3    3    0    0 -0.24211140827E+02  0.27145749971E+02  0.12191900131E+02  0.38362918430E+02  0.00000000000E+00 0.  1.
</event>
<event>
 7    1  0.3925070E-015  0.9000768E+02  0.7816164E-02  0.1186339E+00
        -11   -1    0    0    0    0  0.00000000000E+00  0.00000000000E+00  0.45593999997E+02  0.45594000000E+02  0.51100000000E-03 0.  1.
         11   -1    0    0    0    0 -0.00000000000E+00 -0.00000000000E+00 -0.45593999997E+02  0.45594000000E+02  0.51100000000E-03 0. -1.
    9900012    2    1    2    0    0  0.19174000338E+00 -0.79874836510E+00 -0.84757738374E+00  0.90007681992E+02  0.89999942594E+02 0.  0.
        -12    1    1    2    0    0 -0.19174000338E+00  0.79874836510E+00  0.84757738374E+00  0.11803180084E+01  0.00000000000E+00 0.  1.
         11    1    3    3    0    0  0.66210484782E+01  0.51388620284E-01  0.89513504046E+01  0.11134073741E+02  0.51100000000E-03 0. -1.
        -11    1    3    3    0    0 -0.35600202403E+02  0.16447727498E+02  0.88044729792E+01  0.40192298960E+02  0.51100000000E-03 0.  1.
         12    1    3    3    0    0  0.29170893929E+02 -0.17297864484E+02 -0.18603400768E+02  0.38681309290E+02  0.00000000000E+00 0. -1.
</event>
<event>
 7    1  0.3925070E-015  0.9000762E+02  0.7816164E-02  0.1186339E+00
        -11   -1    0    0    0    0  0.00000000000E+00  0.00000000000E+00  0.45593999997E+02  0.45594000000E+02  0.51100000000E-03 0.  1.
         11   -1    0    0    0    0 -0.00000000000E+00 -0.00000000000E+00 -0.45593999997E+02  0.45594000000E+02  0.51100000000E-03 0. -1.
    9900012    2    1    2    0    0 -0.54925675405E+00 -0.32930367189E+00 -0.99155316267E+00  0.90007618043E+02  0.89999877801E+02 0.  0.
        -12    1    1    2    0    0  0.54925675405E+00  0.32930367189E+00  0.99155316267E+00  0.11803819571E+01  0.00000000000E+00 0.  1.
         11    1    3    3    0    0  0.29524173010E+02 -0.22230184639E+02 -0.63673559035E+01  0.37502014912E+02  0.51100000000E-03 0. -1.
        -11    1    3    3    0    0  0.67908147927E+01 -0.26766997297E+01  0.36619335444E+01  0.81663727895E+01  0.51100000000E-03 0.  1.
        -12    1    3    3    0    0 -0.36864244556E+02  0.24577580697E+02  0.17138691965E+01  0.44339230341E+02  0.00000000000E+00 0.  1.
</event>
<event>
 7    1  0.3925070E-015  0.9000766E+02  0.7816164E-02  0.1186339E+00
        -11   -1    0    0    0    0  0.00000000000E+00  0.00000000000E+00  0.45593999997E+02  0.45594000000E+02  0.51100000000E-03 0.  1.
         11   -1    0    0    0    0 -0.00000000000E+00 -0.00000000000E+00 -0.45593999997E+02  0.45594000000E+02  0.51100000000E-03 0. -1.
    9900012    2    1    2    0    0  0.91624988839E-01  0.11504472608E+01  0.24756145055E+00  0.90007656529E+02  0.89999916795E+02 0.  0.
        -12    1    1    2    0    0 -0.91624988839E-01 -0.11504472608E+01 -0.24756145055E+00  0.11803434714E+01  0.00000000000E+00 0.  1.
         11    1    3    3    0    0 -0.16916848801E+01  0.47325750875E+00 -0.71167535660E+01  0.73303446020E+01  0.51100000000E-03 0. -1.
        -11    1    3    3    0    0 -0.10305340879E+02 -0.33538746594E+02 -0.16980285981E+02  0.38979195553E+02  0.51100000000E-03 0.  1.
         12    1    3    3    0    0  0.12088650748E+02  0.34215936346E+02  0.24344600997E+02  0.43698116374E+02  0.00000000000E+00 0. -1.
</event>
<event>
 7    1  0.3925070E-015  0.9000774E+02  0.7816164E-02  0.1186339E+00
        -11   -1    0    0    0    0  0.00000000000E+00  0.00000000000E+00  0.45593999997E+02  0.45594000000E+02  0.51100000000E-03 0.  1.
         11   -1    0    0    0    0 -0.00000000000E+00 -0.00000000000E+00 -0.45593999997E+02  0.45594000000E+02  0.51100000000E-03 0. -1.
    9900012    2    1    2    0    0 -0.54360852655E+00  0.84981834258E+00 -0.61262381577E+00  0.90007741814E+02  0.90000003206E+02 0.  0.
        -12    1    1    2    0    0  0.54360852655E+00 -0.84981834258E+00  0.61262381577E+00  0.11802581858E+01  0.00000000000E+00 0.  1.
         11    1    3    3    0    0  0.22449430578E+02 -0.23708148876E+02  0.13377842308E+02  0.35284839825E+02  0.51100000000E-03 0. -1.
        -11    1    3    3    0    0  0.46049071406E+01 -0.65030323263E+01  0.46027155766E+01  0.92021513870E+01  0.51100000000E-03 0.  1.
        -12    1    3    3    0    0 -0.27597946245E+02  0.31060999545E+02 -0.18593181700E+02  0.45520750602E+02  0.00000000000E+00 0.  1.
</event>
<event>
 7    1  0.3925070E-015  0.9000771E+02  0.7816164E-02  0.1186339E+00
        -11   -1    0    0    0    0  0.00000000000E+00  0.00000000000E+00  0.45593999997E+02  0.45594000000E+02  0.51100000000E-03 0.  1.
         11   -1    0    0    0    0 -0.00000000000E+00 -0.00000000000E+00 -0.45593999997E+02  0.45594000000E+02  0.51100000000E-03 0. -1.
    9900012    2    1    2    0    0 -0.51949897247E+00 -0.89859504734E+00 -0.56190347485E+00  0.90007708614E+02  0.89999969567E+02 0.  0.
        -12    1    1    2    0    0  0.51949897247E+00  0.89859504734E+00  0.56190347485E+00  0.11802913863E+01  0.00000000000E+00 0.  1.
         11    1    3    3    0    0 -0.23949763841E+01  0.10096353935E+01  0.86937915649E+01  0.90739896156E+01  0.51100000000E-03 0. -1.
        -11    1    3    3    0    0  0.33170456268E+02 -0.15489578890E+02 -0.23994088218E+02  0.43771251900E+02  0.51100000000E-03 0.  1.
         12    1    3    3    0    0 -0.31294978857E+02  0.13581348449E+02  0.14738393178E+02  0.37162467098E+02  0.00000000000E+00 0. -1.
</event>
<event>
 7    1  0.3925070E-015  0.9000781E+02  0.7816164E-02  0.1186339E+00
        -11   -1    0    0    0    0  0.00000000000E+00  0.00000000000E+00  0.45593999997E+02  0.45594000000E+02  0.51100000000E-03 0. -1.
         11   -1    0    0    0    0 -0.00000000000E+00 -0.00000000000E+00 -0.45593999997E+02  0.45594000000E+02  0.51100000000E-03 0.  1.
    9900012    2    1    2    0    0 -0.10467071957E+01  0.54040608012E+00  0.72265369853E-01  0.90007806385E+02  0.90000068629E+02 0.  0.
        -12    1    1    2    0    0  0.10467071957E+01 -0.54040608012E+00 -0.72265369853E-01  0.11801936149E+01  0.00000000000E+00 0.  1.
         11    1    3    3    0    0  0.23052108179E+01  0.24016400204E+01 -0.12420776827E+02  0.12859143399E+02  0.51100000000E-03 0. -1.
        -11    1    3    3    0    0  0.91601584766E+01  0.35501330949E+02  0.76075067713E+01  0.37444988476E+02  0.51100000000E-03 0.  1.
         12    1    3    3    0    0 -0.12512076490E+02 -0.37362564889E+02  0.48855354256E+01  0.39703674510E+02  0.00000000000E+00 0. -1.
</event>
<event>
 7    1  0.3925070E-015  0.9000778E+02  0.7816164E-02  0.1186339E+00
        -11   -1    0    0    0    0  0.00000000000E+00  0.00000000000E+00  0.45593999997E+02  0.45594000000E+02  0.51100000000E-03 0. -1.
         11   -1    0    0    0    0 -0.00000000000E+00 -0.00000000000E+00 -0.45593999997E+02  0.45594000000E+02  0.51100000000E-03 0.  1.
    9900012    2    1    2    0    0 -0.80419782429E-01  0.76478819817E-01  0.11749953465E+01  0.90007775269E+02  0.90000037103E+02 0.  0.
        -12    1    1    2    0    0  0.80419782429E-01 -0.76478819817E-01 -0.11749953465E+01  0.11802247309E+01  0.00000000000E+00 0.  1.
         11    1    3    3    0    0 -0.46824042172E+01 -0.20641237315E+01 -0.73996905783E+01  0.89967181210E+01  0.51100000000E-03 0. -1.
        -11    1    3    3    0    0  0.21826134230E+01  0.19535912724E+02 -0.31571663645E+02  0.37191203704E+02  0.51100000000E-03 0.  1.
         12    1    3    3    0    0  0.24193710118E+01 -0.17395310173E+02  0.40146349570E+02  0.43819853445E+02  0.00000000000E+00 0. -1.
</event>
<event>
 7    1  0.3925070E-015  0.9000774E+02  0.7816164E-02  0.1186339E+00
        -11   -1    0    0    0    0  0.00000000000E+00  0.00000000000E+00  0.45593999997E+02  0.45594000000E+02  0.51100000000E-03 0.  1.
         11   -1    0    0    0    0 -0.00000000000E+00 -0.00000000000E+00 -0.45593999997E+02  0.45594000000E+02  0.51100000000E-03 0. -1.
    9900012    2    1    2    0    0 -0.21034471189E+00  0.87953739147E+00 -0.75840901803E+00  0.90007739368E+02  0.90000000728E+02 0.  0.
        -12    1    1    2    0    0  0.21034471189E+00 -0.87953739147E+00  0.75840901803E+00  0.11802606320E+01  0.00000000000E+00 0.  1.
         11    1    3    3    0    0 -0.41707439348E+01 -0.51714103848E+01  0.42970901480E+01  0.79122420552E+01  0.51100000000E-03 0. -1.
        -11    1    3    3    0    0 -0.35714040816E+02  0.34842553648E+01 -0.18182161306E+02  0.40227151737E+02  0.51100000000E-03 0.  1.
         12    1    3    3    0    0  0.39674440039E+02  0.25666924116E+01  0.13126662140E+02  0.41868345576E+02  0.00000000000E+00 0. -1.
</event>
<event>
 7    1  0.3925070E-015  0.9000763E+02  0.7816164E-02  0.1186339E+00
        -11   -1    0    0    0    0  0.00000000000E+00  0.00000000000E+00  0.45593999997E+02  0.45594000000E+02  0.51100000000E-03 0. -1.
         11   -1    0    0    0    0 -0.00000000000E+00 -0.00000000000E+00 -0.45593999997E+02  0.45594000000E+02  0.51100000000E-03 0.  1.
    9900012    2    1    2    0    0 -0.72372144950E+00  0.83708874339E+00  0.41083676150E+00  0.90007628387E+02  0.89999888281E+02 0.  0.
        -12    1    1    2    0    0  0.72372144950E+00 -0.83708874339E+00 -0.41083676150E+00  0.11803716133E+01  0.00000000000E+00 0.  1.
         11    1    3    3    0    0 -0.20438540962E+02 -0.21747374945E+02 -0.23526899178E+02  0.38002595422E+02  0.51100000000E-03 0. -1.
        -11    1    3    3    0    0 -0.50032306141E+00 -0.87952753323E+01  0.38279478599E+01  0.96052265156E+01  0.51100000000E-03 0.  1.
        -12    1    3    3    0    0  0.20215142574E+02  0.31379739020E+02  0.20109788080E+02  0.42399806449E+02  0.00000000000E+00 0.  1.
</event>
<event>
 7    1  0.3925070E-015  0.9000772E+02  0.7816164E-02  0.1186339E+00
        -11   -1    0    0    0    0  0.00000000000E+00  0.00000000000E+00  0.45593999997E+02  0.45594000000E+02  0.51100000000E-03 0.  1.
         11   -1    0    0    0    0 -0.00000000000E+00 -0.00000000000E+00 -0.45593999997E+02  0.45594000000E+02  0.51100000000E-03 0. -1.
    9900012    2    1    2    0    0 -0.29504516572E+00 -0.10907297074E+01 -0.34106316975E+00  0.90007717394E+02  0.89999978464E+02 0.  0.
        -12    1    1    2    0    0  0.29504516572E+00  0.10907297074E+01  0.34106316975E+00  0.11802826060E+01  0.00000000000E+00 0.  1.
         11    1    3    3    0    0 -0.14929742225E+01 -0.34460416600E+01  0.90814111344E+01  0.98273192481E+01  0.51100000000E-03 0. -1.
        -11    1    3    3    0    0 -0.11734692064E+02  0.21085010288E+02  0.27637291941E+02  0.36689243149E+02  0.51100000000E-03 0.  1.
         12    1    3    3    0    0  0.12932621121E+02 -0.18729698336E+02 -0.37059766246E+02  0.43491154997E+02  0.00000000000E+00 0. -1.
</event>
<event>
 7    1  0.3925070E-015  0.9000778E+02  0.7816164E-02  0.1186339E+00
        -11   -1    0    0    0    0  0.00000000000E+00  0.00000000000E+00  0.45593999997E+02  0.45594000000E+02  0.51100000000E-03 0. -1.
         11   -1    0    0    0    0 -0.00000000000E+00 -0.00000000000E+00 -0.45593999997E+02  0.45594000000E+02  0.51100000000E-03 0.  1.
    9900012    2    1    2    0    0 -0.51834414568E+00 -0.49824572890E+00 -0.93594142671E+00  0.90007781455E+02  0.90000043370E+02 0.  0.
        -12    1    1    2    0    0  0.51834414568E+00  0.49824572890E+00  0.93594142671E+00  0.11802185450E+01  0.00000000000E+00 0.  1.
         11    1    3    3    0    0  0.46440204610E+01  0.30179480376E+01 -0.76674681015E+01  0.94585941740E+01  0.51100000000E-03 0. -1.
        -11    1    3    3    0    0 -0.16637287772E+02 -0.14936285055E+02 -0.31731889823E+02  0.38817583485E+02  0.51100000000E-03 0.  1.
         12    1    3    3    0    0  0.11474923166E+02  0.11420091288E+02  0.38463416498E+02  0.41731603796E+02  0.00000000000E+00 0. -1.
</event>
<event>
 7    1  0.3925070E-015  0.9000803E+02  0.7816164E-02  0.1186338E+00
        -11   -1    0    0    0    0  0.00000000000E+00  0.00000000000E+00  0.45593999997E+02  0.45594000000E+02  0.51100000000E-03 0. -1.
         11   -1    0    0    0    0 -0.00000000000E+00 -0.00000000000E+00 -0.45593999997E+02  0.45594000000E+02  0.51100000000E-03 0.  1.
    9900012    2    1    2    0    0 -0.15541532575E-01 -0.66273179096E+00  0.97615618429E+00  0.90008027177E+02  0.90000292336E+02 0.  0.
        -12    1    1    2    0    0  0.15541532575E-01  0.66273179096E+00 -0.97615618429E+00  0.11799728226E+01  0.00000000000E+00 0.  1.
         11    1    3    3    0    0 -0.74905407835E+01  0.28771757936E+01 -0.60512984851E+01  0.10050102258E+02  0.51100000000E-03 0. -1.
        -11    1    3    3    0    0 -0.15919084229E+02 -0.84383233291E+01 -0.30524163497E+02  0.35444986962E+02  0.51100000000E-03 0.  1.
         12    1    3    3    0    0  0.23394083480E+02  0.48984157445E+01  0.37551618167E+02  0.44512937957E+02  0.00000000000E+00 0. -1.
</event>
<event>
 7    1  0.3925070E-015  0.9000775E+02  0.7816164E-02  0.1186339E+00
        -11   -1    0    0    0    0  0.00000000000E+00  0.00000000000E+00  0.45593999997E+02  0.45594000000E+02  0.51100000000E-03 0.  1.
         11   -1    0    0    0    0 -0.00000000000E+00 -0.00000000000E+00 -0.45593999997E+02  0.45594000000E+02  0.51100000000E-03 0. -1.
    9900012    2    1    2    0    0 -0.19871677234E+00  0.11589192065E+01  0.10197154866E+00  0.90007754144E+02  0.90000015699E+02 0.  0.
        -12    1    1    2    0    0  0.19871677234E+00 -0.11589192065E+01 -0.10197154866E+00  0.11802458556E+01  0.00000000000E+00 0.  1.
         11    1    3    3    0    0  0.11925487030E+01  0.49693874732E+01 -0.72528371108E+01  0.88724647469E+01  0.51100000000E-03 0. -1.
        -11    1    3    3    0    0 -0.40079955157E+02 -0.97451482975E+01  0.78646218879E+01  0.41990748962E+02  0.51100000000E-03 0.  1.
         12    1    3    3    0    0  0.38688689682E+02  0.59346800309E+01 -0.50981322844E+00  0.39144540435E+02  0.00000000000E+00 0. -1.
</event>
<event>
 7    1  0.3925070E-015  0.9000790E+02  0.7816164E-02  0.1186339E+00
        -11   -1    0    0    0    0  0.00000000000E+00  0.00000000000E+00  0.45593999997E+02  0.45594000000E+02  0.51100000000E-03 0.  1.
         11   -1    0    0    0    0 -0.00000000000E+00 -0.00000000000E+00 -0.45593999997E+02  0.45594000000E+02  0.51100000000E-03 0. -1.
    9900012    2    1    2    0    0 -0.94116691475E-01  0.40396206487E+00 -0.11048093857E+01  0.90007895310E+02  0.90000158728E+02 0.  0.
        -12    1    1    2    0    0  0.94116691475E-01 -0.40396206487E+00  0.11048093857E+01  0.11801046904E+01  0.00000000000E+00 0.  1.
         11    1    3    3    0    0 -0.64562143616E+01 -0.11873226739E+01 -0.41918650018E+02  0.42429537572E+02  0.51100000000E-03 0. -1.
        -11    1    3    3    0    0  0.58978083988E+01  0.67815229685E+01  0.31011904364E+01  0.95073960717E+01  0.51100000000E-03 0.  1.
        -12    1    3    3    0    0  0.46428927126E+00 -0.51902382297E+01  0.37712650195E+02  0.38070961666E+02  0.00000000000E+00 0.  1.
</event>
<event>
 7    1  0.3925070E-015  0.9000776E+02  0.7816164E-02  0.1186339E+00
        -11   -1    0    0    0    0  0.00000000000E+00  0.00000000000E+00  0.45593999997E+02  0.45594000000E+02  0.51100000000E-03 0.  1.
         11   -1    0    0    0    0 -0.00000000000E+00 -0.00000000000E+00 -0.45593999997E+02  0.45594000000E+02  0.51100000000E-03 0. -1.
    9900012    2    1    2    0    0 -0.37379192365E+00 -0.11163013578E+01 -0.84342186905E-01  0.90007761580E+02  0.90000023233E+02 0.  0.
        -12    1    1    2    0    0  0.37379192365E+00  0.11163013578E+01  0.84342186905E-01  0.11802384200E+01  0.00000000000E+00 0.  1.
         11    1    3    3    0    0  0.31559131795E+02 -0.16475633852E+02 -0.20423349812E+02  0.41043130098E+02  0.51100000000E-03 0. -1.
        -11    1    3    3    0    0 -0.84652804200E+01 -0.49625907805E+01 -0.28477667944E+01  0.10217536681E+02  0.51100000000E-03 0.  1.
        -12    1    3    3    0    0 -0.23467643298E+02  0.20321923274E+02  0.23186774419E+02  0.38747094801E+02  0.00000000000E+00 0.  1.
</event>
<event>
 7    1  0.3925070E-015  0.9000767E+02  0.7816164E-02  0.1186339E+00
        -11   -1    0    0    0    0  0.00000000000E+00  0.00000000000E+00  0.45593999997E+02  0.45594000000E+02  0.51100000000E-03 0.  1.
         11   -1    0    0    0    0 -0.00000000000E+00 -0.00000000000E+00 -0.45593999997E+02  0.45594000000E+02  0.51100000000E-03 0. -1.
    9900012    2    1    2    0    0 -0.99539112011E+00 -0.49281657381E+00 -0.39938019010E+00  0.90007671150E+02  0.89999931609E+02 0.  0.
        -12    1    1    2    0    0  0.99539112011E+00  0.49281657381E+00  0.39938019010E+00  0.11803288498E+01  0.00000000000E+00 0.  1.
         11    1    3    3    0    0  0.97088902064E+01  0.11693837726E+01  0.18109401061E+01  0.99453261272E+01  0.51100000000E-03 0. -1.
        -11    1    3    3    0    0  0.17789920838E+02  0.13190839667E+02  0.28175436820E+02  0.35837616757E+02  0.51100000000E-03 0.  1.
         12    1    3    3    0    0 -0.28494202165E+02 -0.14853040014E+02 -0.30385757116E+02  0.44224728266E+02  0.00000000000E+00 0. -1.
</event>
<event>
 7    1  0.3925070E-015  0.9000771E+02  0.7816164E-02  0.1186339E+00
        -11   -1    0    0    0    0  0.00000000000E+00  0.00000000000E+00  0.45593999997E+02  0.45594000000E+02  0.51100000000E-03 0.  1.
         11   -1    0    0    0    0 -0.00000000000E+00 -0.00000000000E+00 -0.45593999997E+02  0.45594000000E+02  0.51100000000E-03 0. -1.
    9900012    2    1    2    0    0 -0.18048447298E+00  0.52475760906E+00 -0.10417031084E+01  0.90007707426E+02  0.89999968364E+02 0.  0.
        -12    1    1    2    0    0  0.18048447298E+00 -0.52475760906E+00  0.10417031084E+01  0.11802925736E+01  0.00000000000E+00 0.  1.
         11    1    3    3    0    0 -0.28184317914E+02 -0.13568083557E+02 -0.25025969831E+02  0.40059303962E+02  0.51100000000E-03 0. -1.
        -11    1    3    3    0    0  0.28351003303E+01 -0.73450220293E+01 -0.17340655644E+01  0.80618934585E+01  0.51100000000E-03 0.  1.
        -12    1    3    3    0    0  0.25168733111E+02  0.21437863195E+02  0.25718332287E+02  0.41886510005E+02  0.00000000000E+00 0.  1.
</event>
<event>
 7    1  0.3925070E-015  0.9000774E+02  0.7816164E-02  0.1186339E+00
        -11   -1    0    0    0    0  0.00000000000E+00  0.00000000000E+00  0.45593999997E+02  0.45594000000E+02  0.51100000000E-03 0.  1.
         11   -1    0    0    0    0 -0.00000000000E+00 -0.00000000000E+00 -0.45593999997E+02  0.45594000000E+02  0.51100000000E-03 0. -1.
    9900012    2    1    2    0    0  0.32910172716E+00  0.71777882601E-01 -0.11311744668E+01  0.90007739145E+02  0.90000000502E+02 0.  0.
        -12    1    1    2    0    0 -0.32910172716E+00 -0.71777882601E-01  0.11311744668E+01  0.11802608549E+01  0.00000000000E+00 0.  1.
         11    1    3    3    0    0  0.17925362972E+01 -0.23979877944E+02 -0.32310143393E+02  0.40276458372E+02  0.51100000000E-03 0. -1.
        -11    1    3    3    0    0 -0.15409390685E+01 -0.72500033909E+01  0.52144930290E+01  0.90624489070E+01  0.51100000000E-03 0.  1.
        -12    1    3    3    0    0  0.77504498447E-01  0.31301659218E+02  0.25964475898E+02  0.40668831866E+02  0.00000000000E+00 0.  1.
</event>
<event>
 7    1  0.3925070E-015  0.9000767E+02  0.7816164E-02  0.1186339E+00
        -11   -1    0    0    0    0  0.00000000000E+00  0.00000000000E+00  0.45593999997E+02  0.45594000000E+02  0.51100000000E-03 0. -1.
         11   -1    0    0    0    0 -0.00000000000E+00 -0.00000000000E+00 -0.45593999997E+02  0.45594000000E+02  0.51100000000E-03 0.  1.
    9900012    2    1    2    0    0  0.45149868991E+00  0.94368332841E+00 -0.54661331508E+00  0.90007671483E+02  0.89999931947E+02 0.  0.
        -12    1    1    2    0    0 -0.45149868991E+00 -0.94368332841E+00  0.54661331508E+00  0.11803285168E+01  0.00000000000E+00 0.  1.
         11    1    3    3    0    0  0.24703159155E+01  0.20327384232E+01 -0.10939018729E+02  0.11397219715E+02  0.51100000000E-03 0. -1.
        -11    1    3    3    0    0 -0.34145739164E+02  0.19377750216E+02  0.54078359157E+00  0.39264757145E+02  0.51100000000E-03 0.  1.
         12    1    3    3    0    0  0.32126921938E+02 -0.20466805311E+02  0.98516218221E+01  0.39345694623E+02  0.00000000000E+00 0. -1.
</event>
<event>
 7    1  0.3925070E-015  0.9000777E+02  0.7816164E-02  0.1186339E+00
        -11   -1    0    0    0    0  0.00000000000E+00  0.00000000000E+00  0.45593999997E+02  0.45594000000E+02  0.51100000000E-03 0.  1.
         11   -1    0    0    0    0 -0.00000000000E+00 -0.00000000000E+00 -0.45593999997E+02  0.45594000000E+02  0.51100000000E-03 0. -1.
    9900012    2    1    2    0    0 -0.56185255294E+00  0.80609876517E+00 -0.65380704383E+00  0.90007772411E+02  0.90000034207E+02 0.  0.
        -12    1    1    2    0    0  0.56185255294E+00 -0.80609876517E+00  0.65380704383E+00  0.11802275886E+01  0.00000000000E+00 0.  1.
         11    1    3    3    0    0  0.42043724767E+01  0.86764975409E+01  0.48813602441E-01  0.96416150373E+01  0.51100000000E-03 0. -1.
        -11    1    3    3    0    0 -0.10899570934E+02 -0.56679739465E+01  0.38609830016E+02  0.40517225341E+02  0.51100000000E-03 0.  1.
         12    1    3    3    0    0  0.61333459039E+01 -0.22024248292E+01 -0.39312450662E+02  0.39848932033E+02  0.00000000000E+00 0. -1.
</event>
<event>
 7    1  0.3925070E-015  0.9000758E+02  0.7816164E-02  0.1186339E+00
        -11   -1    0    0    0    0  0.00000000000E+00  0.00000000000E+00  0.45593999997E+02  0.45594000000E+02  0.51100000000E-03 0. -1.
         11   -1    0    0    0    0 -0.00000000000E+00 -0.00000000000E+00 -0.45593999997E+02  0.45594000000E+02  0.51100000000E-03 0.  1.
    9900012    2    1    2    0    0  0.62543075935E+00  0.69285269016E+00  0.72262404595E+00  0.90007578890E+02  0.89999838131E+02 0.  0.
        -12    1    1    2    0    0 -0.62543075935E+00 -0.69285269016E+00 -0.72262404595E+00  0.11804211099E+01  0.00000000000E+00 0.  1.
         11    1    3    3    0    0 -0.56252227235E+01 -0.95202043442E+01 -0.37759047365E+01  0.11684814003E+02  0.51100000000E-03 0. -1.
        -11    1    3    3    0    0 -0.31847715535E+02 -0.97161736648E+01  0.10492476094E+02  0.34910930528E+02  0.51100000000E-03 0.  1.
         12    1    3    3    0    0  0.38098369018E+02  0.19929230699E+02 -0.59939473113E+01  0.43411834359E+02  0.00000000000E+00 0. -1.
</event>
<event>
 7    1  0.3925070E-015  0.9000752E+02  0.7816164E-02  0.1186339E+00
        -11   -1    0    0    0    0  0.00000000000E+00  0.00000000000E+00  0.45593999997E+02  0.45594000000E+02  0.51100000000E-03 0.  1.
         11   -1    0    0    0    0 -0.00000000000E+00 -0.00000000000E+00 -0.45593999997E+02  0.45594000000E+02  0.51100000000E-03 0. -1.
    9900012    2    1    2    0    0  0.34905680716E+00 -0.59278788331E+00 -0.95932288526E+00  0.90007517672E+02  0.89999776105E+02 0.  0.
        -12    1    1    2    0    0 -0.34905680716E+00  0.59278788331E+00  0.95932288526E+00  0.11804823283E+01  0.00000000000E+00 0.  1.
         11    1    3    3    0    0 -0.19398060690E+01 -0.12911906720E+02 -0.24839314038E+01  0.13290978076E+02  0.51100000000E-03 0. -1.
        -11    1    3    3    0    0  0.38605797996E+02  0.62663929644E+01  0.62126129345E+01  0.39601412594E+02  0.51100000000E-03 0.  1.
         12    1    3    3    0    0 -0.36316935120E+02  0.60527258722E+01 -0.46880044160E+01  0.37115127002E+02  0.00000000000E+00 0. -1.
</event>
<event>
 7    1  0.3925070E-015  0.9000774E+02  0.7816164E-02  0.1186339E+00
        -11   -1    0    0    0    0  0.00000000000E+00  0.00000000000E+00  0.45593999997E+02  0.45594000000E+02  0.51100000000E-03 0.  1.
         11   -1    0    0    0    0 -0.00000000000E+00 -0.00000000000E+00 -0.45593999997E+02  0.45594000000E+02  0.51100000000E-03 0. -1.
    9900012    2    1    2    0    0 -0.59001360490E-01 -0.43660502799E+00 -0.10949422611E+01  0.90007744237E+02  0.90000005661E+02 0.  0.
        -12    1    1    2    0    0  0.59001360490E-01  0.43660502799E+00  0.10949422611E+01  0.11802557630E+01  0.00000000000E+00 0.  1.
         11    1    3    3    0    0  0.19666189379E+02  0.38792010832E+02  0.26038850196E+01  0.43570165555E+02  0.51100000000E-03 0. -1.
        -11    1    3    3    0    0 -0.32072863369E+01 -0.51461878237E+01  0.46653218815E+01  0.76508276208E+01  0.51100000000E-03 0.  1.
        -12    1    3    3    0    0 -0.16517904402E+02 -0.34082428036E+02 -0.83641491622E+01  0.38786751061E+02  0.00000000000E+00 0.  1.
</event>
<event>
 7    1  0.3925070E-015  0.9000770E+02  0.7816164E-02  0.1186339E+00
        -11   -1    0    0    0    0  0.00000000000E+00  0.00000000000E+00  0.45593999997E+02  0.45594000000E+02  0.51100000000E-03 0.  1.
         11   -1    0    0    0    0 -0.00000000000E+00 -0.00000000000E+00 -0.45593999997E+02  0.45594000000E+02  0.51100000000E-03 0. -1.
    9900012    2    1    2    0    0 -0.18285140401E+00  0.11627534479E+01 -0.87573114467E-01  0.90007703738E+02  0.89999964627E+02 0.  0.
        -12    1    1    2    0    0  0.18285140401E+00 -0.11627534479E+01  0.87573114467E-01  0.11802962623E+01  0.00000000000E+00 0.  1.
         11    1    3    3    0    0 -0.92545660061E+01  0.26094559003E+00 -0.71569007967E+00  0.92858654477E+01  0.51100000000E-03 0. -1.
        -11    1    3    3    0    0  0.55288408361E+01  0.57302539672E+01  0.40056988961E+02  0.40840742603E+02  0.51100000000E-03 0.  1.
         12    1    3    3    0    0  0.35428737660E+01 -0.48284461093E+01 -0.39428871995E+02  0.39881095687E+02  0.00000000000E+00 0. -1.
</event>
<event>
 7    1  0.3925070E-015  0.9000794E+02  0.7816164E-02  0.1186339E+00
        -11   -1    0    0    0    0  0.00000000000E+00  0.00000000000E+00  0.45593999997E+02  0.45594000000E+02  0.51100000000E-03 0.  1.
         11   -1    0    0    0    0 -0.00000000000E+00 -0.00000000000E+00 -0.45593999997E+02  0.45594000000E+02  0.51100000000E-03 0. -1.
    9900012    2    1    2    0    0  0.11102836138E+01  0.38875023571E+00  0.93162830889E-01  0.90007942475E+02  0.90000206516E+02 0.  0.
        -12    1    1    2    0    0 -0.11102836138E+01 -0.38875023571E+00 -0.93162830889E-01  0.11800575248E+01  0.00000000000E+00 0.  1.
         11    1    3    3    0    0  0.20667803594E+02  0.33915928922E+02  0.96812691793E-01  0.39717221869E+02  0.51100000000E-03 0. -1.
        -11    1    3    3    0    0  0.66335102228E+01 -0.27020316691E+01 -0.60701194225E+01  0.93888648452E+01  0.51100000000E-03 0.  1.
        -12    1    3    3    0    0 -0.26191030203E+02 -0.30825147017E+02  0.60664695616E+01  0.40901855761E+02  0.00000000000E+00 0.  1.
</event>
<event>
 7    1  0.3925070E-015  0.9000777E+02  0.7816164E-02  0.1186339E+00
        -11   -1    0    0    0    0  0.00000000000E+00  0.00000000000E+00  0.45593999997E+02  0.45594000000E+02  0.51100000000E-03 0.  1.
         11   -1    0    0    0    0 -0.00000000000E+00 -0.00000000000E+00 -0.45593999997E+02  0.45594000000E+02  0.51100000000E-03 0. -1.
    9900012    2    1    2    0    0 -0.10146297157E+01  0.79454492098E-01 -0.59761908198E+00  0.90007773308E+02  0.90000035116E+02 0.  0.
        -12    1    1    2    0    0  0.10146297157E+01 -0.79454492098E-01  0.59761908198E+00  0.11802266915E+01  0.00000000000E+00 0.  1.
         11    1    3    3    0    0 -0.39763045371E+01 -0.44005400454E+01 -0.35078100128E+02  0.35575959008E+02  0.51100000000E-03 0. -1.
        -11    1    3    3    0    0  0.43332161164E+01  0.13391825282E+01 -0.93898478254E+01  0.10427819245E+02  0.51100000000E-03 0.  1.
        -12    1    3    3    0    0 -0.13715412949E+01  0.31408120093E+01  0.43870328871E+02  0.44003995056E+02  0.00000000000E+00 0.  1.
</event>
<event>
 7    1  0.3925070E-015  0.9000708E+02  0.7816164E-02  0.1186340E+00
        -11   -1    0    0    0    0  0.00000000000E+00  0.00000000000E+00  0.45593999997E+02  0.45594000000E+02  0.51100000000E-03 0.  1.
         11   -1    0    0    0    0 -0.00000000000E+00 -0.00000000000E+00 -0.45593999997E+02  0.45594000000E+02  0.51100000000E-03 0. -1.
    9900012    2    1    2    0    0  0.15954553086E+00 -0.68766535188E+00 -0.94670018143E+00  0.90007076782E+02  0.89999329393E+02 0.  0.
        -12    1    1    2    0    0 -0.15954553086E+00  0.68766535188E+00  0.94670018143E+00  0.11809232177E+01  0.00000000000E+00 0.  1.
         11    1    3    3    0    0  0.11472284307E+01 -0.61058777111E+01 -0.78244526111E+01  0.99909926743E+01  0.51100000000E-03 0. -1.
        -11    1    3    3    0    0  0.20523350646E+02  0.25407918752E+02 -0.21561827263E+02  0.39136717443E+02  0.51100000000E-03 0.  1.
         12    1    3    3    0    0 -0.21511033546E+02 -0.19989706392E+02  0.28439579692E+02  0.40879366665E+02  0.00000000000E+00 0. -1.
</event>
<event>
 7    1  0.3925070E-015  0.9000776E+02  0.7816164E-02  0.1186339E+00
        -11   -1    0    0    0    0  0.00000000000E+00  0.00000000000E+00  0.45593999997E+02  0.45594000000E+02  0.51100000000E-03 0.  1.
         11   -1    0    0    0    0 -0.00000000000E+00 -0.00000000000E+00 -0.45593999997E+02  0.45594000000E+02  0.51100000000E-03 0. -1.
    9900012    2    1    2    0    0  0.59840143430E+00 -0.62364730108E+00 -0.80370274920E+00  0.90007763438E+02  0.90000025116E+02 0.  0.
        -12    1    1    2    0    0 -0.59840143430E+00  0.62364730108E+00  0.80370274920E+00  0.11802365618E+01  0.00000000000E+00 0.  1.
         11    1    3    3    0    0 -0.12715134487E+02 -0.32545601807E+02  0.13168452894E+02  0.37340313254E+02  0.51100000000E-03 0. -1.
        -11    1    3    3    0    0 -0.85797937443E+01 -0.32763700716E+01 -0.10263305805E+01  0.92412562059E+01  0.51100000000E-03 0.  1.
        -12    1    3    3    0    0  0.21893329665E+02  0.35198324578E+02 -0.12945825063E+02  0.43426193979E+02  0.00000000000E+00 0.  1.
</event>
<event>
 7    1  0.3925070E-015  0.9000807E+02  0.7816164E-02  0.1186338E+00
        -11   -1    0    0    0    0  0.00000000000E+00  0.00000000000E+00  0.45593999997E+02  0.45594000000E+02  0.51100000000E-03 0. -1.
         11   -1    0    0    0    0 -0.00000000000E+00 -0.00000000000E+00 -0.45593999997E+02  0.45594000000E+02  0.51100000000E-03 0.  1.
    9900012    2    1    2    0    0 -0.65584296408E+00  0.38836079862E+00  0.90071751828E+00  0.90008065192E+02  0.90000330852E+02 0.  0.
        -12    1    1    2    0    0  0.65584296408E+00 -0.38836079862E+00 -0.90071751828E+00  0.11799348080E+01  0.00000000000E+00 0.  1.
         11    1    3    3    0    0 -0.28427409872E+02  0.41524466357E+01 -0.20935767849E+02  0.35548091662E+02  0.51100000000E-03 0. -1.
        -11    1    3    3    0    0 -0.35425047320E+01  0.29289108800E+01 -0.89362293921E+01  0.10049082283E+02  0.51100000000E-03 0.  1.
        -12    1    3    3    0    0  0.31314071640E+02 -0.66929967171E+01  0.30772714759E+02  0.44410891247E+02  0.00000000000E+00 0.  1.
</event>
<event>
 7    1  0.3925070E-015  0.9000776E+02  0.7816164E-02  0.1186339E+00
        -11   -1    0    0    0    0  0.00000000000E+00  0.00000000000E+00  0.45593999997E+02  0.45594000000E+02  0.51100000000E-03 0.  1.
         11   -1    0    0    0    0 -0.00000000000E+00 -0.00000000000E+00 -0.45593999997E+02  0.45594000000E+02  0.51100000000E-03 0. -1.
    9900012    2    1    2    0    0  0.30049840912E+00  0.16869982300E+00 -0.11288099741E+01  0.90007758126E+02  0.90000019733E+02 0.  0.
        -12    1    1    2    0    0 -0.30049840912E+00 -0.16869982300E+00  0.11288099741E+01  0.11802418743E+01  0.00000000000E+00 0.  1.
         11    1    3    3    0    0  0.64926252333E+01  0.12793992342E+02  0.53455011286E+01  0.15310610865E+02  0.51100000000E-03 0. -1.
        -11    1    3    3    0    0  0.10477690725E+02 -0.77196636955E+01  0.30873707481E+02  0.33504641833E+02  0.51100000000E-03 0.  1.
         12    1    3    3    0    0 -0.16669817549E+02 -0.49056288237E+01 -0.37348018584E+02  0.41192505428E+02  0.00000000000E+00 0. -1.
</event>
<event>
 7    1  0.3925070E-015  0.9000780E+02  0.7816164E-02  0.1186339E+00
        -11   -1    0    0    0    0  0.00000000000E+00  0.00000000000E+00  0.45593999997E+02  0.45594000000E+02  0.51100000000E-03 0. -1.
         11   -1    0    0    0    0 -0.00000000000E+00 -0.00000000000E+00 -0.45593999997E+02  0.45594000000E+02  0.51100000000E-03 0.  1.
    9900012    2    1    2    0    0 -0.83963835250E+00 -0.68338580318E+00  0.46996147873E+00  0.90007799801E+02  0.90000061958E+02 0.  0.
        -12    1    1    2    0    0  0.83963835250E+00  0.68338580318E+00 -0.46996147873E+00  0.11802001993E+01  0.00000000000E+00 0.  1.
         11    1    3    3    0    0  0.17471848558E+02  0.19143096164E+01  0.20398375324E+02  0.26926265792E+02  0.51100000000E-03 0. -1.
        -11    1    3    3    0    0 -0.11019736736E+02  0.18254827751E+01  0.19645571021E+02  0.22599014273E+02  0.51100000000E-03 0.  1.
        -12    1    3    3    0    0 -0.72917501742E+01 -0.44231781947E+01 -0.39573984867E+02  0.40482519736E+02  0.00000000000E+00 0.  1.
</event>
<event>
 7    1  0.3925070E-015  0.9000766E+02  0.7816164E-02  0.1186339E+00
        -11   -1    0    0    0    0  0.00000000000E+00  0.00000000000E+00  0.45593999997E+02  0.45594000000E+02  0.51100000000E-03 0.  1.
         11   -1    0    0    0    0 -0.00000000000E+00 -0.00000000000E+00 -0.45593999997E+02  0.45594000000E+02  0.51100000000E-03 0. -1.
    9900012    2    1    2    0    0 -0.66789455431E-01  0.11680863332E+01 -0.15590910209E+00  0.90007663539E+02  0.89999923898E+02 0.  0.
        -12    1    1    2    0    0  0.66789455431E-01 -0.11680863332E+01  0.15590910209E+00  0.11803364610E+01  0.00000000000E+00 0.  1.
         11    1    3    3    0    0  0.15253190719E+02 -0.30304809593E+02  0.85812030230E+01  0.34995404801E+02  0.51100000000E-03 0. -1.
        -11    1    3    3    0    0  0.61865005540E+01 -0.70207355130E+01  0.21341190362E+01  0.95978112385E+01  0.51100000000E-03 0.  1.
        -12    1    3    3    0    0 -0.21506480729E+02  0.38493631439E+02 -0.10871231161E+02  0.45414447500E+02  0.00000000000E+00 0.  1.
</event>
<event>
 7    1  0.3925070E-015  0.9000781E+02  0.7816164E-02  0.1186339E+00
        -11   -1    0    0    0    0  0.00000000000E+00  0.00000000000E+00  0.45593999997E+02  0.45594000000E+02  0.51100000000E-03 0.  1.
         11   -1    0    0    0    0 -0.00000000000E+00 -0.00000000000E+00 -0.45593999997E+02  0.45594000000E+02  0.51100000000E-03 0. -1.
    9900012    2    1    2    0    0 -0.77655923291E+00 -0.43287982895E+00 -0.77615917808E+00  0.90007808381E+02  0.90000070651E+02 0.  0.
        -12    1    1    2    0    0  0.77655923291E+00  0.43287982895E+00  0.77615917808E+00  0.11801916193E+01  0.00000000000E+00 0.  1.
         11    1    3    3    0    0  0.26835587744E+00 -0.26756637173E+02 -0.33766542631E+02  0.43083280390E+02  0.51100000000E-03 0. -1.
        -11    1    3    3    0    0 -0.70755675998E+01  0.86164178785E+00  0.84004040771E+01  0.11016935706E+02  0.51100000000E-03 0.  1.
        -12    1    3    3    0    0  0.60306524895E+01  0.25462115556E+02  0.24589979375E+02  0.35907592285E+02  0.00000000000E+00 0.  1.
</event>
<event>
 7    1  0.3925070E-015  0.9000764E+02  0.7816164E-02  0.1186339E+00
        -11   -1    0    0    0    0  0.00000000000E+00  0.00000000000E+00  0.45593999997E+02  0.45594000000E+02  0.51100000000E-03 0. -1.
         11   -1    0    0    0    0 -0.00000000000E+00 -0.00000000000E+00 -0.45593999997E+02  0.45594000000E+02  0.51100000000E-03 0.  1.
    9900012    2    1    2    0    0 -0.94769756290E+00 -0.56409746953E+00 -0.42061259829E+00  0.90007639215E+02  0.89999899252E+02 0.  0.
        -12    1    1    2    0    0  0.94769756290E+00  0.56409746953E+00  0.42061259829E+00  0.11803607854E+01  0.00000000000E+00 0.  1.
         11    1    3    3    0    0 -0.25357303105E+02  0.16837613719E+02 -0.13974289857E+02  0.33492966930E+02  0.51100000000E-03 0. -1.
        -11    1    3    3    0    0  0.54146327157E+01  0.15406028073E+02  0.22949921403E+00  0.16331461005E+02  0.51100000000E-03 0.  1.
        -12    1    3    3    0    0  0.18994972827E+02 -0.32807739262E+02  0.13324178044E+02  0.40183211279E+02  0.00000000000E+00 0.  1.
</event>
<event>
 7    1  0.3925070E-015  0.9000775E+02  0.7816164E-02  0.1186339E+00
        -11   -1    0    0    0    0  0.00000000000E+00  0.00000000000E+00  0.45593999997E+02  0.45594000000E+02  0.51100000000E-03 0. -1.
         11   -1    0    0    0    0 -0.00000000000E+00 -0.00000000000E+00 -0.45593999997E+02  0.45594000000E+02  0.51100000000E-03 0.  1.
    9900012    2    1    2    0    0 -0.89254433230E+00 -0.48862521522E+00 -0.59798713453E+00  0.90007754856E+02  0.90000016420E+02 0.  0.
        -12    1    1    2    0    0  0.89254433230E+00  0.48862521522E+00  0.59798713453E+00  0.11802451437E+01  0.00000000000E+00 0.  1.
         11    1    3    3    0    0 -0.33726703292E+02 -0.16680870221E+02 -0.16831050865E+02  0.41219245745E+02  0.51100000000E-03 0. -1.
        -11    1    3    3    0    0  0.14225693809E+01 -0.31650414483E+01  0.10985062926E+02  0.11520104113E+02  0.51100000000E-03 0.  1.
        -12    1    3    3    0    0  0.31411589579E+02  0.19357286454E+02  0.52480008040E+01  0.37268404999E+02  0.00000000000E+00 0.  1.
</event>
<event>
 7    1  0.3925070E-015  0.9000717E+02  0.7816164E-02  0.1186340E+00
        -11   -1    0    0    0    0  0.00000000000E+00  0.00000000000E+00  0.45593999997E+02  0.45594000000E+02  0.51100000000E-03 0.  1.
         11   -1    0    0    0    0 -0.00000000000E+00 -0.00000000000E+00 -0.45593999997E+02  0.45594000000E+02  0.51100000000E-03 0. -1.
    9900012    2    1    2    0    0  0.42486606599E+00 -0.77110905003E+00 -0.78691458558E+00  0.90007171941E+02  0.89999425808E+02 0.  0.
        -12    1    1    2    0    0 -0.42486606599E+00  0.77110905003E+00  0.78691458558E+00  0.11808280595E+01  0.00000000000E+00 0.  1.
         11    1    3    3    0    0 -0.10215383254E+02 -0.11873099902E+02 -0.34149707167E+02  0.37570294864E+02  0.51100000000E-03 0. -1.
        -11    1    3    3    0    0 -0.70740759091E+01 -0.83121328542E+01  0.13193706621E+01  0.10994309517E+02  0.51100000000E-03 0.  1.
        -12    1    3    3    0    0  0.17714325229E+02  0.19414123706E+02  0.32043421920E+02  0.41442567559E+02  0.00000000000E+00 0.  1.
</event>
<event>
 7    1  0.3925070E-015  0.9000771E+02  0.7816164E-02  0.1186339E+00
        -11   -1    0    0    0    0  0.00000000000E+00  0.00000000000E+00  0.45593999997E+02  0.45594000000E+02  0.51100000000E-03 0.  1.
         11   -1    0    0    0    0 -0.00000000000E+00 -0.00000000000E+00 -0.45593999997E+02  0.45594000000E+02  0.51100000000E-03 0. -1.
    9900012    2    1    2    0    0 -0.32815225082E+00 -0.79511458933E+00  0.80821090269E+00  0.90007705133E+02  0.89999966041E+02 0.  0.
        -12    1    1    2    0    0  0.32815225082E+00  0.79511458933E+00 -0.80821090269E+00  0.11802948670E+01  0.00000000000E+00 0.  1.
         11    1    3    3    0    0 -0.27428163687E+02  0.19277621109E+02  0.23030441645E+02  0.40673481305E+02  0.51100000000E-03 0. -1.
        -11    1    3    3    0    0  0.43333738688E+01 -0.26291710692E+01  0.68330226600E+01  0.85076946661E+01  0.51100000000E-03 0.  1.
        -12    1    3    3    0    0  0.22766637568E+02 -0.17443564629E+02 -0.29055253403E+02  0.40826529162E+02  0.00000000000E+00 0.  1.
</event>
<event>
 7    1  0.3925070E-015  0.9000748E+02  0.7816164E-02  0.1186340E+00
        -11   -1    0    0    0    0  0.00000000000E+00  0.00000000000E+00  0.45593999997E+02  0.45594000000E+02  0.51100000000E-03 0. -1.
         11   -1    0    0    0    0 -0.00000000000E+00 -0.00000000000E+00 -0.45593999997E+02  0.45594000000E+02  0.51100000000E-03 0.  1.
    9900012    2    1    2    0    0  0.26409153033E+00  0.11353634340E+01  0.18664374580E+00  0.90007478780E+02  0.89999736699E+02 0.  0.
        -12    1    1    2    0    0 -0.26409153033E+00 -0.11353634340E+01 -0.18664374580E+00  0.11805212203E+01  0.00000000000E+00 0.  1.
         11    1    3    3    0    0  0.22431557705E+02  0.30636237545E+02  0.11581251659E+02  0.39697345280E+02  0.51100000000E-03 0. -1.
        -11    1    3    3    0    0  0.69274388321E+01 -0.56197564312E+01 -0.88781645688E+01  0.12585423215E+02  0.51100000000E-03 0.  1.
        -12    1    3    3    0    0 -0.29094905007E+02 -0.23881117680E+02 -0.25164433445E+01  0.37724710285E+02  0.00000000000E+00 0.  1.
</event>
<event>
 7    1  0.3925070E-015  0.9000754E+02  0.7816164E-02  0.1186339E+00
        -11   -1    0    0    0    0  0.00000000000E+00  0.00000000000E+00  0.45593999997E+02  0.45594000000E+02  0.51100000000E-03 0. -1.
         11   -1    0    0    0    0 -0.00000000000E+00 -0.00000000000E+00 -0.45593999997E+02  0.45594000000E+02  0.51100000000E-03 0.  1.
    9900012    2    1    2    0    0 -0.27514213220E+00 -0.71739735113E+00  0.89617402174E+00  0.90007538213E+02  0.89999796918E+02 0.  0.
        -12    1    1    2    0    0  0.27514213220E+00  0.71739735113E+00 -0.89617402174E+00  0.11804617866E+01  0.00000000000E+00 0.  1.
         11    1    3    3    0    0  0.19422834820E+02  0.30264469467E+02  0.17296199483E+02  0.39904174486E+02  0.51100000000E-03 0. -1.
        -11    1    3    3    0    0  0.42318999351E+01  0.18109540874E+01 -0.70909999828E+01  0.84540412102E+01  0.51100000000E-03 0.  1.
        -12    1    3    3    0    0 -0.23929876887E+02 -0.32792820906E+02 -0.93090254789E+01  0.41649322517E+02  0.00000000000E+00 0.  1.
</event>
<event>
 7    1  0.3925070E-015  0.9000788E+02  0.7816164E-02  0.1186339E+00
        -11   -1    0    0    0    0  0.00000000000E+00  0.00000000000E+00  0.45593999997E+02  0.45594000000E+02  0.51100000000E-03 0. -1.
         11   -1    0    0    0    0 -0.00000000000E+00 -0.00000000000E+00 -0.45593999997E+02  0.45594000000E+02  0.51100000000E-03 0.  1.
    9900012    2    1    2    0    0 -0.31751517042E+00  0.23960049178E+00  0.11110661479E+01  0.90007876166E+02  0.90000139331E+02 0.  0.
        -12    1    1    2    0    0  0.31751517042E+00 -0.23960049178E+00 -0.11110661479E+01  0.11801238342E+01  0.00000000000E+00 0.  1.
         11    1    3    3    0    0 -0.92922086844E+01  0.26639673334E+01  0.20068334081E+00  0.96686161498E+01  0.51100000000E-03 0. -1.
        -11    1    3    3    0    0  0.23328818979E+02  0.22367505779E+02 -0.25659699937E+02  0.41266927568E+02  0.51100000000E-03 0.  1.
         12    1    3    3    0    0 -0.14354125465E+02 -0.24791872621E+02  0.26570082744E+02  0.39072332448E+02  0.00000000000E+00 0. -1.
</event>
<event>
 7    1  0.4201303E-015  0.9000771E+02  0.7816164E-02  0.1186339E+00
        -11   -1    0    0    0    0  0.00000000000E+00  0.00000000000E+00  0.45593999997E+02  0.45594000000E+02  0.51100000000E-03 0.  1.
         11   -1    0    0    0    0 -0.00000000000E+00 -0.00000000000E+00 -0.45593999997E+02  0.45594000000E+02  0.51100000000E-03 0. -1.
    9900012    2    1    2    0    0  0.30012753673E+00  0.10463713550E+01 -0.45619986138E+00  0.90007708568E+02  0.89999969521E+02 0.  0.
        -12    1    1    2    0    0 -0.30012753673E+00 -0.10463713550E+01  0.45619986138E+00  0.11802914320E+01  0.00000000000E+00 0.  1.
         11    1    3    3    0    0 -0.70255614638E+01 -0.12076020173E+02 -0.35049139494E+02  0.37731034397E+02  0.51100000000E-03 0. -1.
        -11    1    3    3    0    0  0.48923239716E+01 -0.62609629751E+01 -0.40930552490E+01  0.89379859449E+01  0.51100000000E-03 0.  1.
        -12    1    3    3    0    0  0.24333650289E+01  0.19383354504E+02  0.38685994882E+02  0.43338688226E+02  0.00000000000E+00 0.  1.
</event>
<event>
 7    1  0.3925070E-015  0.9000773E+02  0.7816164E-02  0.1186339E+00
        -11   -1    0    0    0    0  0.00000000000E+00  0.00000000000E+00  0.45593999997E+02  0.45594000000E+02  0.51100000000E-03 0.  1.
         11   -1    0    0    0    0 -0.00000000000E+00 -0.00000000000E+00 -0.45593999997E+02  0.45594000000E+02  0.51100000000E-03 0. -1.
    9900012    2    1    2    0    0 -0.89412667767E+00 -0.67553616124E+00  0.37045182297E+00  0.90007726229E+02  0.89999987415E+02 0.  0.
        -12    1    1    2    0    0  0.89412667767E+00  0.67553616124E+00 -0.37045182297E+00  0.11802737708E+01  0.00000000000E+00 0.  1.
         11    1    3    3    0    0  0.12516001426E+02  0.26407493538E+02 -0.20471979496E+02  0.35680638326E+02  0.51100000000E-03 0. -1.
        -11    1    3    3    0    0  0.44086147480E+01  0.78946164127E+00 -0.88216917490E+01  0.98935018702E+01  0.51100000000E-03 0.  1.
        -12    1    3    3    0    0 -0.17818742851E+02 -0.27872491340E+02  0.29664123068E+02  0.44433586033E+02  0.00000000000E+00 0.  1.
</event>
<event>
 7    1  0.3925070E-015  0.9000773E+02  0.7816164E-02  0.1186339E+00
        -11   -1    0    0    0    0  0.00000000000E+00  0.00000000000E+00  0.45593999997E+02  0.45594000000E+02  0.51100000000E-03 0. -1.
         11   -1    0    0    0    0 -0.00000000000E+00 -0.00000000000E+00 -0.45593999997E+02  0.45594000000E+02  0.51100000000E-03 0.  1.
    9900012    2    1    2    0    0  0.10819090532E+01 -0.42493547268E+00  0.20477806551E+00  0.90007732483E+02  0.89999993752E+02 0.  0.
        -12    1    1    2    0    0 -0.10819090532E+01  0.42493547268E+00 -0.20477806551E+00  0.11802675169E+01  0.00000000000E+00 0.  1.
         11    1    3    3    0    0 -0.75702020217E+01  0.43443465414E+01 -0.69251972599E+01  0.11141798009E+02  0.51100000000E-03 0. -1.
        -11    1    3    3    0    0 -0.19217632442E+02 -0.13516708167E+02 -0.25768074002E+02  0.34871369838E+02  0.51100000000E-03 0.  1.
         12    1    3    3    0    0  0.27869743517E+02  0.87474261531E+01  0.32898049327E+02  0.43994564636E+02  0.00000000000E+00 0. -1.
</event>
<event>
 7    1  0.3925070E-015  0.9000771E+02  0.7816164E-02  0.1186339E+00
        -11   -1    0    0    0    0  0.00000000000E+00  0.00000000000E+00  0.45593999997E+02  0.45594000000E+02  0.51100000000E-03 0. -1.
         11   -1    0    0    0    0 -0.00000000000E+00 -0.00000000000E+00 -0.45593999997E+02  0.45594000000E+02  0.51100000000E-03 0.  1.
    9900012    2    1    2    0    0 -0.97179556966E+00  0.60878802239E+00  0.27942761390E+00  0.90007707970E+02  0.89999968915E+02 0.  0.
        -12    1    1    2    0    0  0.97179556966E+00 -0.60878802239E+00 -0.27942761390E+00  0.11802920303E+01  0.00000000000E+00 0.  1.
         11    1    3    3    0    0 -0.11081942127E+02  0.98302528727E+01  0.36931634586E+02  0.39791820093E+02  0.51100000000E-03 0. -1.
        -11    1    3    3    0    0  0.75764826011E+01 -0.74586976090E+01  0.25166539518E+01  0.10925603233E+02  0.51100000000E-03 0.  1.
        -12    1    3    3    0    0  0.25336639564E+01 -0.17627672413E+01 -0.39168860923E+02  0.39290284644E+02  0.00000000000E+00 0.  1.
</event>
<event>
 7    1  0.3925070E-015  0.9000791E+02  0.7816164E-02  0.1186339E+00
        -11   -1    0    0    0    0  0.00000000000E+00  0.00000000000E+00  0.45593999997E+02  0.45594000000E+02  0.51100000000E-03 0. -1.
         11   -1    0    0    0    0 -0.00000000000E+00 -0.00000000000E+00 -0.45593999997E+02  0.45594000000E+02  0.51100000000E-03 0.  1.
    9900012    2    1    2    0    0  0.25031249365E+00 -0.60832541827E-01  0.11516292489E+01  0.90007912347E+02  0.90000175989E+02 0.  0.
        -12    1    1    2    0    0 -0.25031249365E+00  0.60832541827E-01 -0.11516292489E+01  0.11800876534E+01  0.00000000000E+00 0.  1.
         11    1    3    3    0    0  0.91004585763E+01 -0.27123567165E+00  0.22372007127E+01  0.93753390541E+01  0.51100000000E-03 0. -1.
        -11    1    3    3    0    0  0.10864774874E+02 -0.10705434043E+02 -0.35988203649E+02  0.39087088063E+02  0.51100000000E-03 0.  1.
         12    1    3    3    0    0 -0.19714920956E+02  0.10915837173E+02  0.34902632185E+02  0.41545485230E+02  0.00000000000E+00 0. -1.
</event>
<event>
 7    1  0.3925070E-015  0.9000786E+02  0.7816164E-02  0.1186339E+00
        -11   -1    0    0    0    0  0.00000000000E+00  0.00000000000E+00  0.45593999997E+02  0.45594000000E+02  0.51100000000E-03 0.  1.
         11   -1    0    0    0    0 -0.00000000000E+00 -0.00000000000E+00 -0.45593999997E+02  0.45594000000E+02  0.51100000000E-03 0. -1.
    9900012    2    1    2    0    0  0.90660916319E+00  0.55115954242E+00 -0.51673442898E+00  0.90007859548E+02  0.90000122494E+02 0.  0.
        -12    1    1    2    0    0 -0.90660916319E+00 -0.55115954242E+00  0.51673442898E+00  0.11801404518E+01  0.00000000000E+00 0.  1.
         11    1    3    3    0    0  0.34528777093E+02 -0.23378624299E+02  0.11865008315E+01  0.41715756089E+02  0.51100000000E-03 0. -1.
        -11    1    3    3    0    0 -0.74235696956E+00 -0.46417079954E+01 -0.29850327273E+00  0.47101646946E+01  0.51100000000E-03 0.  1.
        -12    1    3    3    0    0 -0.32879810960E+02  0.28571491836E+02 -0.14047319877E+01  0.43581938764E+02  0.00000000000E+00 0.  1.
</event>
<event>
 7    1  0.3925070E-015  0.9000772E+02  0.7816164E-02  0.1186339E+00
        -11   -1    0    0    0    0  0.00000000000E+00  0.00000000000E+00  0.45593999997E+02  0.45594000000E+02  0.51100000000E-03 0. -1.
         11   -1    0    0    0    0 -0.00000000000E+00 -0.00000000000E+00 -0.45593999997E+02  0.45594000000E+02  0.51100000000E-03 0.  1.
    9900012    2    1    2    0    0 -0.12025337512E+00 -0.10944115466E+01 -0.42526787851E+00  0.90007724491E+02  0.89999985655E+02 0.  0.
        -12    1    1    2    0    0  0.12025337512E+00  0.10944115466E+01  0.42526787851E+00  0.11802755086E+01  0.00000000000E+00 0.  1.
         11    1    3    3    0    0  0.15021593790E+01 -0.84488641275E+01 -0.49141779874E+01  0.98888287172E+01  0.51100000000E-03 0. -1.
        -11    1    3    3    0    0  0.44314416296E+01  0.13566369633E+02 -0.35992422437E+02  0.38718710375E+02  0.51100000000E-03 0.  1.
         12    1    3    3    0    0 -0.60538543837E+01 -0.62119170519E+01  0.40481332546E+02  0.41400185399E+02  0.00000000000E+00 0. -1.
</event>
<event>
 7    1  0.3925070E-015  0.9000780E+02  0.7816164E-02  0.1186339E+00
        -11   -1    0    0    0    0  0.00000000000E+00  0.00000000000E+00  0.45593999997E+02  0.45594000000E+02  0.51100000000E-03 0.  1.
         11   -1    0    0    0    0 -0.00000000000E+00 -0.00000000000E+00 -0.45593999997E+02  0.45594000000E+02  0.51100000000E-03 0. -1.
    9900012    2    1    2    0    0  0.55928657785E+00  0.70666575064E+00 -0.76203311124E+00  0.90007799838E+02  0.90000061996E+02 0.  0.
        -12    1    1    2    0    0 -0.55928657785E+00 -0.70666575064E+00  0.76203311124E+00  0.11802001618E+01  0.00000000000E+00 0.  1.
         11    1    3    3    0    0  0.21522477254E+02 -0.28012339218E+02  0.13066770357E+02  0.37664952721E+02  0.51100000000E-03 0. -1.
        -11    1    3    3    0    0  0.75768013747E+01 -0.13015508834E+01 -0.69305451561E+01  0.10350575356E+02  0.51100000000E-03 0.  1.
        -12    1    3    3    0    0 -0.28539992051E+02  0.30020555852E+02 -0.68982583124E+01  0.41992271762E+02  0.00000000000E+00 0.  1.
</event>
<event>
 7    1  0.3925070E-015  0.9000769E+02  0.7816164E-02  0.1186339E+00
        -11   -1    0    0    0    0  0.00000000000E+00  0.00000000000E+00  0.45593999997E+02  0.45594000000E+02  0.51100000000E-03 0. -1.
         11   -1    0    0    0    0 -0.00000000000E+00 -0.00000000000E+00 -0.45593999997E+02  0.45594000000E+02  0.51100000000E-03 0.  1.
    9900012    2    1    2    0    0 -0.95923023042E+00  0.67939788818E+00  0.10693785039E+00  0.90007686555E+02  0.89999947217E+02 0.  0.
        -12    1    1    2    0    0  0.95923023042E+00 -0.67939788818E+00 -0.10693785039E+00  0.11803134453E+01  0.00000000000E+00 0.  1.
         11    1    3    3    0    0 -0.35626873996E+02 -0.12428791658E+02 -0.70124268183E+01  0.38378680839E+02  0.51100000000E-03 0. -1.
        -11    1    3    3    0    0 -0.71334996027E+01  0.17110449371E+01  0.35656539823E+01  0.81564931153E+01  0.51100000000E-03 0.  1.
        -12    1    3    3    0    0  0.41801143368E+02  0.11397144609E+02  0.35537106864E+01  0.43472512600E+02  0.00000000000E+00 0.  1.
</event>
<event>
 7    1  0.3925070E-015  0.9000775E+02  0.7816164E-02  0.1186339E+00
        -11   -1    0    0    0    0  0.00000000000E+00  0.00000000000E+00  0.45593999997E+02  0.45594000000E+02  0.51100000000E-03 0.  1.
         11   -1    0    0    0    0 -0.00000000000E+00 -0.00000000000E+00 -0.45593999997E+02  0.45594000000E+02  0.51100000000E-03 0. -1.
    9900012    2    1    2    0    0  0.10158303175E+01  0.45388857455E+00  0.39378626776E+00  0.90007748460E+02  0.90000009940E+02 0.  0.
        -12    1    1    2    0    0 -0.10158303175E+01 -0.45388857455E+00 -0.39378626776E+00  0.11802515396E+01  0.00000000000E+00 0.  1.
         11    1    3    3    0    0 -0.26364907495E+01 -0.64921193869E+01 -0.88394538568E+00  0.70625814907E+01  0.51100000000E-03 0. -1.
        -11    1    3    3    0    0  0.17370251795E+02 -0.25504009266E+02  0.25633387383E+02  0.40115466906E+02  0.51100000000E-03 0.  1.
         12    1    3    3    0    0 -0.13717930728E+02  0.32450017228E+02 -0.24355655730E+02  0.42829700064E+02  0.00000000000E+00 0. -1.
</event>
<event>
 7    1  0.3925070E-015  0.9000770E+02  0.7816164E-02  0.1186339E+00
        -11   -1    0    0    0    0  0.00000000000E+00  0.00000000000E+00  0.45593999997E+02  0.45594000000E+02  0.51100000000E-03 0.  1.
         11   -1    0    0    0    0 -0.00000000000E+00 -0.00000000000E+00 -0.45593999997E+02  0.45594000000E+02  0.51100000000E-03 0. -1.
    9900012    2    1    2    0    0 -0.70221641577E-01 -0.11774297391E+01 -0.42749454190E-01  0.90007703687E+02  0.89999964576E+02 0.  0.
        -12    1    1    2    0    0  0.70221641577E-01  0.11774297391E+01  0.42749454190E-01  0.11802963125E+01  0.00000000000E+00 0.  1.
         11    1    3    3    0    0 -0.95995168182E+01  0.13995502642E+02 -0.35907472583E+02  0.39716135322E+02  0.51100000000E-03 0. -1.
        -11    1    3    3    0    0 -0.82224568190E+01 -0.16760482266E+01  0.40333379719E+00  0.84012268277E+01  0.51100000000E-03 0.  1.
        -12    1    3    3    0    0  0.17751751996E+02 -0.13496884155E+02  0.35461389332E+02  0.41890341538E+02  0.00000000000E+00 0.  1.
</event>
<event>
 7    1  0.3925070E-015  0.9000767E+02  0.7816164E-02  0.1186339E+00
        -11   -1    0    0    0    0  0.00000000000E+00  0.00000000000E+00  0.45593999997E+02  0.45594000000E+02  0.51100000000E-03 0.  1.
         11   -1    0    0    0    0 -0.00000000000E+00 -0.00000000000E+00 -0.45593999997E+02  0.45594000000E+02  0.51100000000E-03 0. -1.
    9900012    2    1    2    0    0 -0.90495297568E+00 -0.60685731249E+00 -0.45384075860E+00  0.90007666522E+02  0.89999926920E+02 0.  0.
        -12    1    1    2    0    0  0.90495297568E+00  0.60685731249E+00  0.45384075860E+00  0.11803334783E+01  0.00000000000E+00 0.  1.
         11    1    3    3    0    0 -0.53111380236E+01  0.76406245300E+01  0.23665895005E+00  0.93082403296E+01  0.51100000000E-03 0. -1.
        -11    1    3    3    0    0 -0.91543655160E+01 -0.40591030996E+02  0.12155369079E+02  0.43349592881E+02  0.51100000000E-03 0.  1.
         12    1    3    3    0    0  0.13560550564E+02  0.32343549153E+02 -0.12845868788E+02  0.37349833311E+02  0.00000000000E+00 0. -1.
</event>
<event>
 7    1  0.3925070E-015  0.9000777E+02  0.7816164E-02  0.1186339E+00
        -11   -1    0    0    0    0  0.00000000000E+00  0.00000000000E+00  0.45593999997E+02  0.45594000000E+02  0.51100000000E-03 0.  1.
         11   -1    0    0    0    0 -0.00000000000E+00 -0.00000000000E+00 -0.45593999997E+02  0.45594000000E+02  0.51100000000E-03 0. -1.
    9900012    2    1    2    0    0 -0.11375577764E+01  0.85961341879E-02 -0.31438186254E+00  0.90007768013E+02  0.90000029751E+02 0.  0.
        -12    1    1    2    0    0  0.11375577764E+01 -0.85961341879E-02  0.31438186254E+00  0.11802319872E+01  0.00000000000E+00 0.  1.
         11    1    3    3    0    0 -0.89895659908E+00 -0.90874325946E+01  0.29100837289E+01  0.95842653186E+01  0.51100000000E-03 0. -1.
        -11    1    3    3    0    0 -0.12556749806E+02 -0.26427661563E+01  0.35703364426E+02  0.37939246306E+02  0.51100000000E-03 0.  1.
         12    1    3    3    0    0  0.12318148629E+02  0.11738794885E+02 -0.38927830018E+02  0.42484256388E+02  0.00000000000E+00 0. -1.
</event>
<event>
 7    1  0.3925070E-015  0.9000782E+02  0.7816164E-02  0.1186339E+00
        -11   -1    0    0    0    0  0.00000000000E+00  0.00000000000E+00  0.45593999997E+02  0.45594000000E+02  0.51100000000E-03 0.  1.
         11   -1    0    0    0    0 -0.00000000000E+00 -0.00000000000E+00 -0.45593999997E+02  0.45594000000E+02  0.51100000000E-03 0. -1.
    9900012    2    1    2    0    0 -0.29874221356E+00 -0.10265664213E+01 -0.49974297490E+00  0.90007818417E+02  0.90000080820E+02 0.  0.
        -12    1    1    2    0    0  0.29874221356E+00  0.10265664213E+01  0.49974297490E+00  0.11801815828E+01  0.00000000000E+00 0.  1.
         11    1    3    3    0    0 -0.74639324953E+01 -0.30161322562E+02 -0.27669209452E+02  0.41605297967E+02  0.51100000000E-03 0. -1.
        -11    1    3    3    0    0  0.45175237822E+01  0.59316646832E+01 -0.47585000347E+01  0.88451110721E+01  0.51100000000E-03 0.  1.
        -12    1    3    3    0    0  0.26476664996E+01  0.23203091458E+02  0.31927966512E+02  0.39557409378E+02  0.00000000000E+00 0.  1.
</event>
<event>
 7    1  0.3925070E-015  0.9000682E+02  0.7816164E-02  0.1186341E+00
        -11   -1    0    0    0    0  0.00000000000E+00  0.00000000000E+00  0.45593999997E+02  0.45594000000E+02  0.51100000000E-03 0.  1.
         11   -1    0    0    0    0 -0.00000000000E+00 -0.00000000000E+00 -0.45593999997E+02  0.45594000000E+02  0.51100000000E-03 0. -1.
    9900012    2    1    2    0    0  0.89726237186E+00 -0.63652593810E+00  0.43005152601E+00  0.90006818664E+02  0.89999067865E+02 0.  0.
        -12    1    1    2    0    0 -0.89726237186E+00  0.63652593810E+00 -0.43005152601E+00  0.11811813361E+01  0.00000000000E+00 0.  1.
         11    1    3    3    0    0  0.18179153513E+02  0.10146992111E+02 -0.20987687522E+02  0.29562241105E+02  0.51100000000E-03 0. -1.
        -11    1    3    3    0    0 -0.20969738645E+02  0.17870724988E+02  0.12068325376E+02  0.30078850179E+02  0.51100000000E-03 0.  1.
        -12    1    3    3    0    0  0.36878475039E+01 -0.28654243037E+02  0.93494136723E+01  0.30365727379E+02  0.00000000000E+00 0.  1.
</event>
<event>
 7    1  0.3925070E-015  0.9000780E+02  0.7816164E-02  0.1186339E+00
        -11   -1    0    0    0    0  0.00000000000E+00  0.00000000000E+00  0.45593999997E+02  0.45594000000E+02  0.51100000000E-03 0.  1.
         11   -1    0    0    0    0 -0.00000000000E+00 -0.00000000000E+00 -0.45593999997E+02  0.45594000000E+02  0.51100000000E-03 0. -1.
    9900012    2    1    2    0    0  0.45148776779E+00 -0.44815196930E+00 -0.99408268980E+00  0.90007795871E+02  0.90000057976E+02 0.  0.
        -12    1    1    2    0    0 -0.45148776779E+00  0.44815196930E+00  0.99408268980E+00  0.11802041290E+01  0.00000000000E+00 0.  1.
         11    1    3    3    0    0 -0.93460161404E-01 -0.45265253377E+01  0.79266024047E+01  0.91284824795E+01  0.51100000000E-03 0. -1.
        -11    1    3    3    0    0  0.30530728709E+02  0.23502388766E+01  0.22051823792E+02  0.37735022871E+02  0.51100000000E-03 0.  1.
         12    1    3    3    0    0 -0.29985780780E+02  0.17281344918E+01 -0.30972508886E+02  0.43144290520E+02  0.00000000000E+00 0. -1.
</event>
<event>
 7    1  0.3925070E-015  0.9000780E+02  0.7816164E-02  0.1186339E+00
        -11   -1    0    0    0    0  0.00000000000E+00  0.00000000000E+00  0.45593999997E+02  0.45594000000E+02  0.51100000000E-03 0. -1.
         11   -1    0    0    0    0 -0.00000000000E+00 -0.00000000000E+00 -0.45593999997E+02  0.45594000000E+02  0.51100000000E-03 0.  1.
    9900012    2    1    2    0    0  0.78629680776E+00  0.57438907200E+00  0.66684486039E+00  0.90007801905E+02  0.90000064090E+02 0.  0.
        -12    1    1    2    0    0 -0.78629680776E+00 -0.57438907200E+00 -0.66684486039E+00  0.11801980951E+01  0.00000000000E+00 0.  1.
         11    1    3    3    0    0  0.86168169300E+01  0.26087692075E+01 -0.48270170565E+01  0.10215444420E+02  0.51100000000E-03 0. -1.
        -11    1    3    3    0    0 -0.19951974021E+02  0.35190692527E+02  0.26074136131E+01  0.40537201604E+02  0.51100000000E-03 0.  1.
         12    1    3    3    0    0  0.12121453899E+02 -0.37225072663E+02  0.28864483037E+01  0.39255155880E+02  0.00000000000E+00 0. -1.
</event>
<event>
 7    1  0.3925070E-015  0.9000759E+02  0.7816164E-02  0.1186339E+00
        -11   -1    0    0    0    0  0.00000000000E+00  0.00000000000E+00  0.45593999997E+02  0.45594000000E+02  0.51100000000E-03 0. -1.
         11   -1    0    0    0    0 -0.00000000000E+00 -0.00000000000E+00 -0.45593999997E+02  0.45594000000E+02  0.51100000000E-03 0.  1.
    9900012    2    1    2    0    0 -0.10858775813E+01 -0.16294886652E+00  0.43322551210E+00  0.90007590411E+02  0.89999849804E+02 0.  0.
        -12    1    1    2    0    0  0.10858775813E+01  0.16294886652E+00 -0.43322551210E+00  0.11804095895E+01  0.00000000000E+00 0.  1.
         11    1    3    3    0    0 -0.71479459286E+01  0.76224476792E+00 -0.67948397636E+01  0.98916123943E+01  0.51100000000E-03 0. -1.
        -11    1    3    3    0    0  0.17077158283E+02 -0.19357153967E+02  0.35948336544E+02  0.44256204596E+02  0.51100000000E-03 0.  1.
         12    1    3    3    0    0 -0.11015089935E+02  0.18431960333E+02 -0.28720271268E+02  0.35859773420E+02  0.00000000000E+00 0. -1.
</event>
<event>
 7    1  0.3925070E-015  0.9000769E+02  0.7816164E-02  0.1186339E+00
        -11   -1    0    0    0    0  0.00000000000E+00  0.00000000000E+00  0.45593999997E+02  0.45594000000E+02  0.51100000000E-03 0. -1.
         11   -1    0    0    0    0 -0.00000000000E+00 -0.00000000000E+00 -0.45593999997E+02  0.45594000000E+02  0.51100000000E-03 0.  1.
    9900012    2    1    2    0    0  0.40265560961E+00 -0.35511819661E+00  0.10511428731E+01  0.90007685714E+02  0.89999946366E+02 0.  0.
        -12    1    1    2    0    0 -0.40265560961E+00  0.35511819661E+00 -0.10511428731E+01  0.11803142858E+01  0.00000000000E+00 0.  1.
         11    1    3    3    0    0  0.43360864867E+01 -0.21901309502E+00  0.12572266806E+02  0.13300808458E+02  0.51100000000E-03 0. -1.
        -11    1    3    3    0    0 -0.16798622439E+02 -0.29799574872E+02  0.12507093696E+02  0.36423011564E+02  0.51100000000E-03 0.  1.
         12    1    3    3    0    0  0.12865191562E+02  0.29663469770E+02 -0.24028217628E+02  0.40283865692E+02  0.00000000000E+00 0. -1.
</event>
<event>
 7    1  0.3925070E-015  0.9000773E+02  0.7816164E-02  0.1186339E+00
        -11   -1    0    0    0    0  0.00000000000E+00  0.00000000000E+00  0.45593999997E+02  0.45594000000E+02  0.51100000000E-03 0.  1.
         11   -1    0    0    0    0 -0.00000000000E+00 -0.00000000000E+00 -0.45593999997E+02  0.45594000000E+02  0.51100000000E-03 0. -1.
    9900012    2    1    2    0    0  0.17753971544E+00  0.11061807776E+01 -0.37130880898E+00  0.90007734566E+02  0.89999995862E+02 0.  0.
        -12    1    1    2    0    0 -0.17753971544E+00 -0.11061807776E+01  0.37130880898E+00  0.11802654341E+01  0.00000000000E+00 0.  1.
         11    1    3    3    0    0  0.16301329580E+02  0.37753757494E+02  0.57814377317E+01  0.41527154652E+02  0.51100000000E-03 0. -1.
        -11    1    3    3    0    0 -0.81246221066E+01  0.20730839335E+01  0.43971589107E+00  0.83964582829E+01  0.51100000000E-03 0.  1.
        -12    1    3    3    0    0 -0.79991677575E+01 -0.38720660650E+02 -0.65924624317E+01  0.40084121631E+02  0.00000000000E+00 0.  1.
</event>
<event>
 7    1  0.3925070E-015  0.9000780E+02  0.7816164E-02  0.1186339E+00
        -11   -1    0    0    0    0  0.00000000000E+00  0.00000000000E+00  0.45593999997E+02  0.45594000000E+02  0.51100000000E-03 0. -1.
         11   -1    0    0    0    0 -0.00000000000E+00 -0.00000000000E+00 -0.45593999997E+02  0.45594000000E+02  0.51100000000E-03 0.  1.
    9900012    2    1    2    0    0  0.70534898303E+00 -0.28389344130E+00  0.90264341675E+00  0.90007797555E+02  0.90000059682E+02 0.  0.
        -12    1    1    2    0    0 -0.70534898303E+00  0.28389344130E+00 -0.90264341675E+00  0.11802024452E+01  0.00000000000E+00 0.  1.
         11    1    3    3    0    0  0.11915728367E+01 -0.66370556004E+01  0.34187793391E+02  0.34846457067E+02  0.51100000000E-03 0. -1.
        -11    1    3    3    0    0  0.15593491402E+01 -0.79909032902E+01  0.79958569945E+01  0.11411390558E+02  0.51100000000E-03 0.  1.
        -12    1    3    3    0    0 -0.20455729938E+01  0.14344065449E+02 -0.41281006969E+02  0.43749949930E+02  0.00000000000E+00 0.  1.
</event>
<event>
 7    1  0.3925070E-015  0.9000772E+02  0.7816164E-02  0.1186339E+00
        -11   -1    0    0    0    0  0.00000000000E+00  0.00000000000E+00  0.45593999997E+02  0.45594000000E+02  0.51100000000E-03 0.  1.
         11   -1    0    0    0    0 -0.00000000000E+00 -0.00000000000E+00 -0.45593999997E+02  0.45594000000E+02  0.51100000000E-03 0. -1.
    9900012    2    1    2    0    0 -0.65720159624E+00  0.73831549562E+00  0.64500345151E+00  0.90007723269E+02  0.89999984416E+02 0.  0.
        -12    1    1    2    0    0  0.65720159624E+00 -0.73831549562E+00 -0.64500345151E+00  0.11802767310E+01  0.00000000000E+00 0.  1.
         11    1    3    3    0    0 -0.18930874744E+02  0.32582296537E+02  0.60137775330E+01  0.38159528125E+02  0.51100000000E-03 0. -1.
        -11    1    3    3    0    0 -0.53776652793E-01  0.44012054901E+01  0.79648767356E+01  0.91001518322E+01  0.51100000000E-03 0.  1.
        -12    1    3    3    0    0  0.18327449800E+02 -0.36245186532E+02 -0.13333650817E+02  0.42748043312E+02  0.00000000000E+00 0.  1.
</event>
<event>
 7    1  0.3925070E-015  0.9000777E+02  0.7816164E-02  0.1186339E+00
        -11   -1    0    0    0    0  0.00000000000E+00  0.00000000000E+00  0.45593999997E+02  0.45594000000E+02  0.51100000000E-03 0.  1.
         11   -1    0    0    0    0 -0.00000000000E+00 -0.00000000000E+00 -0.45593999997E+02  0.45594000000E+02  0.51100000000E-03 0. -1.
    9900012    2    1    2    0    0 -0.92564504641E+00  0.69761575958E+00  0.22237016530E+00  0.90007773331E+02  0.90000035139E+02 0.  0.
        -12    1    1    2    0    0  0.92564504641E+00 -0.69761575958E+00 -0.22237016530E+00  0.11802266691E+01  0.00000000000E+00 0.  1.
         11    1    3    3    0    0  0.18253545958E+02 -0.16134684297E+02 -0.27089492435E+02  0.36432960051E+02  0.51100000000E-03 0. -1.
        -11    1    3    3    0    0  0.79922961186E+01 -0.62763151261E+01  0.37791896592E+01  0.10842103281E+02  0.51100000000E-03 0.  1.
        -12    1    3    3    0    0 -0.27171487123E+02  0.23108615183E+02  0.23532672941E+02  0.42732709999E+02  0.00000000000E+00 0.  1.
</event>
<event>
 7    1  0.3925070E-015  0.9000785E+02  0.7816164E-02  0.1186339E+00
        -11   -1    0    0    0    0  0.00000000000E+00  0.00000000000E+00  0.45593999997E+02  0.45594000000E+02  0.51100000000E-03 0. -1.
         11   -1    0    0    0    0 -0.00000000000E+00 -0.00000000000E+00 -0.45593999997E+02  0.45594000000E+02  0.51100000000E-03 0.  1.
    9900012    2    1    2    0    0  0.37571649442E+00 -0.66235836466E+00  0.90159513312E+00  0.90007849471E+02  0.90000112284E+02 0.  0.
        -12    1    1    2    0    0 -0.37571649442E+00  0.66235836466E+00 -0.90159513312E+00  0.11801505292E+01  0.00000000000E+00 0.  1.
         11    1    3    3    0    0 -0.88618110806E+01  0.28824564203E+01  0.52349893923E+01  0.10688562337E+02  0.51100000000E-03 0. -1.
        -11    1    3    3    0    0 -0.98747379136E-01  0.26350631910E+02 -0.29197543352E+02  0.39330167698E+02  0.51100000000E-03 0.  1.
         12    1    3    3    0    0  0.93362749542E+01 -0.29895446695E+02  0.24864149093E+02  0.39989119435E+02  0.00000000000E+00 0. -1.
</event>
<event>
 7    1  0.7456839E-015  0.9000775E+02  0.7816164E-02  0.1186339E+00
        -11   -1    0    0    0    0  0.00000000000E+00  0.00000000000E+00  0.45593999997E+02  0.45594000000E+02  0.51100000000E-03 0.  1.
         11   -1    0    0    0    0 -0.00000000000E+00 -0.00000000000E+00 -0.45593999997E+02  0.45594000000E+02  0.51100000000E-03 0. -1.
    9900012    2    1    2    0    0  0.65691202450E+00 -0.25460239138E+00 -0.94690932244E+00  0.90007748734E+02  0.90000010217E+02 0.  0.
        -12    1    1    2    0    0 -0.65691202450E+00  0.25460239138E+00  0.94690932244E+00  0.11802512659E+01  0.00000000000E+00 0.  1.
         11    1    3    3    0    0 -0.27329262625E+01 -0.96181056357E+01 -0.35142064758E+02  0.36536852050E+02  0.51100000000E-03 0. -1.
        -11    1    3    3    0    0  0.65166089047E-03 -0.70813144150E+01 -0.63972045610E+01  0.95430205242E+01  0.51100000000E-03 0.  1.
        -12    1    3    3    0    0  0.33891866261E+01  0.16444817659E+02  0.40592359997E+02  0.43927876160E+02  0.00000000000E+00 0.  1.
</event>
<event>
 7    1  0.3925070E-015  0.9000777E+02  0.7816164E-02  0.1186339E+00
        -11   -1    0    0    0    0  0.00000000000E+00  0.00000000000E+00  0.45593999997E+02  0.45594000000E+02  0.51100000000E-03 0.  1.
         11   -1    0    0    0    0 -0.00000000000E+00 -0.00000000000E+00 -0.45593999997E+02  0.45594000000E+02  0.51100000000E-03 0. -1.
    9900012    2    1    2    0    0  0.11734046182E+01  0.12013625309E+00  0.40251436670E-01  0.90007774896E+02  0.90000036725E+02 0.  0.
        -12    1    1    2    0    0 -0.11734046182E+01 -0.12013625309E+00 -0.40251436670E-01  0.11802251037E+01  0.00000000000E+00 0.  1.
         11    1    3    3    0    0  0.26270552584E+02  0.24988522054E+01  0.65614433298E+01  0.27192622791E+02  0.51100000000E-03 0.  1.
        -11    1    3    3    0    0 -0.15548385598E+02 -0.29701267948E+02 -0.39944480434E+01  0.33762008647E+02  0.51100000000E-03 0. -1.
         12    1    3    3    0    0 -0.95487623685E+01  0.27322551996E+02 -0.25267438498E+01  0.29053143459E+02  0.00000000000E+00 0. -1.
</event>
<event>
 7    1  0.3925070E-015  0.9000770E+02  0.7816164E-02  0.1186339E+00
        -11   -1    0    0    0    0  0.00000000000E+00  0.00000000000E+00  0.45593999997E+02  0.45594000000E+02  0.51100000000E-03 0.  1.
         11   -1    0    0    0    0 -0.00000000000E+00 -0.00000000000E+00 -0.45593999997E+02  0.45594000000E+02  0.51100000000E-03 0. -1.
    9900012    2    1    2    0    0  0.98779501453E+00  0.34780391290E+00 -0.54442972184E+00  0.90007699075E+02  0.89999959902E+02 0.  0.
        -12    1    1    2    0    0 -0.98779501453E+00 -0.34780391290E+00  0.54442972184E+00  0.11803009254E+01  0.00000000000E+00 0.  1.
         11    1    3    3    0    0 -0.64036591275E+01 -0.34094624365E+02  0.89435278446E+01  0.35825088295E+02  0.51100000000E-03 0. -1.
        -11    1    3    3    0    0 -0.80087448382E+01 -0.21936307894E+01  0.72853595664E+01  0.11046649908E+02  0.51100000000E-03 0.  1.
        -12    1    3    3    0    0  0.15400198980E+02  0.36636059067E+02 -0.16773317133E+02  0.43135960871E+02  0.00000000000E+00 0.  1.
</event>
<event>
 7    1  0.3925070E-015  0.9000775E+02  0.7816164E-02  0.1186339E+00
        -11   -1    0    0    0    0  0.00000000000E+00  0.00000000000E+00  0.45593999997E+02  0.45594000000E+02  0.51100000000E-03 0. -1.
         11   -1    0    0    0    0 -0.00000000000E+00 -0.00000000000E+00 -0.45593999997E+02  0.45594000000E+02  0.51100000000E-03 0.  1.
    9900012    2    1    2    0    0  0.69355009604E+00 -0.25962211668E+00  0.91901322303E+00  0.90007745501E+02  0.90000006941E+02 0.  0.
        -12    1    1    2    0    0 -0.69355009604E+00  0.25962211668E+00 -0.91901322303E+00  0.11802544994E+01  0.00000000000E+00 0.  1.
         11    1    3    3    0    0 -0.84002049529E+01 -0.69310659709E+01 -0.27023241823E+02  0.29135180069E+02  0.51100000000E-03 0.  1.
        -11    1    3    3    0    0  0.20532170189E+02  0.35990183753E+01 -0.85318579687E+01  0.22523666367E+02  0.51100000000E-03 0. -1.
        -12    1    3    3    0    0 -0.11438415140E+02  0.30724254789E+01  0.36474113015E+02  0.38348899065E+02  0.00000000000E+00 0.  1.
</event>
<event>
 7    1  0.4534375E-015  0.9000775E+02  0.7816164E-02  0.1186339E+00
        -11   -1    0    0    0    0  0.00000000000E+00  0.00000000000E+00  0.45593999997E+02  0.45594000000E+02  0.51100000000E-03 0. -1.
         11   -1    0    0    0    0 -0.00000000000E+00 -0.00000000000E+00 -0.45593999997E+02  0.45594000000E+02  0.51100000000E-03 0.  1.
    9900012    2    1    2    0    0 -0.45782945546E+00 -0.40809517422E+00  0.10083866878E+01  0.90007748674E+02  0.90000010156E+02 0.  0.
        -12    1    1    2    0    0  0.45782945546E+00  0.40809517422E+00 -0.10083866878E+01  0.11802513264E+01  0.00000000000E+00 0.  1.
         11    1    3    3    0    0  0.18915270925E+02 -0.50886459493E+01  0.33549228699E+02  0.38848842175E+02  0.51100000000E-03 0. -1.
        -11    1    3    3    0    0 -0.72687986805E+01  0.39561335828E+01  0.63438241511E+01  0.10427393361E+02  0.51100000000E-03 0.  1.
        -12    1    3    3    0    0 -0.12104301700E+02  0.72441719224E+00 -0.38884666162E+02  0.40731513138E+02  0.00000000000E+00 0.  1.
</event>
<event>
 7    1  0.3925070E-015  0.9000787E+02  0.7816164E-02  0.1186339E+00
        -11   -1    0    0    0    0  0.00000000000E+00  0.00000000000E+00  0.45593999997E+02  0.45594000000E+02  0.51100000000E-03 0. -1.
         11   -1    0    0    0    0 -0.00000000000E+00 -0.00000000000E+00 -0.45593999997E+02  0.45594000000E+02  0.51100000000E-03 0.  1.
    9900012    2    1    2    0    0 -0.10610487751E+01  0.26970916560E-01 -0.51590064794E+00  0.90007870595E+02  0.90000133687E+02 0.  0.
        -12    1    1    2    0    0  0.10610487751E+01 -0.26970916560E-01  0.51590064794E+00  0.11801294047E+01  0.00000000000E+00 0.  1.
         11    1    3    3    0    0  0.25329525335E+02 -0.16874532221E+02 -0.16051590892E+02  0.34409130500E+02  0.51100000000E-03 0. -1.
        -11    1    3    3    0    0  0.54917165353E+01 -0.83806348761E+01 -0.35830422520E+01  0.10641061200E+02  0.51100000000E-03 0.  1.
        -12    1    3    3    0    0 -0.31882290645E+02  0.25282138014E+02  0.19118732496E+02  0.44957678894E+02  0.00000000000E+00 0.  1.
</event>
<event>
 7    1  0.3925070E-015  0.9000854E+02  0.7816164E-02  0.1186337E+00
        -11   -1    0    0    0    0  0.00000000000E+00  0.00000000000E+00  0.45593999997E+02  0.45594000000E+02  0.51100000000E-03 0.  1.
         11   -1    0    0    0    0 -0.00000000000E+00 -0.00000000000E+00 -0.45593999997E+02  0.45594000000E+02  0.51100000000E-03 0. -1.
    9900012    2    1    2    0    0 -0.11532234588E+01 -0.11586137290E+00  0.21858219781E+00  0.90008539793E+02  0.90000811714E+02 0.  0.
        -12    1    1    2    0    0  0.11532234588E+01  0.11586137290E+00 -0.21858219781E+00  0.11794602074E+01  0.00000000000E+00 0.  1.
         11    1    3    3    0    0 -0.60928002720E+01 -0.27414798941E+01  0.85782939948E+01  0.10873134566E+02  0.51100000000E-03 0. -1.
        -11    1    3    3    0    0 -0.92224706028E+01 -0.26271610037E+02  0.21544272195E+02  0.35205214424E+02  0.51100000000E-03 0.  1.
         12    1    3    3    0    0  0.14162047416E+02  0.28897228559E+02 -0.29903983992E+02  0.43930190803E+02  0.00000000000E+00 0. -1.
</event>
<event>
 7    1  0.3925070E-015  0.9000773E+02  0.7816164E-02  0.1186339E+00
        -11   -1    0    0    0    0  0.00000000000E+00  0.00000000000E+00  0.45593999997E+02  0.45594000000E+02  0.51100000000E-03 0.  1.
         11   -1    0    0    0    0 -0.00000000000E+00 -0.00000000000E+00 -0.45593999997E+02  0.45594000000E+02  0.51100000000E-03 0. -1.
    9900012    2    1    2    0    0 -0.10476674435E+01 -0.51343293944E+00  0.17839604734E+00  0.90007726470E+02  0.89999987660E+02 0.  0.
        -12    1    1    2    0    0  0.10476674435E+01  0.51343293944E+00 -0.17839604734E+00  0.11802735298E+01  0.00000000000E+00 0.  1.
         11    1    3    3    0    0  0.26381977925E+02  0.17952793807E+02 -0.16404845788E+02  0.35880782186E+02  0.51100000000E-03 0. -1.
        -11    1    3    3    0    0  0.90167853937E+01 -0.19975202090E+01 -0.28444696337E+01  0.96635145563E+01  0.51100000000E-03 0.  1.
        -12    1    3    3    0    0 -0.36446430762E+02 -0.16468706537E+02  0.19427711469E+02  0.44463429728E+02  0.00000000000E+00 0.  1.
</event>
<event>
 7    1  0.3925070E-015  0.9000775E+02  0.7816164E-02  0.1186339E+00
        -11   -1    0    0    0    0  0.00000000000E+00  0.00000000000E+00  0.45593999997E+02  0.45594000000E+02  0.51100000000E-03 0.  1.
         11   -1    0    0    0    0 -0.00000000000E+00 -0.00000000000E+00 -0.45593999997E+02  0.45594000000E+02  0.51100000000E-03 0. -1.
    9900012    2    1    2    0    0 -0.82906282841E+00  0.82792897860E+00  0.14204443820E+00  0.90007750793E+02  0.90000012304E+02 0.  0.
        -12    1    1    2    0    0  0.82906282841E+00 -0.82792897860E+00 -0.14204443820E+00  0.11802492065E+01  0.00000000000E+00 0.  1.
         11    1    3    3    0    0 -0.79273129683E+01  0.21026659427E+00  0.31481840217E+01  0.85321489576E+01  0.51100000000E-03 0. -1.
        -11    1    3    3    0    0  0.20361825176E+02 -0.36142358083E+02 -0.74395965658E+01  0.42145243736E+02  0.51100000000E-03 0.  1.
         12    1    3    3    0    0 -0.13263575036E+02  0.36760020467E+02  0.44334569823E+01  0.39330358100E+02  0.00000000000E+00 0. -1.
</event>
<event>
 7    1  0.5436243E-015  0.9000772E+02  0.7816164E-02  0.1186339E+00
        -11   -1    0    0    0    0  0.00000000000E+00  0.00000000000E+00  0.45593999997E+02  0.45594000000E+02  0.51100000000E-03 0. -1.
         11   -1    0    0    0    0 -0.00000000000E+00 -0.00000000000E+00 -0.45593999997E+02  0.45594000000E+02  0.51100000000E-03 0.  1.
    9900012    2    1    2    0    0  0.30489517255E+00 -0.26003766082E+00  0.11101760936E+01  0.90007715454E+02  0.89999976498E+02 0.  0.
        -12    1    1    2    0    0 -0.30489517255E+00  0.26003766082E+00 -0.11101760936E+01  0.11802845463E+01  0.00000000000E+00 0.  1.
         11    1    3    3    0    0 -0.20769833413E+02  0.40723199296E+01  0.31499310204E+02  0.37949654981E+02  0.51100000000E-03 0. -1.
        -11    1    3    3    0    0 -0.57758628248E+01 -0.68573591756E+01  0.27067168092E+01  0.93653767880E+01  0.51100000000E-03 0.  1.
        -12    1    3    3    0    0  0.26850591411E+02  0.25250015852E+01 -0.33095850919E+02  0.42692683684E+02  0.00000000000E+00 0.  1.
</event>
<event>
 7    1  0.3925070E-015  0.9000775E+02  0.7816164E-02  0.1186339E+00
        -11   -1    0    0    0    0  0.00000000000E+00  0.00000000000E+00  0.45593999997E+02  0.45594000000E+02  0.51100000000E-03 0.  1.
         11   -1    0    0    0    0 -0.00000000000E+00 -0.00000000000E+00 -0.45593999997E+02  0.45594000000E+02  0.51100000000E-03 0. -1.
    9900012    2    1    2    0    0 -0.17734604529E+00  0.40930982940E+00 -0.10927006780E+01  0.90007753870E+02  0.90000015421E+02 0.  0.
        -12    1    1    2    0    0  0.17734604529E+00 -0.40930982940E+00  0.10927006780E+01  0.11802461303E+01  0.00000000000E+00 0.  1.
         11    1    3    3    0    0 -0.18874497618E+02 -0.37652859141E+02 -0.89980145996E+01  0.43069115719E+02  0.51100000000E-03 0. -1.
        -11    1    3    3    0    0  0.76983040873E+01  0.21708057414E+01 -0.17288547655E+01  0.81832281191E+01  0.51100000000E-03 0.  1.
        -12    1    3    3    0    0  0.10998847486E+02  0.35891363229E+02  0.96341686871E+01  0.38755410032E+02  0.00000000000E+00 0.  1.
</event>
<event>
 7    1  0.3925070E-015  0.9000775E+02  0.7816164E-02  0.1186339E+00
        -11   -1    0    0    0    0  0.00000000000E+00  0.00000000000E+00  0.45593999997E+02  0.45594000000E+02  0.51100000000E-03 0. -1.
         11   -1    0    0    0    0 -0.00000000000E+00 -0.00000000000E+00 -0.45593999997E+02  0.45594000000E+02  0.51100000000E-03 0.  1.
    9900012    2    1    2    0    0  0.42756843966E+00 -0.33012345456E+00  0.10493735059E+01  0.90007753830E+02  0.90000015381E+02 0.  0.
        -12    1    1    2    0    0 -0.42756843966E+00  0.33012345456E+00 -0.10493735059E+01  0.11802461696E+01  0.00000000000E+00 0.  1.
         11    1    3    3    0    0  0.12157146115E+02 -0.16061960168E+01 -0.17142773485E+02  0.21077256708E+02  0.51100000000E-03 0. -1.
        -11    1    3    3    0    0  0.22757204140E+02  0.11304900896E+02 -0.53756993448E+01  0.25972856374E+02  0.51100000000E-03 0.  1.
         12    1    3    3    0    0 -0.34486781815E+02 -0.10028828334E+02  0.23567846336E+02  0.42957640748E+02  0.00000000000E+00 0. -1.
</event>
<event>
 7    1  0.3925070E-015  0.9000776E+02  0.7816164E-02  0.1186339E+00
        -11   -1    0    0    0    0  0.00000000000E+00  0.00000000000E+00  0.45593999997E+02  0.45594000000E+02  0.51100000000E-03 0. -1.
         11   -1    0    0    0    0 -0.00000000000E+00 -0.00000000000E+00 -0.45593999997E+02  0.45594000000E+02  0.51100000000E-03 0.  1.
    9900012    2    1    2    0    0 -0.49880172020E+00 -0.91755893507E+00  0.54977282959E+00  0.90007759465E+02  0.90000021090E+02 0.  0.
        -12    1    1    2    0    0  0.49880172020E+00  0.91755893507E+00 -0.54977282959E+00  0.11802405346E+01  0.00000000000E+00 0.  1.
         11    1    3    3    0    0 -0.19226307440E+02 -0.15991560558E+02  0.13163998197E+02  0.28260781228E+02  0.51100000000E-03 0. -1.
        -11    1    3    3    0    0 -0.18038764611E+02  0.12526400945E+02 -0.11694447135E+02  0.24881074000E+02  0.51100000000E-03 0.  1.
         12    1    3    3    0    0  0.36766270331E+02  0.25476006774E+01 -0.91977823240E+00  0.36865904238E+02  0.00000000000E+00 0. -1.
</event>
<event>
 7    1  0.3925070E-015  0.9000775E+02  0.7816164E-02  0.1186339E+00
        -11   -1    0    0    0    0  0.00000000000E+00  0.00000000000E+00  0.45593999997E+02  0.45594000000E+02  0.51100000000E-03 0.  1.
         11   -1    0    0    0    0 -0.00000000000E+00 -0.00000000000E+00 -0.45593999997E+02  0.45594000000E+02  0.51100000000E-03 0. -1.
    9900012    2    1    2    0    0  0.18454619262E+00 -0.40052389200E+00 -0.10947620669E+01  0.90007753980E+02  0.90000015532E+02 0.  0.
        -12    1    1    2    0    0 -0.18454619262E+00  0.40052389200E+00  0.10947620669E+01  0.11802460202E+01  0.00000000000E+00 0.  1.
         11    1    3    3    0    0  0.12698166422E+02  0.20602915807E+02 -0.62332934454E+01  0.24991548925E+02  0.51100000000E-03 0. -1.
        -11    1    3    3    0    0 -0.28484025033E+02  0.23938457995E+01  0.18131992666E+02  0.33850248715E+02  0.51100000000E-03 0.  1.
         12    1    3    3    0    0  0.15970404804E+02 -0.23397285499E+02 -0.12993461287E+02  0.31165956339E+02  0.00000000000E+00 0. -1.
</event>
<event>
 7    1  0.3925070E-015  0.9000779E+02  0.7816164E-02  0.1186339E+00
        -11   -1    0    0    0    0  0.00000000000E+00  0.00000000000E+00  0.45593999997E+02  0.45594000000E+02  0.51100000000E-03 0. -1.
         11   -1    0    0    0    0 -0.00000000000E+00 -0.00000000000E+00 -0.45593999997E+02  0.45594000000E+02  0.51100000000E-03 0.  1.
    9900012    2    1    2    0    0  0.36776854889E+00  0.10824141063E+01  0.29327609234E+00  0.90007794565E+02  0.90000056653E+02 0.  0.
        -12    1    1    2    0    0 -0.36776854889E+00 -0.10824141063E+01 -0.29327609234E+00  0.11802054353E+01  0.00000000000E+00 0.  1.
         11    1    3    3    0    0  0.57011426575E+01  0.27641114131E+02  0.28890453917E+02  0.40388024782E+02  0.51100000000E-03 0. -1.
        -11    1    3    3    0    0 -0.10648480248E+02 -0.20882004222E+00 -0.39309724680E+00  0.10657779465E+02  0.51100000000E-03 0.  1.
        -12    1    3    3    0    0  0.53151061397E+01 -0.26349879982E+02 -0.28204080577E+02  0.38961990318E+02  0.00000000000E+00 0.  1.
</event>
<event>
 7    1  0.3925070E-015  0.9000774E+02  0.7816164E-02  0.1186339E+00
        -11   -1    0    0    0    0  0.00000000000E+00  0.00000000000E+00  0.45593999997E+02  0.45594000000E+02  0.51100000000E-03 0.  1.
         11   -1    0    0    0    0 -0.00000000000E+00 -0.00000000000E+00 -0.45593999997E+02  0.45594000000E+02  0.51100000000E-03 0. -1.
    9900012    2    1    2    0    0 -0.15450508549E+00  0.60067164894E+00 -0.10041606888E+01  0.90007738614E+02  0.89999999963E+02 0.  0.
        -12    1    1    2    0    0  0.15450508549E+00 -0.60067164894E+00  0.10041606888E+01  0.11802613864E+01  0.00000000000E+00 0.  1.
         11    1    3    3    0    0 -0.18518382132E+02  0.30307599196E+02  0.16462380606E+02  0.39147043583E+02  0.51100000000E-03 0. -1.
        -11    1    3    3    0    0 -0.87941720422E+01 -0.21019471719E+01 -0.34340333158E+01  0.96720333382E+01  0.51100000000E-03 0.  1.
        -12    1    3    3    0    0  0.27158049089E+02 -0.27604980375E+02 -0.14032507979E+02  0.41188661692E+02  0.00000000000E+00 0.  1.
</event>
<event>
 7    1  0.3925070E-015  0.9000782E+02  0.7816164E-02  0.1186339E+00
        -11   -1    0    0    0    0  0.00000000000E+00  0.00000000000E+00  0.45593999997E+02  0.45594000000E+02  0.51100000000E-03 0. -1.
         11   -1    0    0    0    0 -0.00000000000E+00 -0.00000000000E+00 -0.45593999997E+02  0.45594000000E+02  0.51100000000E-03 0.  1.
    9900012    2    1    2    0    0 -0.55525963851E+00 -0.98740264257E+00 -0.33096842620E+00  0.90007823173E+02  0.90000085638E+02 0.  0.
        -12    1    1    2    0    0  0.55525963851E+00  0.98740264257E+00  0.33096842620E+00  0.11801768274E+01  0.00000000000E+00 0.  1.
         11    1    3    3    0    0  0.10468476568E+02 -0.38433428312E+00  0.67214619178E+00  0.10497070794E+02  0.51100000000E-03 0. -1.
        -11    1    3    3    0    0  0.14079377520E+02  0.31647259447E+02 -0.12874033929E+02  0.36952924806E+02  0.51100000000E-03 0.  1.
         12    1    3    3    0    0 -0.25103113726E+02 -0.32250327807E+02  0.11870919311E+02  0.42557827572E+02  0.00000000000E+00 0. -1.
</event>
<event>
 7    1  0.3925070E-015  0.9000766E+02  0.7816164E-02  0.1186339E+00
        -11   -1    0    0    0    0  0.00000000000E+00  0.00000000000E+00  0.45593999997E+02  0.45594000000E+02  0.51100000000E-03 0. -1.
         11   -1    0    0    0    0 -0.00000000000E+00 -0.00000000000E+00 -0.45593999997E+02  0.45594000000E+02  0.51100000000E-03 0.  1.
    9900012    2    1    2    0    0 -0.24481727487E+00 -0.10975286075E+01 -0.35874078902E+00  0.90007661279E+02  0.89999921608E+02 0.  0.
        -12    1    1    2    0    0  0.24481727487E+00  0.10975286075E+01  0.35874078902E+00  0.11803387209E+01  0.00000000000E+00 0.  1.
         11    1    3    3    0    0 -0.10038287271E+02 -0.12348289844E+01 -0.35091648926E+01  0.10705430980E+02  0.51100000000E-03 0. -1.
        -11    1    3    3    0    0 -0.21601064145E+02  0.45739796578E+01 -0.27456379786E+02  0.35233223715E+02  0.51100000000E-03 0.  1.
         12    1    3    3    0    0  0.31394534141E+02 -0.44366792809E+01  0.30606803890E+02  0.44069006584E+02  0.00000000000E+00 0. -1.
</event>
<event>
 7    1  0.3925070E-015  0.9000772E+02  0.7816164E-02  0.1186339E+00
        -11   -1    0    0    0    0  0.00000000000E+00  0.00000000000E+00  0.45593999997E+02  0.45594000000E+02  0.51100000000E-03 0.  1.
         11   -1    0    0    0    0 -0.00000000000E+00 -0.00000000000E+00 -0.45593999997E+02  0.45594000000E+02  0.51100000000E-03 0. -1.
    9900012    2    1    2    0    0  0.40325207452E+00 -0.22368161874E+00 -0.10864656867E+01  0.90007723172E+02  0.89999984318E+02 0.  0.
        -12    1    1    2    0    0 -0.40325207452E+00  0.22368161874E+00  0.10864656867E+01  0.11802768279E+01  0.00000000000E+00 0.  1.
         11    1    3    3    0    0 -0.26410997643E+02 -0.39695469483E+01  0.23924077181E+02  0.35856095279E+02  0.51100000000E-03 0. -1.
        -11    1    3    3    0    0  0.12141254423E+01 -0.64866651792E+01  0.84978739490E+01  0.10759404614E+02  0.51100000000E-03 0.  1.
        -12    1    3    3    0    0  0.25600124275E+02  0.10232530509E+02 -0.33508416816E+02  0.43392223279E+02  0.00000000000E+00 0.  1.
</event>
<event>
 7    1  0.3925070E-015  0.9000844E+02  0.7816164E-02  0.1186338E+00
        -11   -1    0    0    0    0  0.00000000000E+00  0.00000000000E+00  0.45593999997E+02  0.45594000000E+02  0.51100000000E-03 0. -1.
         11   -1    0    0    0    0 -0.00000000000E+00 -0.00000000000E+00 -0.45593999997E+02  0.45594000000E+02  0.51100000000E-03 0.  1.
    9900012    2    1    2    0    0  0.63708174473E+00 -0.96306564106E+00 -0.24079364030E+00  0.90008444933E+02  0.90000715603E+02 0.  0.
        -12    1    1    2    0    0 -0.63708174473E+00  0.96306564106E+00  0.24079364030E+00  0.11795550668E+01  0.00000000000E+00 0.  1.
         11    1    3    3    0    0 -0.14294648713E+02 -0.86334874102E+01  0.48063998962E+01  0.17377444200E+02  0.51100000000E-03 0. -1.
        -11    1    3    3    0    0 -0.18791251790E+01  0.12179507128E+02 -0.35487322854E+02  0.37566229368E+02  0.51100000000E-03 0.  1.
         12    1    3    3    0    0  0.16810855637E+02 -0.45090853592E+01  0.30440129317E+02  0.35064771365E+02  0.00000000000E+00 0. -1.
</event>
<event>
 7    1  0.3925070E-015  0.9000656E+02  0.7816164E-02  0.1186341E+00
        -11   -1    0    0    0    0  0.00000000000E+00  0.00000000000E+00  0.45593999997E+02  0.45594000000E+02  0.51100000000E-03 0.  1.
         11   -1    0    0    0    0 -0.00000000000E+00 -0.00000000000E+00 -0.45593999997E+02  0.45594000000E+02  0.51100000000E-03 0. -1.
    9900012    2    1    2    0    0  0.83457419902E+00 -0.83437331500E+00 -0.55729660558E-01  0.90006560743E+02  0.89998806537E+02 0.  0.
        -12    1    1    2    0    0 -0.83457419902E+00  0.83437331500E+00  0.55729660558E-01  0.11814392568E+01  0.00000000000E+00 0.  1.
         11    1    3    3    0    0 -0.21770804831E+02 -0.24540241988E+02  0.17384313607E+02  0.37126887557E+02  0.51100000000E-03 0. -1.
        -11    1    3    3    0    0 -0.53159660107E+01 -0.66835747607E+01 -0.16779503953E+01  0.87031709163E+01  0.51100000000E-03 0.  1.
        -12    1    3    3    0    0  0.27921345041E+02  0.30389443433E+02 -0.15762092872E+02  0.44176502270E+02  0.00000000000E+00 0.  1.
</event>
<event>
 7    1  0.3925070E-015  0.9000772E+02  0.7816164E-02  0.1186339E+00
        -11   -1    0    0    0    0  0.00000000000E+00  0.00000000000E+00  0.45593999997E+02  0.45594000000E+02  0.51100000000E-03 0.  1.
         11   -1    0    0    0    0 -0.00000000000E+00 -0.00000000000E+00 -0.45593999997E+02  0.45594000000E+02  0.51100000000E-03 0. -1.
    9900012    2    1    2    0    0  0.26122412421E+00  0.33956368914E+00 -0.10997835210E+01  0.90007718112E+02  0.89999979191E+02 0.  0.
        -12    1    1    2    0    0 -0.26122412421E+00 -0.33956368914E+00  0.10997835210E+01  0.11802818880E+01  0.00000000000E+00 0.  1.
         11    1    3    3    0    0  0.22652208030E+02 -0.23263739956E+02 -0.12905984942E+02  0.34941215963E+02  0.51100000000E-03 0. -1.
        -11    1    3    3    0    0  0.10543635558E+02 -0.24475014881E+01 -0.16981967310E+01  0.10956385659E+02  0.51100000000E-03 0.  1.
        -12    1    3    3    0    0 -0.32934619464E+02  0.26050805133E+02  0.13504398152E+02  0.44110116490E+02  0.00000000000E+00 0.  1.
</event>
<event>
 7    1  0.3925070E-015  0.9000773E+02  0.7816164E-02  0.1186339E+00
        -11   -1    0    0    0    0  0.00000000000E+00  0.00000000000E+00  0.45593999997E+02  0.45594000000E+02  0.51100000000E-03 0.  1.
         11   -1    0    0    0    0 -0.00000000000E+00 -0.00000000000E+00 -0.45593999997E+02  0.45594000000E+02  0.51100000000E-03 0. -1.
    9900012    2    1    2    0    0  0.20104985379E+00  0.11547169784E+01 -0.13872762686E+00  0.90007729820E+02  0.89999991053E+02 0.  0.
        -12    1    1    2    0    0 -0.20104985379E+00 -0.11547169784E+01  0.13872762686E+00  0.11802701802E+01  0.00000000000E+00 0.  1.
         11    1    3    3    0    0 -0.39676992081E+02  0.24518903116E+01 -0.60370788338E+01  0.40208479053E+02  0.51100000000E-03 0. -1.
        -11    1    3    3    0    0  0.18964529559E+01 -0.74488362010E+01 -0.57488496748E+01  0.95984877667E+01  0.51100000000E-03 0.  1.
        -12    1    3    3    0    0  0.37981588979E+02  0.61516628678E+01  0.11647200882E+02  0.40200763000E+02  0.00000000000E+00 0.  1.
</event>
<event>
 7    1  0.3925070E-015  0.9000763E+02  0.7816164E-02  0.1186339E+00
        -11   -1    0    0    0    0  0.00000000000E+00  0.00000000000E+00  0.45593999997E+02  0.45594000000E+02  0.51100000000E-03 0.  1.
         11   -1    0    0    0    0 -0.00000000000E+00 -0.00000000000E+00 -0.45593999997E+02  0.45594000000E+02  0.51100000000E-03 0. -1.
    9900012    2    1    2    0    0  0.10126396726E+01  0.54144916140E+00 -0.27325549785E+00  0.90007629351E+02  0.89999889259E+02 0.  0.
        -12    1    1    2    0    0 -0.10126396726E+01 -0.54144916140E+00  0.27325549785E+00  0.11803706486E+01  0.00000000000E+00 0.  1.
         11    1    3    3    0    0 -0.26758962267E+02 -0.71278727713E+01 -0.30207304262E+02  0.40979627413E+02  0.51100000000E-03 0. -1.
        -11    1    3    3    0    0  0.79378593580E+01  0.23721591656E+01 -0.41293149278E+01  0.92567808837E+01  0.51100000000E-03 0.  1.
        -12    1    3    3    0    0  0.19833742582E+02  0.52971627671E+01  0.34063363692E+02  0.39771221055E+02  0.00000000000E+00 0.  1.
</event>
<event>
 7    1  0.3925070E-015  0.9000753E+02  0.7816164E-02  0.1186339E+00
        -11   -1    0    0    0    0  0.00000000000E+00  0.00000000000E+00  0.45593999997E+02  0.45594000000E+02  0.51100000000E-03 0.  1.
         11   -1    0    0    0    0 -0.00000000000E+00 -0.00000000000E+00 -0.45593999997E+02  0.45594000000E+02  0.51100000000E-03 0. -1.
    9900012    2    1    2    0    0  0.90802265576E+00  0.59972568206E+00  0.45753745715E+00  0.90007526975E+02  0.89999785531E+02 0.  0.
        -12    1    1    2    0    0 -0.90802265576E+00 -0.59972568206E+00 -0.45753745715E+00  0.11804730246E+01  0.00000000000E+00 0.  1.
         11    1    3    3    0    0 -0.16708140924E+02  0.26089365081E+02 -0.21039150281E+02  0.37449469799E+02  0.51100000000E-03 0. -1.
        -11    1    3    3    0    0 -0.10080076995E+02 -0.22450913556E+01  0.10588319383E+02  0.14790567772E+02  0.51100000000E-03 0.  1.
        -12    1    3    3    0    0  0.27696240574E+02 -0.23244548043E+02  0.10908368355E+02  0.37767489404E+02  0.00000000000E+00 0.  1.
</event>
<event>
 7    1  0.3925070E-015  0.9000775E+02  0.7816164E-02  0.1186339E+00
        -11   -1    0    0    0    0  0.00000000000E+00  0.00000000000E+00  0.45593999997E+02  0.45594000000E+02  0.51100000000E-03 0.  1.
         11   -1    0    0    0    0 -0.00000000000E+00 -0.00000000000E+00 -0.45593999997E+02  0.45594000000E+02  0.51100000000E-03 0. -1.
    9900012    2    1    2    0    0  0.85487762320E+00  0.11043048655E+00  0.80621129277E+00  0.90007751174E+02  0.90000012689E+02 0.  0.
        -12    1    1    2    0    0 -0.85487762320E+00 -0.11043048655E+00 -0.80621129277E+00  0.11802488261E+01  0.00000000000E+00 0.  1.
         11    1    3    3    0    0 -0.36986077232E+02  0.22652308496E+01  0.10522229923E+01  0.37070316337E+02  0.51100000000E-03 0. -1.
        -11    1    3    3    0    0 -0.49616354081E+01  0.14683506336E+01  0.76762256119E+01  0.92573386787E+01  0.51100000000E-03 0.  1.
        -12    1    3    3    0    0  0.42802590263E+02 -0.36231509967E+01 -0.79222373115E+01  0.43680096158E+02  0.00000000000E+00 0.  1.
</event>
<event>
 7    1  0.3925070E-015  0.9000810E+02  0.7816164E-02  0.1186338E+00
        -11   -1    0    0    0    0  0.00000000000E+00  0.00000000000E+00  0.45593999997E+02  0.45594000000E+02  0.51100000000E-03 0.  1.
         11   -1    0    0    0    0 -0.00000000000E+00 -0.00000000000E+00 -0.45593999997E+02  0.45594000000E+02  0.51100000000E-03 0. -1.
    9900012    2    1    2    0    0 -0.93200754202E+00 -0.68242862402E+00  0.24045377015E+00  0.90008099622E+02  0.90000365737E+02 0.  0.
        -12    1    1    2    0    0  0.93200754202E+00  0.68242862402E+00 -0.24045377015E+00  0.11799003775E+01  0.00000000000E+00 0.  1.
         11    1    3    3    0    0 -0.10666020516E+02 -0.60929911869E+00  0.12715621411E+02  0.16607897736E+02  0.51100000000E-03 0. -1.
        -11    1    3    3    0    0 -0.26053460307E+02 -0.15275061631E+02  0.52740712885E+01  0.30658214723E+02  0.51100000000E-03 0.  1.
         12    1    3    3    0    0  0.35787473280E+02  0.15201932126E+02 -0.17749238929E+02  0.42741987164E+02  0.00000000000E+00 0. -1.
</event>
<event>
 7    1  0.3925070E-015  0.9000789E+02  0.7816164E-02  0.1186339E+00
        -11   -1    0    0    0    0  0.00000000000E+00  0.00000000000E+00  0.45593999997E+02  0.45594000000E+02  0.51100000000E-03 0.  1.
         11   -1    0    0    0    0 -0.00000000000E+00 -0.00000000000E+00 -0.45593999997E+02  0.45594000000E+02  0.51100000000E-03 0. -1.
    9900012    2    1    2    0    0  0.72414986224E+00 -0.92893235791E+00 -0.73148915183E-01  0.90007890212E+02  0.90000153562E+02 0.  0.
        -12    1    1    2    0    0 -0.72414986224E+00  0.92893235791E+00  0.73148915183E-01  0.11801097883E+01  0.00000000000E+00 0.  1.
         11    1    3    3    0    0 -0.82717498227E+01 -0.29588540738E+01 -0.31328000392E+01  0.93269018922E+01  0.51100000000E-03 0. -1.
        -11    1    3    3    0    0 -0.27118337828E+02 -0.23745605026E+02  0.42571199142E+01  0.36295744583E+02  0.51100000000E-03 0.  1.
         12    1    3    3    0    0  0.36114237513E+02  0.25775526742E+02 -0.11974687902E+01  0.44385243736E+02  0.00000000000E+00 0. -1.
</event>
<event>
 7    1  0.3925070E-015  0.9000773E+02  0.7816164E-02  0.1186339E+00
        -11   -1    0    0    0    0  0.00000000000E+00  0.00000000000E+00  0.45593999997E+02  0.45594000000E+02  0.51100000000E-03 0.  1.
         11   -1    0    0    0    0 -0.00000000000E+00 -0.00000000000E+00 -0.45593999997E+02  0.45594000000E+02  0.51100000000E-03 0. -1.
    9900012    2    1    2    0    0  0.49337556478E+00 -0.10241063702E+01 -0.31753412016E+00  0.90007728327E+02  0.89999989541E+02 0.  0.
        -12    1    1    2    0    0 -0.49337556478E+00  0.10241063702E+01  0.31753412016E+00  0.11802716733E+01  0.00000000000E+00 0.  1.
         11    1    3    3    0    0  0.89645919943E+01  0.14491767805E+01  0.22378536351E+01  0.93526473321E+01  0.51100000000E-03 0. -1.
        -11    1    3    3    0    0  0.15386676262E+02 -0.21495045654E+02  0.27275192899E+02  0.37983192888E+02  0.51100000000E-03 0.  1.
         12    1    3    3    0    0 -0.23857892691E+02  0.19021762503E+02 -0.29830580654E+02  0.42671888106E+02  0.00000000000E+00 0. -1.
</event>
<event>
 7    1  0.3925070E-015  0.9000717E+02  0.7816164E-02  0.1186340E+00
        -11   -1    0    0    0    0  0.00000000000E+00  0.00000000000E+00  0.45593999997E+02  0.45594000000E+02  0.51100000000E-03 0. -1.
         11   -1    0    0    0    0 -0.00000000000E+00 -0.00000000000E+00 -0.45593999997E+02  0.45594000000E+02  0.51100000000E-03 0.  1.
    9900012    2    1    2    0    0  0.11516990879E+01  0.25928476061E-01 -0.25935453895E+00  0.90007174928E+02  0.89999428835E+02 0.  0.
        -12    1    1    2    0    0 -0.11516990879E+01 -0.25928476061E-01  0.25935453895E+00  0.11808250725E+01  0.00000000000E+00 0.  1.
         11    1    3    3    0    0 -0.17391806843E+02  0.19885248586E+02  0.30768476413E+02  0.40553633594E+02  0.51100000000E-03 0. -1.
        -11    1    3    3    0    0  0.74575807177E+01  0.62172506590E+01 -0.47500542356E+01  0.10808919068E+02  0.51100000000E-03 0.  1.
        -12    1    3    3    0    0  0.11085925213E+02 -0.26076570769E+02 -0.26277776717E+02  0.38644622266E+02  0.00000000000E+00 0.  1.
</event>
<event>
 7    1  0.3925070E-015  0.9000767E+02  0.7816164E-02  0.1186339E+00
        -11   -1    0    0    0    0  0.00000000000E+00  0.00000000000E+00  0.45593999997E+02  0.45594000000E+02  0.51100000000E-03 0. -1.
         11   -1    0    0    0    0 -0.00000000000E+00 -0.00000000000E+00 -0.45593999997E+02  0.45594000000E+02  0.51100000000E-03 0.  1.
    9900012    2    1    2    0    0 -0.11078538939E+01 -0.40063994098E+00  0.73009793425E-01  0.90007668249E+02  0.89999928670E+02 0.  0.
        -12    1    1    2    0    0  0.11078538939E+01  0.40063994098E+00 -0.73009793425E-01  0.11803317510E+01  0.00000000000E+00 0.  1.
         11    1    3    3    0    0 -0.10682710827E+02 -0.13705445359E+02 -0.25598063852E+02  0.30938978916E+02  0.51100000000E-03 0. -1.
        -11    1    3    3    0    0 -0.86422028632E+01  0.93590375552E+01 -0.11706760852E+02  0.17301083903E+02  0.51100000000E-03 0.  1.
        -12    1    3    3    0    0  0.18217059797E+02  0.39457678628E+01  0.37377834498E+02  0.41767605431E+02  0.00000000000E+00 0.  1.
</event>
<event>
 7    1  0.3925070E-015  0.9000765E+02  0.7816164E-02  0.1186339E+00
        -11   -1    0    0    0    0  0.00000000000E+00  0.00000000000E+00  0.45593999997E+02  0.45594000000E+02  0.51100000000E-03 0. -1.
         11   -1    0    0    0    0 -0.00000000000E+00 -0.00000000000E+00 -0.45593999997E+02  0.45594000000E+02  0.51100000000E-03 0.  1.
    9900012    2    1    2    0    0 -0.40622270482E+00  0.95242086248E+00 -0.56665828051E+00  0.90007650902E+02  0.89999911094E+02 0.  0.
        -12    1    1    2    0    0  0.40622270482E+00 -0.95242086248E+00  0.56665828051E+00  0.11803490975E+01  0.00000000000E+00 0.  1.
         11    1    3    3    0    0  0.34282809238E+02  0.10078105922E+02  0.11737789577E+02  0.37611898818E+02  0.51100000000E-03 0. -1.
        -11    1    3    3    0    0  0.65203056873E+01 -0.71457324541E+01 -0.22858229928E+01  0.99398624526E+01  0.51100000000E-03 0.  1.
        -12    1    3    3    0    0 -0.41209337631E+02 -0.19799526052E+01 -0.10018624865E+02  0.42455889632E+02  0.00000000000E+00 0.  1.
</event>
<event>
 7    1  0.3925070E-015  0.9000774E+02  0.7816164E-02  0.1186339E+00
        -11   -1    0    0    0    0  0.00000000000E+00  0.00000000000E+00  0.45593999997E+02  0.45594000000E+02  0.51100000000E-03 0. -1.
         11   -1    0    0    0    0 -0.00000000000E+00 -0.00000000000E+00 -0.45593999997E+02  0.45594000000E+02  0.51100000000E-03 0.  1.
    9900012    2    1    2    0    0 -0.31180339473E+00  0.11383184635E+01  0.36534130768E-02  0.90007744253E+02  0.90000005677E+02 0.  0.
        -12    1    1    2    0    0  0.31180339473E+00 -0.11383184635E+01 -0.36534130768E-02  0.11802557472E+01  0.00000000000E+00 0.  1.
         11    1    3    3    0    0 -0.69428482921E+00 -0.54341981423E+01  0.83435705107E+01  0.99813681428E+01  0.51100000000E-03 0. -1.
        -11    1    3    3    0    0  0.28056588281E+02  0.30372846113E+02 -0.12727389785E+02  0.43262782828E+02  0.51100000000E-03 0.  1.
         12    1    3    3    0    0 -0.27674106847E+02 -0.23800329508E+02  0.43874726875E+01  0.36763593282E+02  0.00000000000E+00 0. -1.
</event>
<event>
 7    1  0.3925070E-015  0.9000770E+02  0.7816164E-02  0.1186339E+00
        -11   -1    0    0    0    0  0.00000000000E+00  0.00000000000E+00  0.45593999997E+02  0.45594000000E+02  0.51100000000E-03 0. -1.
         11   -1    0    0    0    0 -0.00000000000E+00 -0.00000000000E+00 -0.45593999997E+02  0.45594000000E+02  0.51100000000E-03 0.  1.
    9900012    2    1    2    0    0 -0.71818832806E+00  0.69387944531E+00  0.62917040955E+00  0.90007695563E+02  0.89999956345E+02 0.  0.
        -12    1    1    2    0    0  0.71818832806E+00 -0.69387944531E+00 -0.62917040955E+00  0.11803044368E+01  0.00000000000E+00 0.  1.
         11    1    3    3    0    0  0.15274175124E+02 -0.82005632598E+01 -0.24599429686E+01  0.17510025219E+02  0.51100000000E-03 0. -1.
        -11    1    3    3    0    0  0.26251022735E+02  0.99728170749E+01 -0.72330091299E+01  0.28998098151E+02  0.51100000000E-03 0.  1.
         12    1    3    3    0    0 -0.42243386188E+02 -0.10783743698E+01  0.10322122508E+02  0.43499572193E+02  0.00000000000E+00 0. -1.
</event>
<event>
 7    1  0.3925070E-015  0.9000776E+02  0.7816164E-02  0.1186339E+00
        -11   -1    0    0    0    0  0.00000000000E+00  0.00000000000E+00  0.45593999997E+02  0.45594000000E+02  0.51100000000E-03 0.  1.
         11   -1    0    0    0    0 -0.00000000000E+00 -0.00000000000E+00 -0.45593999997E+02  0.45594000000E+02  0.51100000000E-03 0. -1.
    9900012    2    1    2    0    0 -0.74626619984E+00 -0.82222224789E+00  0.40000286081E+00  0.90007760637E+02  0.90000022277E+02 0.  0.
        -12    1    1    2    0    0  0.74626619984E+00  0.82222224789E+00 -0.40000286081E+00  0.11802393633E+01  0.00000000000E+00 0.  1.
         11    1    3    3    0    0  0.42259993640E+01 -0.33794684739E+01  0.92765838858E+01  0.10739408114E+02  0.51100000000E-03 0. -1.
        -11    1    3    3    0    0  0.20687195544E+02 -0.22661118026E+02  0.16881228700E+02  0.35020882519E+02  0.51100000000E-03 0.  1.
         12    1    3    3    0    0 -0.25659461108E+02  0.25218364252E+02 -0.25757809725E+02  0.44247470004E+02  0.00000000000E+00 0. -1.
</event>
<event>
 7    1  0.3925070E-015  0.9000774E+02  0.7816164E-02  0.1186339E+00
        -11   -1    0    0    0    0  0.00000000000E+00  0.00000000000E+00  0.45593999997E+02  0.45594000000E+02  0.51100000000E-03 0.  1.
         11   -1    0    0    0    0 -0.00000000000E+00 -0.00000000000E+00 -0.45593999997E+02  0.45594000000E+02  0.51100000000E-03 0. -1.
    9900012    2    1    2    0    0 -0.67083875845E+00 -0.65505795937E+00  0.71685934181E+00  0.90007740331E+02  0.90000001704E+02 0.  0.
        -12    1    1    2    0    0  0.67083875845E+00  0.65505795937E+00 -0.71685934181E+00  0.11802596688E+01  0.00000000000E+00 0.  1.
         11    1    3    3    0    0 -0.12768575483E+02 -0.18612677195E+02  0.29267882901E+02  0.36960482166E+02  0.51100000000E-03 0. -1.
        -11    1    3    3    0    0 -0.44792605372E+01  0.94464746391E+01  0.72256232747E+01  0.12708630534E+02  0.51100000000E-03 0.  1.
        -12    1    3    3    0    0  0.16576997262E+02  0.85111445962E+01 -0.35776646833E+02  0.40338627632E+02  0.00000000000E+00 0.  1.
</event>
<event>
 7    1  0.3925070E-015  0.9000775E+02  0.7816164E-02  0.1186339E+00
        -11   -1    0    0    0    0  0.00000000000E+00  0.00000000000E+00  0.45593999997E+02  0.45594000000E+02  0.51100000000E-03 0. -1.
         11   -1    0    0    0    0 -0.00000000000E+00 -0.00000000000E+00 -0.45593999997E+02  0.45594000000E+02  0.51100000000E-03 0.  1.
    9900012    2    1    2    0    0 -0.11638846921E+01  0.19407443524E+00 -0.26537286247E-01  0.90007747192E+02  0.90000008655E+02 0.  0.
        -12    1    1    2    0    0  0.11638846921E+01 -0.19407443524E+00  0.26537286247E-01  0.11802528078E+01  0.00000000000E+00 0.  1.
         11    1    3    3    0    0  0.31262329947E+02 -0.21084025350E+02  0.97449484556E+01  0.38946545666E+02  0.51100000000E-03 0. -1.
        -11    1    3    3    0    0  0.45782626017E+01  0.48856854741E+01  0.45879522304E+01  0.81166321176E+01  0.51100000000E-03 0.  1.
        -12    1    3    3    0    0 -0.37004477241E+02  0.16392414311E+02 -0.14359437972E+02  0.42944569408E+02  0.00000000000E+00 0.  1.
</event>
<event>
 7    1  0.3925070E-015  0.9000769E+02  0.7816164E-02  0.1186339E+00
        -11   -1    0    0    0    0  0.00000000000E+00  0.00000000000E+00  0.45593999997E+02  0.45594000000E+02  0.51100000000E-03 0. -1.
         11   -1    0    0    0    0 -0.00000000000E+00 -0.00000000000E+00 -0.45593999997E+02  0.45594000000E+02  0.51100000000E-03 0.  1.
    9900012    2    1    2    0    0  0.11556851904E+00  0.53623982669E+00  0.10450964511E+01  0.90007688250E+02  0.89999948935E+02 0.  0.
        -12    1    1    2    0    0 -0.11556851904E+00 -0.53623982669E+00 -0.10450964511E+01  0.11803117496E+01  0.00000000000E+00 0.  1.
         11    1    3    3    0    0 -0.34554665281E+02  0.24798842605E+02 -0.13020687142E+02  0.44480847352E+02  0.51100000000E-03 0. -1.
        -11    1    3    3    0    0  0.30335962131E+01 -0.59956636113E+01  0.14151393233E+01  0.68668266098E+01  0.51100000000E-03 0.  1.
        -12    1    3    3    0    0  0.31636637587E+02 -0.18266939167E+02  0.12650644270E+02  0.38660014289E+02  0.00000000000E+00 0.  1.
</event>
<event>
 7    1  0.3925070E-015  0.9000772E+02  0.7816164E-02  0.1186339E+00
        -11   -1    0    0    0    0  0.00000000000E+00  0.00000000000E+00  0.45593999997E+02  0.45594000000E+02  0.51100000000E-03 0.  1.
         11   -1    0    0    0    0 -0.00000000000E+00 -0.00000000000E+00 -0.45593999997E+02  0.45594000000E+02  0.51100000000E-03 0. -1.
    9900012    2    1    2    0    0  0.98193552888E+00 -0.47794490491E+00  0.44769206220E+00  0.90007721686E+02  0.89999982813E+02 0.  0.
        -12    1    1    2    0    0 -0.98193552888E+00  0.47794490491E+00 -0.44769206220E+00  0.11802783136E+01  0.00000000000E+00 0.  1.
         11    1    3    3    0    0  0.32302159686E+02  0.13854304943E+02 -0.21745586809E+02  0.41330882301E+02  0.51100000000E-03 0. -1.
        -11    1    3    3    0    0 -0.21445441701E+00  0.21580403039E+01  0.11758050554E+02  0.11956374105E+02  0.51100000000E-03 0.  1.
        -12    1    3    3    0    0 -0.31105769740E+02 -0.16490290151E+02  0.10435228317E+02  0.36720465280E+02  0.00000000000E+00 0.  1.
</event>
<event>
 7    1  0.3925070E-015  0.9000761E+02  0.7816164E-02  0.1186339E+00
        -11   -1    0    0    0    0  0.00000000000E+00  0.00000000000E+00  0.45593999997E+02  0.45594000000E+02  0.51100000000E-03 0.  1.
         11   -1    0    0    0    0 -0.00000000000E+00 -0.00000000000E+00 -0.45593999997E+02  0.45594000000E+02  0.51100000000E-03 0. -1.
    9900012    2    1    2    0    0 -0.93665261468E+00 -0.41158827929E+00 -0.58872982883E+00  0.90007607759E+02  0.89999867381E+02 0.  0.
        -12    1    1    2    0    0  0.93665261468E+00  0.41158827929E+00  0.58872982883E+00  0.11803922414E+01  0.00000000000E+00 0.  1.
         11    1    3    3    0    0  0.10154915103E+01  0.22824574543E+01 -0.98777061835E+01  0.10188715068E+02  0.51100000000E-03 0. -1.
        -11    1    3    3    0    0 -0.16540529855E+02 -0.37499050164E+02  0.95345500988E+01  0.42079395634E+02  0.51100000000E-03 0.  1.
         12    1    3    3    0    0  0.14588385730E+02  0.34805004430E+02 -0.24557374417E+00  0.37739497056E+02  0.00000000000E+00 0. -1.
</event>
<event>
 7    1  0.3925070E-015  0.9000773E+02  0.7816164E-02  0.1186339E+00
        -11   -1    0    0    0    0  0.00000000000E+00  0.00000000000E+00  0.45593999997E+02  0.45594000000E+02  0.51100000000E-03 0.  1.
         11   -1    0    0    0    0 -0.00000000000E+00 -0.00000000000E+00 -0.45593999997E+02  0.45594000000E+02  0.51100000000E-03 0. -1.
    9900012    2    1    2    0    0  0.52848167781E-01 -0.11618994734E+01  0.20057967107E+00  0.90007730743E+02  0.89999991989E+02 0.  0.
        -12    1    1    2    0    0 -0.52848167781E-01  0.11618994734E+01 -0.20057967107E+00  0.11802692572E+01  0.00000000000E+00 0.  1.
         11    1    3    3    0    0  0.29785987221E+02 -0.21356290305E+02 -0.97756650606E+01  0.37932305466E+02  0.51100000000E-03 0. -1.
        -11    1    3    3    0    0 -0.12558338419E+01 -0.30532934699E+01 -0.97935674619E+01  0.10335070563E+02  0.51100000000E-03 0.  1.
        -12    1    3    3    0    0 -0.28477305211E+02  0.23247684301E+02  0.19769812194E+02  0.41740354714E+02  0.00000000000E+00 0.  1.
</event>
<event>
 7    1  0.3925070E-015  0.9000770E+02  0.7816164E-02  0.1186339E+00
        -11   -1    0    0    0    0  0.00000000000E+00  0.00000000000E+00  0.45593999997E+02  0.45594000000E+02  0.51100000000E-03 0.  1.
         11   -1    0    0    0    0 -0.00000000000E+00 -0.00000000000E+00 -0.45593999997E+02  0.45594000000E+02  0.51100000000E-03 0. -1.
    9900012    2    1    2    0    0 -0.30990182483E+00 -0.23471744331E+00 -0.11144442398E+01  0.90007696063E+02  0.89999956851E+02 0.  0.
        -12    1    1    2    0    0  0.30990182483E+00  0.23471744331E+00  0.11144442398E+01  0.11803039367E+01  0.00000000000E+00 0.  1.
         11    1    3    3    0    0  0.59323630941E+01 -0.73194374466E+01  0.36377765179E+01  0.10099530418E+02  0.51100000000E-03 0. -1.
        -11    1    3    3    0    0  0.30120258870E+02 -0.17628091142E+02 -0.80610511999E+01  0.35818432942E+02  0.51100000000E-03 0.  1.
         12    1    3    3    0    0 -0.36362523789E+02  0.24712811145E+02  0.33088304422E+01  0.44089732703E+02  0.00000000000E+00 0. -1.
</event>
<event>
 7    1  0.3925070E-015  0.9000777E+02  0.7816164E-02  0.1186339E+00
        -11   -1    0    0    0    0  0.00000000000E+00  0.00000000000E+00  0.45593999997E+02  0.45594000000E+02  0.51100000000E-03 0.  1.
         11   -1    0    0    0    0 -0.00000000000E+00 -0.00000000000E+00 -0.45593999997E+02  0.45594000000E+02  0.51100000000E-03 0. -1.
    9900012    2    1    2    0    0 -0.39556982957E+00 -0.10796630503E+01  0.26608615580E+00  0.90007767127E+02  0.90000028853E+02 0.  0.
        -12    1    1    2    0    0  0.39556982957E+00  0.10796630503E+01 -0.26608615580E+00  0.11802328730E+01  0.00000000000E+00 0.  1.
         11    1    3    3    0    0 -0.14951146820E+02 -0.37231842985E+01 -0.33324842885E+02  0.36714357493E+02  0.51100000000E-03 0. -1.
        -11    1    3    3    0    0 -0.44020762304E+01  0.71954546203E+01 -0.51783641796E+01  0.98978936229E+01  0.51100000000E-03 0.  1.
        -12    1    3    3    0    0  0.18957653221E+02 -0.45519333721E+01  0.38769293220E+02  0.43395516011E+02  0.00000000000E+00 0.  1.
</event>
<event>
 7    1  0.3925070E-015  0.9000776E+02  0.7816164E-02  0.1186339E+00
        -11   -1    0    0    0    0  0.00000000000E+00  0.00000000000E+00  0.45593999997E+02  0.45594000000E+02  0.51100000000E-03 0.  1.
         11   -1    0    0    0    0 -0.00000000000E+00 -0.00000000000E+00 -0.45593999997E+02  0.45594000000E+02  0.51100000000E-03 0. -1.
    9900012    2    1    2    0    0 -0.11333377159E+01 -0.22061593612E+00 -0.24460465689E+00  0.90007763919E+02  0.90000025602E+02 0.  0.
        -12    1    1    2    0    0  0.11333377159E+01  0.22061593612E+00  0.24460465689E+00  0.11802360813E+01  0.00000000000E+00 0.  1.
         11    1    3    3    0    0 -0.16901062670E+02  0.20313852393E+02 -0.29306476473E+01  0.26587350645E+02  0.51100000000E-03 0. -1.
        -11    1    3    3    0    0 -0.17191550717E+02 -0.20189558301E+02 -0.96613980844E+01  0.28222513950E+02  0.51100000000E-03 0.  1.
        -12    1    3    3    0    0  0.32959275671E+02 -0.34491002823E+00  0.12347441075E+02  0.35197899324E+02  0.00000000000E+00 0.  1.
</event>
<event>
 7    1  0.3925070E-015  0.9000779E+02  0.7816164E-02  0.1186339E+00
        -11   -1    0    0    0    0  0.00000000000E+00  0.00000000000E+00  0.45593999997E+02  0.45594000000E+02  0.51100000000E-03 0. -1.
         11   -1    0    0    0    0 -0.00000000000E+00 -0.00000000000E+00 -0.45593999997E+02  0.45594000000E+02  0.51100000000E-03 0.  1.
    9900012    2    1    2    0    0 -0.91517319691E+00  0.67410343853E+00  0.31771241873E+00  0.90007788745E+02  0.90000050756E+02 0.  0.
        -12    1    1    2    0    0  0.91517319691E+00 -0.67410343853E+00 -0.31771241873E+00  0.11802112553E+01  0.00000000000E+00 0.  1.
         11    1    3    3    0    0 -0.26062089945E+02  0.22364074977E+02  0.54696346129E+01  0.34775009489E+02  0.51100000000E-03 0. -1.
        -11    1    3    3    0    0 -0.72558131883E+01  0.52081481551E+01  0.70607927715E+01  0.11385360207E+02  0.51100000000E-03 0.  1.
        -12    1    3    3    0    0  0.32402729937E+02 -0.26898119693E+02 -0.12212714966E+02  0.43847419049E+02  0.00000000000E+00 0.  1.
</event>
<event>
 7    1  0.3925070E-015  0.9000670E+02  0.7816164E-02  0.1186341E+00
        -11   -1    0    0    0    0  0.00000000000E+00  0.00000000000E+00  0.45593999997E+02  0.45594000000E+02  0.51100000000E-03 0. -1.
         11   -1    0    0    0    0 -0.00000000000E+00 -0.00000000000E+00 -0.45593999997E+02  0.45594000000E+02  0.51100000000E-03 0.  1.
    9900012    2    1    2    0    0 -0.62657238122E+00 -0.16908164805E+00  0.98705987847E+00  0.90006700395E+02  0.89998948034E+02 0.  0.
        -12    1    1    2    0    0  0.62657238122E+00  0.16908164805E+00 -0.98705987847E+00  0.11812996048E+01  0.00000000000E+00 0.  1.
         11    1    3    3    0    0 -0.43349613915E+01  0.87661535065E+01 -0.26419772582E+01  0.10130023774E+02  0.51100000000E-03 0. -1.
        -11    1    3    3    0    0  0.18977645784E+02 -0.90346310953E+01 -0.33603026785E+02  0.39635072952E+02  0.51100000000E-03 0.  1.
         12    1    3    3    0    0 -0.15269256774E+02  0.99395940737E-01  0.37232063922E+02  0.40241603669E+02  0.00000000000E+00 0. -1.
</event>
<event>
 7    1  0.3925070E-015  0.9000779E+02  0.7816164E-02  0.1186339E+00
        -11   -1    0    0    0    0  0.00000000000E+00  0.00000000000E+00  0.45593999997E+02  0.45594000000E+02  0.51100000000E-03 0. -1.
         11   -1    0    0    0    0 -0.00000000000E+00 -0.00000000000E+00 -0.45593999997E+02  0.45594000000E+02  0.51100000000E-03 0.  1.
    9900012    2    1    2    0    0 -0.55495388114E+00  0.68823961857E+00 -0.78181790560E+00  0.90007793738E+02  0.90000055816E+02 0.  0.
        -12    1    1    2    0    0  0.55495388114E+00 -0.68823961857E+00  0.78181790560E+00  0.11802062618E+01  0.00000000000E+00 0.  1.
         11    1    3    3    0    0 -0.69105408740E+01  0.15258081170E+02  0.13281199687E+02  0.21376503024E+02  0.51100000000E-03 0. -1.
        -11    1    3    3    0    0 -0.22033006878E+02  0.12202604374E+02 -0.15517108562E+02  0.29582724756E+02  0.51100000000E-03 0.  1.
         12    1    3    3    0    0  0.28388593871E+02 -0.26772445926E+02  0.14540909703E+01  0.39048565958E+02  0.00000000000E+00 0. -1.
</event>
<event>
 7    1  0.3925070E-015  0.9000773E+02  0.7816164E-02  0.1186339E+00
        -11   -1    0    0    0    0  0.00000000000E+00  0.00000000000E+00  0.45593999997E+02  0.45594000000E+02  0.51100000000E-03 0. -1.
         11   -1    0    0    0    0 -0.00000000000E+00 -0.00000000000E+00 -0.45593999997E+02  0.45594000000E+02  0.51100000000E-03 0.  1.
    9900012    2    1    2    0    0 -0.84529593400E+00 -0.58841421160E+00  0.57643149124E+00  0.90007733181E+02  0.89999994459E+02 0.  0.
        -12    1    1    2    0    0  0.84529593400E+00  0.58841421160E+00 -0.57643149124E+00  0.11802668192E+01  0.00000000000E+00 0.  1.
         11    1    3    3    0    0  0.87011455312E-01  0.58573449088E+01 -0.65403090194E+01  0.87801880791E+01  0.51100000000E-03 0. -1.
        -11    1    3    3    0    0 -0.31658356456E+02 -0.24661807331E+02 -0.10381974779E+02  0.41451678795E+02  0.51100000000E-03 0.  1.
         12    1    3    3    0    0  0.30726049067E+02  0.18216048210E+02  0.17498715290E+02  0.39775866307E+02  0.00000000000E+00 0. -1.
</event>
<event>
 7    1  0.3925070E-015  0.9000789E+02  0.7816164E-02  0.1186339E+00
        -11   -1    0    0    0    0  0.00000000000E+00  0.00000000000E+00  0.45593999997E+02  0.45594000000E+02  0.51100000000E-03 0.  1.
         11   -1    0    0    0    0 -0.00000000000E+00 -0.00000000000E+00 -0.45593999997E+02  0.45594000000E+02  0.51100000000E-03 0. -1.
    9900012    2    1    2    0    0  0.73571051155E+00 -0.65842023019E+00 -0.64642218944E+00  0.90007894580E+02  0.90000157988E+02 0.  0.
        -12    1    1    2    0    0 -0.73571051155E+00  0.65842023019E+00  0.64642218944E+00  0.11801054204E+01  0.00000000000E+00 0.  1.
         11    1    3    3    0    0  0.35623447339E+01 -0.15811276811E+01  0.79728211735E+01  0.88744657570E+01  0.51100000000E-03 0. -1.
        -11    1    3    3    0    0  0.27609699718E+00 -0.38363774053E+02  0.65235307129E+01  0.38915444779E+02  0.51100000000E-03 0.  1.
         12    1    3    3    0    0 -0.31027312196E+01  0.39286481504E+02 -0.15142774076E+02  0.42217984043E+02  0.00000000000E+00 0. -1.
</event>
<event>
 7    1  0.8447679E-015  0.9000772E+02  0.7816164E-02  0.1186339E+00
        -11   -1    0    0    0    0  0.00000000000E+00  0.00000000000E+00  0.45593999997E+02  0.45594000000E+02  0.51100000000E-03 0. -1.
         11   -1    0    0    0    0 -0.00000000000E+00 -0.00000000000E+00 -0.45593999997E+02  0.45594000000E+02  0.51100000000E-03 0.  1.
    9900012    2    1    2    0    0 -0.19056144531E+00 -0.97489649494E+00  0.63743509199E+00  0.90007720229E+02  0.89999981336E+02 0.  0.
        -12    1    1    2    0    0  0.19056144531E+00  0.97489649494E+00 -0.63743509199E+00  0.11802797706E+01  0.00000000000E+00 0.  1.
         11    1    3    3    0    0 -0.31836960334E+02 -0.10250009329E+01  0.17060085610E+02  0.36134321517E+02  0.51100000000E-03 0. -1.
        -11    1    3    3    0    0 -0.47882472496E+01  0.99733065776E+00  0.84393744600E+01  0.97542309641E+01  0.51100000000E-03 0.  1.
        -12    1    3    3    0    0  0.36434646139E+02 -0.94722621979E+00 -0.24862024978E+02  0.44119167748E+02  0.00000000000E+00 0.  1.
</event>
<event>
 7    1  0.3925070E-015  0.9000773E+02  0.7816164E-02  0.1186339E+00
        -11   -1    0    0    0    0  0.00000000000E+00  0.00000000000E+00  0.45593999997E+02  0.45594000000E+02  0.51100000000E-03 0. -1.
         11   -1    0    0    0    0 -0.00000000000E+00 -0.00000000000E+00 -0.45593999997E+02  0.45594000000E+02  0.51100000000E-03 0.  1.
    9900012    2    1    2    0    0 -0.40891242441E+00 -0.11066931130E+01  0.32464588263E-01  0.90007731824E+02  0.89999993084E+02 0.  0.
        -12    1    1    2    0    0  0.40891242441E+00  0.11066931130E+01 -0.32464588263E-01  0.11802681758E+01  0.00000000000E+00 0.  1.
         11    1    3    3    0    0 -0.28159643875E+02  0.19139773463E+02  0.14138597425E+02  0.36867281006E+02  0.51100000000E-03 0. -1.
        -11    1    3    3    0    0 -0.88182021575E+01  0.10962031391E+01 -0.27689435500E+01  0.93074915663E+01  0.51100000000E-03 0.  1.
        -12    1    3    3    0    0  0.36568933608E+02 -0.21342669715E+02 -0.11337189286E+02  0.43832959252E+02  0.00000000000E+00 0.  1.
</event>
<event>
 7    1  0.3925070E-015  0.9000809E+02  0.7816164E-02  0.1186338E+00
        -11   -1    0    0    0    0  0.00000000000E+00  0.00000000000E+00  0.45593999997E+02  0.45594000000E+02  0.51100000000E-03 0. -1.
         11   -1    0    0    0    0 -0.00000000000E+00 -0.00000000000E+00 -0.45593999997E+02  0.45594000000E+02  0.51100000000E-03 0.  1.
    9900012    2    1    2    0    0  0.83348611995E+00  0.72122764598E+00  0.42109105966E+00  0.90008090635E+02  0.90000356631E+02 0.  0.
        -12    1    1    2    0    0 -0.83348611995E+00 -0.72122764598E+00 -0.42109105966E+00  0.11799093652E+01  0.00000000000E+00 0.  1.
         11    1    3    3    0    0  0.36228899961E+02 -0.29162026906E+01  0.54957325295E+01  0.36759223425E+02  0.51100000000E-03 0. -1.
        -11    1    3    3    0    0  0.68857092920E+01  0.50531017175E+01  0.48133661179E+01  0.98038422605E+01  0.51100000000E-03 0.  1.
        -12    1    3    3    0    0 -0.42281123133E+02 -0.14156713809E+01 -0.98880075877E+01  0.43445024950E+02  0.00000000000E+00 0.  1.
</event>
<event>
 7    1  0.3925070E-015  0.9000783E+02  0.7816164E-02  0.1186339E+00
        -11   -1    0    0    0    0  0.00000000000E+00  0.00000000000E+00  0.45593999997E+02  0.45594000000E+02  0.51100000000E-03 0.  1.
         11   -1    0    0    0    0 -0.00000000000E+00 -0.00000000000E+00 -0.45593999997E+02  0.45594000000E+02  0.51100000000E-03 0. -1.
    9900012    2    1    2    0    0  0.96801342663E+00  0.94742177976E-01 -0.66842016547E+00  0.90007825609E+02  0.90000088107E+02 0.  0.
        -12    1    1    2    0    0 -0.96801342663E+00 -0.94742177976E-01  0.66842016547E+00  0.11801743905E+01  0.00000000000E+00 0.  1.
         11    1    3    3    0    0 -0.87622329829E+01 -0.10053380135E+01  0.53060953570E+01  0.10292816892E+02  0.51100000000E-03 0. -1.
        -11    1    3    3    0    0 -0.23474152817E+02  0.27985768628E+02  0.32518069851E+00  0.36528685152E+02  0.51100000000E-03 0.  1.
         12    1    3    3    0    0  0.33204399226E+02 -0.26885688437E+02 -0.62996962210E+01  0.43186323566E+02  0.00000000000E+00 0. -1.
</event>
<event>
 7    1  0.3925070E-015  0.9000770E+02  0.7816164E-02  0.1186339E+00
        -11   -1    0    0    0    0  0.00000000000E+00  0.00000000000E+00  0.45593999997E+02  0.45594000000E+02  0.51100000000E-03 0. -1.
         11   -1    0    0    0    0 -0.00000000000E+00 -0.00000000000E+00 -0.45593999997E+02  0.45594000000E+02  0.51100000000E-03 0.  1.
    9900012    2    1    2    0    0  0.56004462447E+00  0.95855253632E+00  0.40078599764E+00  0.90007702426E+02  0.89999963298E+02 0.  0.
        -12    1    1    2    0    0 -0.56004462447E+00 -0.95855253632E+00 -0.40078599764E+00  0.11802975736E+01  0.00000000000E+00 0.  1.
         11    1    3    3    0    0  0.81131299897E+00 -0.12623099461E+02  0.34063008847E+02  0.36335787328E+02  0.51100000000E-03 0. -1.
        -11    1    3    3    0    0  0.73829235107E+01 -0.10031313590E+02 -0.78488518736E+00  0.12480018306E+02  0.51100000000E-03 0.  1.
        -12    1    3    3    0    0 -0.76341918852E+01  0.23612965587E+02 -0.32877337662E+02  0.41191896792E+02  0.00000000000E+00 0.  1.
</event>
<event>
 7    1  0.3925070E-015  0.9000753E+02  0.7816164E-02  0.1186339E+00
        -11   -1    0    0    0    0  0.00000000000E+00  0.00000000000E+00  0.45593999997E+02  0.45594000000E+02  0.51100000000E-03 0.  1.
         11   -1    0    0    0    0 -0.00000000000E+00 -0.00000000000E+00 -0.45593999997E+02  0.45594000000E+02  0.51100000000E-03 0. -1.
    9900012    2    1    2    0    0  0.92705793720E-01  0.94435068055E+00 -0.70221653921E+00  0.90007533719E+02  0.89999792364E+02 0.  0.
        -12    1    1    2    0    0 -0.92705793720E-01 -0.94435068055E+00  0.70221653921E+00  0.11804662807E+01  0.00000000000E+00 0.  1.
         11    1    3    3    0    0 -0.23399031340E+02  0.29720372348E+02 -0.11680703202E+02  0.39588559304E+02  0.51100000000E-03 0. -1.
        -11    1    3    3    0    0  0.57022128782E+01  0.70533622655E+01  0.58876375734E+00  0.90891030350E+01  0.51100000000E-03 0.  1.
        -12    1    3    3    0    0  0.17789524256E+02 -0.35829383933E+02  0.10389722905E+02  0.41329871381E+02  0.00000000000E+00 0.  1.
</event>
<event>
 7    1  0.3925070E-015  0.9000772E+02  0.7816164E-02  0.1186339E+00
        -11   -1    0    0    0    0  0.00000000000E+00  0.00000000000E+00  0.45593999997E+02  0.45594000000E+02  0.51100000000E-03 0.  1.
         11   -1    0    0    0    0 -0.00000000000E+00 -0.00000000000E+00 -0.45593999997E+02  0.45594000000E+02  0.51100000000E-03 0. -1.
    9900012    2    1    2    0    0  0.67869699560E+00  0.61036162565E+00 -0.74826013904E+00  0.90007718609E+02  0.89999979695E+02 0.  0.
        -12    1    1    2    0    0 -0.67869699560E+00 -0.61036162565E+00  0.74826013904E+00  0.11802813908E+01  0.00000000000E+00 0.  1.
         11    1    3    3    0    0 -0.27353478912E+00 -0.23248284728E+01 -0.71674372061E+01  0.75400135990E+01  0.51100000000E-03 0. -1.
        -11    1    3    3    0    0  0.53959691897E+00 -0.31946025505E+02 -0.20883187751E+02  0.38169978272E+02  0.51100000000E-03 0.  1.
         12    1    3    3    0    0  0.41263486576E+00  0.34881215603E+02  0.27302364818E+02  0.44297726738E+02  0.00000000000E+00 0. -1.
</event>
<event>
 7    1  0.3925070E-015  0.9000791E+02  0.7816164E-02  0.1186339E+00
        -11   -1    0    0    0    0  0.00000000000E+00  0.00000000000E+00  0.45593999997E+02  0.45594000000E+02  0.51100000000E-03 0.  1.
         11   -1    0    0    0    0 -0.00000000000E+00 -0.00000000000E+00 -0.45593999997E+02  0.45594000000E+02  0.51100000000E-03 0. -1.
    9900012    2    1    2    0    0 -0.11056879406E+01 -0.39496372073E+00 -0.11866546429E+00  0.90007905235E+02  0.90000168784E+02 0.  0.
        -12    1    1    2    0    0  0.11056879406E+01  0.39496372073E+00  0.11866546429E+00  0.11800947653E+01  0.00000000000E+00 0.  1.
         11    1    3    3    0    0  0.31548512876E+02 -0.89817103642E+01  0.46179558588E+01  0.33125598898E+02  0.51100000000E-03 0. -1.
        -11    1    3    3    0    0  0.71968678692E+01 -0.57379770305E+01  0.84852857196E+01  0.12518760383E+02  0.51100000000E-03 0.  1.
        -12    1    3    3    0    0 -0.39851068686E+02  0.14324723674E+02 -0.13221907043E+02  0.44363545954E+02  0.00000000000E+00 0.  1.
</event>
<event>
 7    1  0.3925070E-015  0.9000786E+02  0.7816164E-02  0.1186339E+00
        -11   -1    0    0    0    0  0.00000000000E+00  0.00000000000E+00  0.45593999997E+02  0.45594000000E+02  0.51100000000E-03 0.  1.
         11   -1    0    0    0    0 -0.00000000000E+00 -0.00000000000E+00 -0.45593999997E+02  0.45594000000E+02  0.51100000000E-03 0. -1.
    9900012    2    1    2    0    0  0.97134853222E+00 -0.40213891695E+00 -0.53619659506E+00  0.90007855743E+02  0.90000118638E+02 0.  0.
        -12    1    1    2    0    0 -0.97134853222E+00  0.40213891695E+00  0.53619659506E+00  0.11801442573E+01  0.00000000000E+00 0.  1.
         11    1    3    3    0    0 -0.44118467012E+00 -0.17198996510E+01 -0.60029173796E+01  0.62600092691E+01  0.51100000000E-03 0. -1.
        -11    1    3    3    0    0 -0.41027295691E+02  0.24737130157E+01  0.19836994362E+01  0.41149645339E+02  0.51100000000E-03 0.  1.
         12    1    3    3    0    0  0.42439828893E+02 -0.11559522816E+01  0.34830213483E+01  0.42598201135E+02  0.00000000000E+00 0. -1.
</event>
<event>
 7    1  0.3925070E-015  0.9000740E+02  0.7816164E-02  0.1186340E+00
        -11   -1    0    0    0    0  0.00000000000E+00  0.00000000000E+00  0.45593999997E+02  0.45594000000E+02  0.51100000000E-03 0. -1.
         11   -1    0    0    0    0 -0.00000000000E+00 -0.00000000000E+00 -0.45593999997E+02  0.45594000000E+02  0.51100000000E-03 0.  1.
    9900012    2    1    2    0    0 -0.54978161148E+00 -0.38950976223E+00  0.96945123420E+00  0.90007401266E+02  0.89999658162E+02 0.  0.
        -12    1    1    2    0    0  0.54978161148E+00  0.38950976223E+00 -0.96945123420E+00  0.11805987340E+01  0.00000000000E+00 0.  1.
         11    1    3    3    0    0 -0.25429565083E+02 -0.18048475016E+02 -0.12095389746E+02  0.33447102776E+02  0.51100000000E-03 0. -1.
        -11    1    3    3    0    0 -0.79971209300E+01 -0.96618474859E+00 -0.95735801551E+01  0.12511630325E+02  0.51100000000E-03 0.  1.
        -12    1    3    3    0    0  0.32876904402E+02  0.18625150002E+02  0.22638421135E+02  0.44048668165E+02  0.00000000000E+00 0.  1.
</event>
<event>
 7    1  0.3925070E-015  0.9000770E+02  0.7816164E-02  0.1186339E+00
        -11   -1    0    0    0    0  0.00000000000E+00  0.00000000000E+00  0.45593999997E+02  0.45594000000E+02  0.51100000000E-03 0. -1.
         11   -1    0    0    0    0 -0.00000000000E+00 -0.00000000000E+00 -0.45593999997E+02  0.45594000000E+02  0.51100000000E-03 0.  1.
    9900012    2    1    2    0    0 -0.17234682142E+00  0.14801180081E+00  0.11582330070E+01  0.90007697234E+02  0.89999958038E+02 0.  0.
        -12    1    1    2    0    0  0.17234682142E+00 -0.14801180081E+00 -0.11582330070E+01  0.11803027657E+01  0.00000000000E+00 0.  1.
         11    1    3    3    0    0 -0.57283231306E+01  0.14135382815E+02  0.35001731561E+02  0.38180413117E+02  0.51100000000E-03 0. -1.
        -11    1    3    3    0    0 -0.22985482014E+01  0.93171825584E+01  0.47349034534E+00  0.96081948371E+01  0.51100000000E-03 0.  1.
        -12    1    3    3    0    0  0.78545245106E+01 -0.23304553573E+02 -0.34316988900E+02  0.42219089280E+02  0.00000000000E+00 0.  1.
</event>
<event>
 7    1  0.3925070E-015  0.9000775E+02  0.7816164E-02  0.1186339E+00
        -11   -1    0    0    0    0  0.00000000000E+00  0.00000000000E+00  0.45593999997E+02  0.45594000000E+02  0.51100000000E-03 0.  1.
         11   -1    0    0    0    0 -0.00000000000E+00 -0.00000000000E+00 -0.45593999997E+02  0.45594000000E+02  0.51100000000E-03 0. -1.
    9900012    2    1    2    0    0  0.12534757526E+00 -0.92303190887E+00  0.72477171488E+00  0.90007748350E+02  0.90000009828E+02 0.  0.
        -12    1    1    2    0    0 -0.12534757526E+00  0.92303190887E+00 -0.72477171488E+00  0.11802516503E+01  0.00000000000E+00 0.  1.
         11    1    3    3    0    0 -0.28663094114E+02  0.15555681626E+02 -0.24653101123E+02  0.40881873615E+02  0.51100000000E-03 0. -1.
        -11    1    3    3    0    0  0.82514284660E+01  0.14142113357E+01 -0.38141771596E+01  0.91996746191E+01  0.51100000000E-03 0.  1.
        -12    1    3    3    0    0  0.20537013224E+02 -0.17892924870E+02  0.29192049998E+02  0.39926200115E+02  0.00000000000E+00 0.  1.
</event>
<event>
 7    1  0.3925070E-015  0.9000780E+02  0.7816164E-02  0.1186339E+00
        -11   -1    0    0    0    0  0.00000000000E+00  0.00000000000E+00  0.45593999997E+02  0.45594000000E+02  0.51100000000E-03 0.  1.
         11   -1    0    0    0    0 -0.00000000000E+00 -0.00000000000E+00 -0.45593999997E+02  0.45594000000E+02  0.51100000000E-03 0. -1.
    9900012    2    1    2    0    0 -0.47894695809E-01 -0.10385428671E+01 -0.55857010982E+00  0.90007802662E+02  0.90000064857E+02 0.  0.
        -12    1    1    2    0    0  0.47894695809E-01  0.10385428671E+01  0.55857010982E+00  0.11801973378E+01  0.00000000000E+00 0.  1.
         11    1    3    3    0    0 -0.38870644033E+00  0.80923461538E+01 -0.42854547167E+01  0.91652758475E+01  0.51100000000E-03 0. -1.
        -11    1    3    3    0    0 -0.87551920610E+01  0.19057609736E+02  0.33063205519E+02  0.39153817647E+02  0.51100000000E-03 0.  1.
         12    1    3    3    0    0  0.90960038055E+01 -0.28188498757E+02 -0.29336320912E+02  0.41688709168E+02  0.00000000000E+00 0. -1.
</event>
<event>
 7    1  0.3925070E-015  0.9000778E+02  0.7816164E-02  0.1186339E+00
        -11   -1    0    0    0    0  0.00000000000E+00  0.00000000000E+00  0.45593999997E+02  0.45594000000E+02  0.51100000000E-03 0.  1.
         11   -1    0    0    0    0 -0.00000000000E+00 -0.00000000000E+00 -0.45593999997E+02  0.45594000000E+02  0.51100000000E-03 0. -1.
    9900012    2    1    2    0    0 -0.25133248342E+00  0.10680342607E+01 -0.43479137770E+00  0.90007784451E+02  0.90000046406E+02 0.  0.
        -12    1    1    2    0    0  0.25133248342E+00 -0.10680342607E+01  0.43479137770E+00  0.11802155487E+01  0.00000000000E+00 0.  1.
         11    1    3    3    0    0  0.41883128904E+02 -0.72014085905E+01 -0.13142245302E+01  0.42518042744E+02  0.51100000000E-03 0. -1.
        -11    1    3    3    0    0 -0.43484636632E+01  0.57188257081E+01 -0.55468139534E+01  0.90764116811E+01  0.51100000000E-03 0.  1.
        -12    1    3    3    0    0 -0.37785997724E+02  0.25506171431E+01  0.64262471060E+01  0.38413330026E+02  0.00000000000E+00 0.  1.
</event>
<event>
 7    1  0.3925070E-015  0.9000757E+02  0.7816164E-02  0.1186339E+00
        -11   -1    0    0    0    0  0.00000000000E+00  0.00000000000E+00  0.45593999997E+02  0.45594000000E+02  0.51100000000E-03 0.  1.
         11   -1    0    0    0    0 -0.00000000000E+00 -0.00000000000E+00 -0.45593999997E+02  0.45594000000E+02  0.51100000000E-03 0. -1.
    9900012    2    1    2    0    0 -0.37373004207E+00  0.94371572281E+00 -0.60261249063E+00  0.90007569856E+02  0.89999828978E+02 0.  0.
        -12    1    1    2    0    0  0.37373004207E+00 -0.94371572281E+00  0.60261249063E+00  0.11804301435E+01  0.00000000000E+00 0.  1.
         11    1    3    3    0    0 -0.15196221843E+02  0.33802664915E+02  0.14481638145E+02  0.39790239473E+02  0.51100000000E-03 0. -1.
        -11    1    3    3    0    0  0.42238897843E+01  0.33368514919E+01  0.51216306289E+01  0.74301361595E+01  0.51100000000E-03 0.  1.
        -12    1    3    3    0    0  0.10598602017E+02 -0.36195800684E+02 -0.20205881265E+02  0.42787194224E+02  0.00000000000E+00 0.  1.
</event>
<event>
 7    1  0.3925070E-015  0.9000721E+02  0.7816164E-02  0.1186340E+00
        -11   -1    0    0    0    0  0.00000000000E+00  0.00000000000E+00  0.45593999997E+02  0.45594000000E+02  0.51100000000E-03 0.  1.
         11   -1    0    0    0    0 -0.00000000000E+00 -0.00000000000E+00 -0.45593999997E+02  0.45594000000E+02  0.51100000000E-03 0. -1.
    9900012    2    1    2    0    0  0.83045481394E+00  0.73262724936E+00 -0.40972361627E+00  0.90007207331E+02  0.89999461667E+02 0.  0.
        -12    1    1    2    0    0 -0.83045481394E+00 -0.73262724936E+00  0.40972361627E+00  0.11807926686E+01  0.00000000000E+00 0.  1.
         11    1    3    3    0    0 -0.35937658983E+02 -0.10068923599E+02  0.13578523092E+02  0.39714919681E+02  0.51100000000E-03 0. -1.
        -11    1    3    3    0    0  0.51722232880E+01 -0.82133623381E+01  0.23059982984E+01  0.99764143384E+01  0.51100000000E-03 0.  1.
        -12    1    3    3    0    0  0.31595890509E+02  0.19014913187E+02 -0.16294245007E+02  0.40315873312E+02  0.00000000000E+00 0.  1.
</event>
<event>
 7    1  0.3925070E-015  0.9000829E+02  0.7816164E-02  0.1186338E+00
        -11   -1    0    0    0    0  0.00000000000E+00  0.00000000000E+00  0.45593999997E+02  0.45594000000E+02  0.51100000000E-03 0.  1.
         11   -1    0    0    0    0 -0.00000000000E+00 -0.00000000000E+00 -0.45593999997E+02  0.45594000000E+02  0.51100000000E-03 0. -1.
    9900012    2    1    2    0    0 -0.67349418020E+00 -0.18073916371E+00 -0.95155502258E+00  0.90008289011E+02  0.90000557624E+02 0.  0.
        -12    1    1    2    0    0  0.67349418020E+00  0.18073916371E+00  0.95155502258E+00  0.11797109888E+01  0.00000000000E+00 0.  1.
         11    1    3    3    0    0  0.18296284961E+02 -0.33007782435E+02  0.38138241883E+00  0.37741398986E+02  0.51100000000E-03 0. -1.
        -11    1    3    3    0    0  0.36006104216E+01 -0.17226802861E+01 -0.94042887828E+01  0.10216294365E+02  0.51100000000E-03 0.  1.
        -12    1    3    3    0    0 -0.22570389563E+02  0.34549723557E+02  0.80713513414E+01  0.42050595660E+02  0.00000000000E+00 0.  1.
</event>
<event>
 7    1  0.3925070E-015  0.9000784E+02  0.7816164E-02  0.1186339E+00
        -11   -1    0    0    0    0  0.00000000000E+00  0.00000000000E+00  0.45593999997E+02  0.45594000000E+02  0.51100000000E-03 0. -1.
         11   -1    0    0    0    0 -0.00000000000E+00 -0.00000000000E+00 -0.45593999997E+02  0.45594000000E+02  0.51100000000E-03 0.  1.
    9900012    2    1    2    0    0  0.71896136079E+00  0.14635867397E+00  0.92436776000E+00  0.90007838123E+02  0.90000100786E+02 0.  0.
        -12    1    1    2    0    0 -0.71896136079E+00 -0.14635867397E+00 -0.92436776000E+00  0.11801618768E+01  0.00000000000E+00 0.  1.
         11    1    3    3    0    0  0.87004056774E+01 -0.10354938821E+02  0.25989755491E+01  0.13772308851E+02  0.51100000000E-03 0. -1.
        -11    1    3    3    0    0 -0.22286904122E+02 -0.27333439288E+02 -0.51312455829E+01  0.35639201452E+02  0.51100000000E-03 0.  1.
         12    1    3    3    0    0  0.14305459805E+02  0.37834736782E+02  0.34566377939E+01  0.40596327820E+02  0.00000000000E+00 0. -1.
</event>
<event>
 7    1  0.3925070E-015  0.9000774E+02  0.7816164E-02  0.1186339E+00
        -11   -1    0    0    0    0  0.00000000000E+00  0.00000000000E+00  0.45593999997E+02  0.45594000000E+02  0.51100000000E-03 0.  1.
         11   -1    0    0    0    0 -0.00000000000E+00 -0.00000000000E+00 -0.45593999997E+02  0.45594000000E+02  0.51100000000E-03 0. -1.
    9900012    2    1    2    0    0 -0.49555683889E+00 -0.10081907551E+01 -0.36193534511E+00  0.90007736312E+02  0.89999997631E+02 0.  0.
        -12    1    1    2    0    0  0.49555683889E+00  0.10081907551E+01  0.36193534511E+00  0.11802636880E+01  0.00000000000E+00 0.  1.
         11    1    3    3    0    0  0.69838232976E+01 -0.31188464751E+01  0.51862792806E+01  0.92411300296E+01  0.51100000000E-03 0. -1.
        -11    1    3    3    0    0 -0.32436655579E+01  0.33739805433E+02  0.20466305345E+02  0.39595018520E+02  0.51100000000E-03 0.  1.
         12    1    3    3    0    0 -0.42357145786E+01 -0.31629149713E+02 -0.26014519971E+02  0.41171587762E+02  0.00000000000E+00 0. -1.
</event>
<event>
 7    1  0.3925070E-015  0.9000827E+02  0.7816164E-02  0.1186338E+00
        -11   -1    0    0    0    0  0.00000000000E+00  0.00000000000E+00  0.45593999997E+02  0.45594000000E+02  0.51100000000E-03 0. -1.
         11   -1    0    0    0    0 -0.00000000000E+00 -0.00000000000E+00 -0.45593999997E+02  0.45594000000E+02  0.51100000000E-03 0.  1.
    9900012    2    1    2    0    0  0.13693753664E+00  0.66419010194E+00  0.96532510033E+00  0.90008274214E+02  0.90000542632E+02 0.  0.
        -12    1    1    2    0    0 -0.13693753664E+00 -0.66419010194E+00 -0.96532510033E+00  0.11797257858E+01  0.00000000000E+00 0.  1.
         11    1    3    3    0    0 -0.40232037098E+01 -0.16764563462E+01  0.61133710744E+01  0.75079944144E+01  0.51100000000E-03 0. -1.
        -11    1    3    3    0    0 -0.32147946088E+02 -0.34748129551E+01 -0.24852629347E+02  0.40782569174E+02  0.51100000000E-03 0.  1.
         12    1    3    3    0    0  0.36308087334E+02  0.58154594033E+01  0.19704583373E+02  0.41717710626E+02  0.00000000000E+00 0. -1.
</event>
<event>
 7    1  0.3925070E-015  0.9000776E+02  0.7816164E-02  0.1186339E+00
        -11   -1    0    0    0    0  0.00000000000E+00  0.00000000000E+00  0.45593999997E+02  0.45594000000E+02  0.51100000000E-03 0.  1.
         11   -1    0    0    0    0 -0.00000000000E+00 -0.00000000000E+00 -0.45593999997E+02  0.45594000000E+02  0.51100000000E-03 0. -1.
    9900012    2    1    2    0    0 -0.38457152293E+00 -0.11075295168E+01 -0.13582997621E+00  0.90007759910E+02  0.90000021541E+02 0.  0.
        -12    1    1    2    0    0  0.38457152293E+00  0.11075295168E+01  0.13582997621E+00  0.11802400896E+01  0.00000000000E+00 0.  1.
         11    1    3    3    0    0 -0.35140467297E+02  0.14640922350E+02 -0.92797635126E+01  0.39183198698E+02  0.51100000000E-03 0. -1.
        -11    1    3    3    0    0 -0.16859905257E+01 -0.75409664977E+01 -0.67203590770E+01  0.10240701448E+02  0.51100000000E-03 0.  1.
        -12    1    3    3    0    0  0.36441886300E+02 -0.82074853690E+01  0.15864292613E+02  0.40583859764E+02  0.00000000000E+00 0.  1.
</event>
<event>
 7    1  0.3925070E-015  0.9000763E+02  0.7816164E-02  0.1186339E+00
        -11   -1    0    0    0    0  0.00000000000E+00  0.00000000000E+00  0.45593999997E+02  0.45594000000E+02  0.51100000000E-03 0.  1.
         11   -1    0    0    0    0 -0.00000000000E+00 -0.00000000000E+00 -0.45593999997E+02  0.45594000000E+02  0.51100000000E-03 0. -1.
    9900012    2    1    2    0    0 -0.65014753357E+00 -0.90752452185E+00  0.38338263339E+00  0.90007629373E+02  0.89999889281E+02 0.  0.
        -12    1    1    2    0    0  0.65014753357E+00  0.90752452185E+00 -0.38338263339E+00  0.11803706269E+01  0.00000000000E+00 0.  1.
         11    1    3    3    0    0  0.53902857676E+01  0.37273624880E+01  0.56006352359E+01  0.86206453982E+01  0.51100000000E-03 0. -1.
        -11    1    3    3    0    0  0.32170210079E+01  0.19916899823E+02  0.30803626411E+02  0.36822486649E+02  0.51100000000E-03 0.  1.
         12    1    3    3    0    0 -0.92574543092E+01 -0.24551786833E+02 -0.36020879013E+02  0.44564497326E+02  0.00000000000E+00 0. -1.
</event>
<event>
 7    1  0.3925070E-015  0.9000777E+02  0.7816164E-02  0.1186339E+00
        -11   -1    0    0    0    0  0.00000000000E+00  0.00000000000E+00  0.45593999997E+02  0.45594000000E+02  0.51100000000E-03 0.  1.
         11   -1    0    0    0    0 -0.00000000000E+00 -0.00000000000E+00 -0.45593999997E+02  0.45594000000E+02  0.51100000000E-03 0. -1.
    9900012    2    1    2    0    0 -0.59737395873E+00  0.27136296853E-01 -0.10175214911E+01  0.90007770357E+02  0.90000032126E+02 0.  0.
        -12    1    1    2    0    0  0.59737395873E+00 -0.27136296853E-01  0.10175214911E+01  0.11802296429E+01  0.00000000000E+00 0.  1.
         11    1    3    3    0    0 -0.51247655635E+01 -0.22770246298E+02 -0.27282497525E+02  0.35903788241E+02  0.51100000000E-03 0. -1.
        -11    1    3    3    0    0 -0.68891912549E+01 -0.61587288962E+01 -0.45541545030E+01  0.10302000838E+02  0.51100000000E-03 0.  1.
        -12    1    3    3    0    0  0.11416582860E+02  0.28956111491E+02  0.30819130537E+02  0.43801981279E+02  0.00000000000E+00 0.  1.
</event>
<event>
 7    1  0.3925070E-015  0.9000767E+02  0.7816164E-02  0.1186339E+00
        -11   -1    0    0    0    0  0.00000000000E+00  0.00000000000E+00  0.45593999997E+02  0.45594000000E+02  0.51100000000E-03 0.  1.
         11   -1    0    0    0    0 -0.00000000000E+00 -0.00000000000E+00 -0.45593999997E+02  0.45594000000E+02  0.51100000000E-03 0. -1.
    9900012    2    1    2    0    0  0.22170951202E-01 -0.44753765595E+00 -0.10919671851E+01  0.90007672148E+02  0.89999932620E+02 0.  0.
        -12    1    1    2    0    0 -0.22170951202E-01  0.44753765595E+00  0.10919671851E+01  0.11803278519E+01  0.00000000000E+00 0.  1.
         11    1    3    3    0    0 -0.40806204039E+01  0.26220220359E+01  0.73996293347E+01  0.88476537562E+01  0.51100000000E-03 0. -1.
        -11    1    3    3    0    0 -0.37799106701E+02 -0.11602258948E+01 -0.10238172046E+02  0.39178294483E+02  0.51100000000E-03 0.  1.
         12    1    3    3    0    0  0.41901898056E+02 -0.19093337971E+01  0.17465755262E+01  0.41981723908E+02  0.00000000000E+00 0. -1.
</event>
<event>
 7    1  0.3925070E-015  0.9000775E+02  0.7816164E-02  0.1186339E+00
        -11   -1    0    0    0    0  0.00000000000E+00  0.00000000000E+00  0.45593999997E+02  0.45594000000E+02  0.51100000000E-03 0.  1.
         11   -1    0    0    0    0 -0.00000000000E+00 -0.00000000000E+00 -0.45593999997E+02  0.45594000000E+02  0.51100000000E-03 0. -1.
    9900012    2    1    2    0    0  0.45486406275E+00 -0.94408776653E+00 -0.54295369053E+00  0.90007745054E+02  0.90000006489E+02 0.  0.
        -12    1    1    2    0    0 -0.45486406275E+00  0.94408776653E+00  0.54295369053E+00  0.11802549456E+01  0.00000000000E+00 0.  1.
         11    1    3    3    0    0  0.92846262132E+00 -0.16043725338E+02 -0.32948000711E+02  0.36658340342E+02  0.51100000000E-03 0. -1.
        -11    1    3    3    0    0 -0.21604226305E+01 -0.35700331450E+01 -0.78798813660E+01  0.89165628581E+01  0.51100000000E-03 0.  1.
        -12    1    3    3    0    0  0.16868240719E+01  0.18669670716E+02  0.40284928387E+02  0.44432841854E+02  0.00000000000E+00 0.  1.
</event>
<event>
 7    1  0.3925070E-015  0.9000772E+02  0.7816164E-02  0.1186339E+00
        -11   -1    0    0    0    0  0.00000000000E+00  0.00000000000E+00  0.45593999997E+02  0.45594000000E+02  0.51100000000E-03 0. -1.
         11   -1    0    0    0    0 -0.00000000000E+00 -0.00000000000E+00 -0.45593999997E+02  0.45594000000E+02  0.51100000000E-03 0.  1.
    9900012    2    1    2    0    0  0.66933993584E+00 -0.43231039452E+00 -0.87072078688E+00  0.90007719137E+02  0.89999980230E+02 0.  0.
        -12    1    1    2    0    0 -0.66933993584E+00  0.43231039452E+00  0.87072078688E+00  0.11802808630E+01  0.00000000000E+00 0.  1.
         11    1    3    3    0    0 -0.20481681588E+02 -0.22734887293E+02 -0.32795633015E+02  0.44854519572E+02  0.51100000000E-03 0. -1.
        -11    1    3    3    0    0  0.62773525727E+01  0.16890451552E+01  0.60228465808E+01  0.88618683162E+01  0.51100000000E-03 0.  1.
        -12    1    3    3    0    0  0.14873668951E+02  0.20613531744E+02  0.25902065647E+02  0.36291331249E+02  0.00000000000E+00 0.  1.
</event>
<event>
 7    1  0.3925070E-015  0.9000770E+02  0.7816164E-02  0.1186339E+00
        -11   -1    0    0    0    0  0.00000000000E+00  0.00000000000E+00  0.45593999997E+02  0.45594000000E+02  0.51100000000E-03 0.  1.
         11   -1    0    0    0    0 -0.00000000000E+00 -0.00000000000E+00 -0.45593999997E+02  0.45594000000E+02  0.51100000000E-03 0. -1.
    9900012    2    1    2    0    0  0.34186397789E-01 -0.80578683457E+00 -0.86177308337E+00  0.90007697505E+02  0.89999958312E+02 0.  0.
        -12    1    1    2    0    0 -0.34186397789E-01  0.80578683457E+00  0.86177308337E+00  0.11803024950E+01  0.00000000000E+00 0.  1.
         11    1    3    3    0    0 -0.45216166141E+01 -0.42131866340E+02  0.10243930245E+02  0.43594463929E+02  0.51100000000E-03 0. -1.
        -11    1    3    3    0    0  0.78632892153E+00  0.75038195854E+01  0.47012364542E+01  0.88897269926E+01  0.51100000000E-03 0.  1.
        -12    1    3    3    0    0  0.37694740904E+01  0.33822259920E+02 -0.15806939782E+02  0.37523506583E+02  0.00000000000E+00 0.  1.
</event>
<event>
 7    1  0.3925070E-015  0.9000774E+02  0.7816164E-02  0.1186339E+00
        -11   -1    0    0    0    0  0.00000000000E+00  0.00000000000E+00  0.45593999997E+02  0.45594000000E+02  0.51100000000E-03 0. -1.
         11   -1    0    0    0    0 -0.00000000000E+00 -0.00000000000E+00 -0.45593999997E+02  0.45594000000E+02  0.51100000000E-03 0.  1.
    9900012    2    1    2    0    0  0.33162299519E+00  0.88247060707E+00 -0.71012611629E+00  0.90007742704E+02  0.90000004108E+02 0.  0.
        -12    1    1    2    0    0 -0.33162299519E+00 -0.88247060707E+00  0.71012611629E+00  0.11802572958E+01  0.00000000000E+00 0.  1.
         11    1    3    3    0    0 -0.35565885133E+02 -0.48148451406E+01 -0.14819499801E+02  0.38829531206E+02  0.51100000000E-03 0. -1.
        -11    1    3    3    0    0  0.57738957079E-01  0.96192197177E+01 -0.44831630118E+01  0.10612797587E+02  0.51100000000E-03 0.  1.
        -12    1    3    3    0    0  0.35839769171E+02 -0.39219039701E+01  0.18592536697E+02  0.40565413912E+02  0.00000000000E+00 0.  1.
</event>
<event>
 7    1  0.3925070E-015  0.9000764E+02  0.7816164E-02  0.1186339E+00
        -11   -1    0    0    0    0  0.00000000000E+00  0.00000000000E+00  0.45593999997E+02  0.45594000000E+02  0.51100000000E-03 0.  1.
         11   -1    0    0    0    0 -0.00000000000E+00 -0.00000000000E+00 -0.45593999997E+02  0.45594000000E+02  0.51100000000E-03 0. -1.
    9900012    2    1    2    0    0 -0.11038698347E+01 -0.20424786233E-01  0.41750045937E+00  0.90007638861E+02  0.89999898894E+02 0.  0.
        -12    1    1    2    0    0  0.11038698347E+01  0.20424786233E-01 -0.41750045937E+00  0.11803611385E+01  0.00000000000E+00 0.  1.
         11    1    3    3    0    0  0.29973987952E+02  0.28148616241E+02 -0.10070087035E+01  0.41131479633E+02  0.51100000000E-03 0. -1.
        -11    1    3    3    0    0  0.22350589479E+01 -0.11024692192E+02 -0.12328764696E+01  0.11316329399E+02  0.51100000000E-03 0.  1.
        -12    1    3    3    0    0 -0.33312916735E+02 -0.17144348836E+02  0.26573856324E+01  0.37559829829E+02  0.00000000000E+00 0.  1.
</event>
<event>
 7    1  0.3925070E-015  0.9000787E+02  0.7816164E-02  0.1186339E+00
        -11   -1    0    0    0    0  0.00000000000E+00  0.00000000000E+00  0.45593999997E+02  0.45594000000E+02  0.51100000000E-03 0. -1.
         11   -1    0    0    0    0 -0.00000000000E+00 -0.00000000000E+00 -0.45593999997E+02  0.45594000000E+02  0.51100000000E-03 0.  1.
    9900012    2    1    2    0    0 -0.65283634484E+00 -0.27577746397E+00  0.94363988560E+00  0.90007870881E+02  0.90000133977E+02 0.  0.
        -12    1    1    2    0    0  0.65283634484E+00  0.27577746397E+00 -0.94363988560E+00  0.11801291186E+01  0.00000000000E+00 0.  1.
         11    1    3    3    0    0 -0.10592627472E+02 -0.56496189974E+01 -0.64530842135E+01  0.13629535858E+02  0.51100000000E-03 0. -1.
        -11    1    3    3    0    0  0.19332904775E+02  0.90856220138E+01 -0.30456469353E+02  0.37200890583E+02  0.51100000000E-03 0.  1.
         12    1    3    3    0    0 -0.93931136476E+01 -0.37117804804E+01  0.37853193453E+02  0.39177444440E+02  0.00000000000E+00 0. -1.
</event>
<event>
 7    1  0.3925070E-015  0.9000777E+02  0.7816164E-02  0.1186339E+00
        -11   -1    0    0    0    0  0.00000000000E+00  0.00000000000E+00  0.45593999997E+02  0.45594000000E+02  0.51100000000E-03 0.  1.
         11   -1    0    0    0    0 -0.00000000000E+00 -0.00000000000E+00 -0.45593999997E+02  0.45594000000E+02  0.51100000000E-03 0. -1.
    9900012    2    1    2    0    0  0.21766466929E-01 -0.58791081643E+00 -0.10231443896E+01  0.90007772332E+02  0.90000034126E+02 0.  0.
        -12    1    1    2    0    0 -0.21766466929E-01  0.58791081643E+00  0.10231443896E+01  0.11802276684E+01  0.00000000000E+00 0.  1.
         11    1    3    3    0    0 -0.77448019369E+01 -0.37466848661E+02  0.14626601608E+01  0.38286891760E+02  0.51100000000E-03 0. -1.
        -11    1    3    3    0    0 -0.83419534815E+01 -0.18243572375E+01 -0.46880485458E+01  0.97413688282E+01  0.51100000000E-03 0.  1.
        -12    1    3    3    0    0  0.16108521885E+02  0.38703295082E+02  0.22022439953E+01  0.41979511743E+02  0.00000000000E+00 0.  1.
</event>
<event>
 7    1  0.3925070E-015  0.9000764E+02  0.7816164E-02  0.1186339E+00
        -11   -1    0    0    0    0  0.00000000000E+00  0.00000000000E+00  0.45593999997E+02  0.45594000000E+02  0.51100000000E-03 0.  1.
         11   -1    0    0    0    0 -0.00000000000E+00 -0.00000000000E+00 -0.45593999997E+02  0.45594000000E+02  0.51100000000E-03 0. -1.
    9900012    2    1    2    0    0 -0.53472684835E-01 -0.10388106122E+01 -0.55790936617E+00  0.90007640022E+02  0.89999900071E+02 0.  0.
        -12    1    1    2    0    0  0.53472684835E-01  0.10388106122E+01  0.55790936617E+00  0.11803599777E+01  0.00000000000E+00 0.  1.
         11    1    3    3    0    0  0.18943323389E+02  0.10956871587E+02 -0.33449966741E+02  0.39972525705E+02  0.51100000000E-03 0. -1.
        -11    1    3    3    0    0 -0.55500022390E+01  0.86005277081E+01  0.18047092693E+01  0.10393679691E+02  0.51100000000E-03 0.  1.
        -12    1    3    3    0    0 -0.13446793835E+02 -0.20596209908E+02  0.31087348105E+02  0.39641434626E+02  0.00000000000E+00 0.  1.
</event>
<event>
 7    1  0.3925070E-015  0.9000777E+02  0.7816164E-02  0.1186339E+00
        -11   -1    0    0    0    0  0.00000000000E+00  0.00000000000E+00  0.45593999997E+02  0.45594000000E+02  0.51100000000E-03 0.  1.
         11   -1    0    0    0    0 -0.00000000000E+00 -0.00000000000E+00 -0.45593999997E+02  0.45594000000E+02  0.51100000000E-03 0. -1.
    9900012    2    1    2    0    0  0.74869439526E+00 -0.70206885772E+00 -0.58265975433E+00  0.90007772747E+02  0.90000034548E+02 0.  0.
        -12    1    1    2    0    0 -0.74869439526E+00  0.70206885772E+00  0.58265975433E+00  0.11802272526E+01  0.00000000000E+00 0.  1.
         11    1    3    3    0    0  0.10451917225E+02 -0.55758580939E+00 -0.35976829614E+02  0.37468463338E+02  0.51100000000E-03 0. -1.
        -11    1    3    3    0    0 -0.84016074311E+01 -0.11932699678E+01 -0.64517492724E+01  0.10660017335E+02  0.51100000000E-03 0.  1.
        -12    1    3    3    0    0 -0.13016153989E+01  0.10487869195E+01  0.41845919132E+02  0.41879292074E+02  0.00000000000E+00 0.  1.
</event>
<event>
 7    1  0.3925070E-015  0.9000774E+02  0.7816164E-02  0.1186339E+00
        -11   -1    0    0    0    0  0.00000000000E+00  0.00000000000E+00  0.45593999997E+02  0.45594000000E+02  0.51100000000E-03 0.  1.
         11   -1    0    0    0    0 -0.00000000000E+00 -0.00000000000E+00 -0.45593999997E+02  0.45594000000E+02  0.51100000000E-03 0. -1.
    9900012    2    1    2    0    0  0.26831295822E+00  0.89595707084E+00 -0.71992239839E+00  0.90007737666E+02  0.89999999004E+02 0.  0.
        -12    1    1    2    0    0 -0.26831295822E+00 -0.89595707084E+00  0.71992239839E+00  0.11802623336E+01  0.00000000000E+00 0.  1.
         11    1    3    3    0    0 -0.33981187277E+02 -0.14860254241E+02 -0.30082116976E+01  0.37210181170E+02  0.51100000000E-03 0. -1.
        -11    1    3    3    0    0 -0.60277750212E+01  0.73646528154E+01  0.63721177809E+01  0.11453212129E+02  0.51100000000E-03 0.  1.
        -12    1    3    3    0    0  0.40277275256E+02  0.83915584968E+01 -0.40838284817E+01  0.41344344367E+02  0.00000000000E+00 0.  1.
</event>
<event>
 7    1  0.3925070E-015  0.9000771E+02  0.7816164E-02  0.1186339E+00
        -11   -1    0    0    0    0  0.00000000000E+00  0.00000000000E+00  0.45593999997E+02  0.45594000000E+02  0.51100000000E-03 0.  1.
         11   -1    0    0    0    0 -0.00000000000E+00 -0.00000000000E+00 -0.45593999997E+02  0.45594000000E+02  0.51100000000E-03 0. -1.
    9900012    2    1    2    0    0  0.86726429714E+00 -0.78487397971E+00  0.15783727393E+00  0.90007708879E+02  0.89999969836E+02 0.  0.
        -12    1    1    2    0    0 -0.86726429714E+00  0.78487397971E+00 -0.15783727393E+00  0.11802911209E+01  0.00000000000E+00 0.  1.
         11    1    3    3    0    0 -0.28935594246E+02  0.21917010528E+02 -0.10195001719E+02  0.37703607589E+02  0.51100000000E-03 0. -1.
        -11    1    3    3    0    0  0.14546206677E+01  0.42956046508E+01  0.12299236370E+02  0.13108751129E+02  0.51100000000E-03 0.  1.
        -12    1    3    3    0    0  0.28348237876E+02 -0.26997489159E+02 -0.19463973777E+01  0.39195350162E+02  0.00000000000E+00 0.  1.
</event>
<event>
 7    1  0.3925070E-015  0.9000774E+02  0.7816164E-02  0.1186339E+00
        -11   -1    0    0    0    0  0.00000000000E+00  0.00000000000E+00  0.45593999997E+02  0.45594000000E+02  0.51100000000E-03 0. -1.
         11   -1    0    0    0    0 -0.00000000000E+00 -0.00000000000E+00 -0.45593999997E+02  0.45594000000E+02  0.51100000000E-03 0.  1.
    9900012    2    1    2    0    0  0.11306018533E+00  0.78999115861E+00  0.86956826083E+00  0.90007738336E+02  0.89999999682E+02 0.  0.
        -12    1    1    2    0    0 -0.11306018533E+00 -0.78999115861E+00 -0.86956826083E+00  0.11802616644E+01  0.00000000000E+00 0.  1.
         11    1    3    3    0    0 -0.33064822127E+01 -0.26086561426E+01 -0.89909707617E+01  0.99285178648E+01  0.51100000000E-03 0. -1.
        -11    1    3    3    0    0  0.27192869607E+02 -0.80404159106E+01 -0.24003117865E+02  0.37151717497E+02  0.51100000000E-03 0.  1.
         12    1    3    3    0    0 -0.23773327209E+02  0.11439063212E+02  0.33863656888E+02  0.42927502974E+02  0.00000000000E+00 0. -1.
</event>
<event>
 7    1  0.3925070E-015  0.9000765E+02  0.7816164E-02  0.1186339E+00
        -11   -1    0    0    0    0  0.00000000000E+00  0.00000000000E+00  0.45593999997E+02  0.45594000000E+02  0.51100000000E-03 0. -1.
         11   -1    0    0    0    0 -0.00000000000E+00 -0.00000000000E+00 -0.45593999997E+02  0.45594000000E+02  0.51100000000E-03 0.  1.
    9900012    2    1    2    0    0 -0.75028421335E+00  0.21090671091E+00  0.88645930364E+00  0.90007653382E+02  0.89999913607E+02 0.  0.
        -12    1    1    2    0    0  0.75028421335E+00 -0.21090671091E+00 -0.88645930364E+00  0.11803466180E+01  0.00000000000E+00 0.  1.
         11    1    3    3    0    0 -0.33820265257E+02 -0.15920093846E+02 -0.10434422501E+02  0.38808979674E+02  0.51100000000E-03 0. -1.
        -11    1    3    3    0    0  0.32538597531E+00  0.55123847977E+01 -0.94856348237E+01  0.10975861263E+02  0.51100000000E-03 0.  1.
        -12    1    3    3    0    0  0.32744595068E+02  0.10618615760E+02  0.20806516628E+02  0.40222812446E+02  0.00000000000E+00 0.  1.
</event>
<event>
 7    1  0.3925070E-015  0.9000800E+02  0.7816164E-02  0.1186339E+00
        -11   -1    0    0    0    0  0.00000000000E+00  0.00000000000E+00  0.45593999997E+02  0.45594000000E+02  0.51100000000E-03 0.  1.
         11   -1    0    0    0    0 -0.00000000000E+00 -0.00000000000E+00 -0.45593999997E+02  0.45594000000E+02  0.51100000000E-03 0. -1.
    9900012    2    1    2    0    0 -0.57511680484E+00 -0.57171959565E+00 -0.85719168965E+00  0.90007999903E+02  0.90000264702E+02 0.  0.
        -12    1    1    2    0    0  0.57511680484E+00  0.57171959565E+00  0.85719168965E+00  0.11800000966E+01  0.00000000000E+00 0.  1.
         11    1    3    3    0    0  0.20867845140E+01  0.93889526601E+01 -0.98576716255E+00  0.96684455225E+01  0.51100000000E-03 0. -1.
        -11    1    3    3    0    0 -0.40936791545E+02 -0.42439618127E+01  0.44659720853E+01  0.41397790047E+02  0.51100000000E-03 0.  1.
         12    1    3    3    0    0  0.38274890226E+02 -0.57167104431E+01 -0.43373966124E+01  0.38941764334E+02  0.00000000000E+00 0. -1.
</event>
<event>
 7    1  0.3925070E-015  0.9000761E+02  0.7816164E-02  0.1186339E+00
        -11   -1    0    0    0    0  0.00000000000E+00  0.00000000000E+00  0.45593999997E+02  0.45594000000E+02  0.51100000000E-03 0.  1.
         11   -1    0    0    0    0 -0.00000000000E+00 -0.00000000000E+00 -0.45593999997E+02  0.45594000000E+02  0.51100000000E-03 0. -1.
    9900012    2    1    2    0    0  0.64192027904E+00  0.97427887371E+00 -0.17896573353E+00  0.90007614596E+02  0.89999874308E+02 0.  0.
        -12    1    1    2    0    0 -0.64192027904E+00 -0.97427887371E+00  0.17896573353E+00  0.11803854041E+01  0.00000000000E+00 0.  1.
         11    1    3    3    0    0  0.37735177350E+02 -0.14803628718E+02 -0.50829157398E+01  0.40852503785E+02  0.51100000000E-03 0. -1.
        -11    1    3    3    0    0  0.25958339463E+01  0.64528575792E+01  0.46823938721E+01  0.83846608428E+01  0.51100000000E-03 0.  1.
        -12    1    3    3    0    0 -0.39689091017E+02  0.93250500126E+01  0.22155613420E+00  0.40770449968E+02  0.00000000000E+00 0.  1.
</event>
<event>
 7    1  0.3925070E-015  0.9000775E+02  0.7816164E-02  0.1186339E+00
        -11   -1    0    0    0    0  0.00000000000E+00  0.00000000000E+00  0.45593999997E+02  0.45594000000E+02  0.51100000000E-03 0.  1.
         11   -1    0    0    0    0 -0.00000000000E+00 -0.00000000000E+00 -0.45593999997E+02  0.45594000000E+02  0.51100000000E-03 0. -1.
    9900012    2    1    2    0    0  0.73074656068E+00 -0.72796712777E+00  0.57363488032E+00  0.90007752716E+02  0.90000014252E+02 0.  0.
        -12    1    1    2    0    0 -0.73074656068E+00  0.72796712777E+00 -0.57363488032E+00  0.11802472838E+01  0.00000000000E+00 0.  1.
         11    1    3    3    0    0 -0.27953834835E+02 -0.28029680411E+02 -0.72372295084E+01  0.40242481995E+02  0.51100000000E-03 0. -1.
        -11    1    3    3    0    0  0.19309021329E+01 -0.23352800826E+01  0.93303374883E+01  0.98100516827E+01  0.51100000000E-03 0.  1.
        -12    1    3    3    0    0  0.26753679263E+02  0.29636993366E+02 -0.15194730996E+01  0.39955219038E+02  0.00000000000E+00 0.  1.
</event>
<event>
 7    1  0.3925070E-015  0.9000787E+02  0.7816164E-02  0.1186339E+00
        -11   -1    0    0    0    0  0.00000000000E+00  0.00000000000E+00  0.45593999997E+02  0.45594000000E+02  0.51100000000E-03 0.  1.
         11   -1    0    0    0    0 -0.00000000000E+00 -0.00000000000E+00 -0.45593999997E+02  0.45594000000E+02  0.51100000000E-03 0. -1.
    9900012    2    1    2    0    0  0.11325801228E+01 -0.54841342583E-01 -0.32703647120E+00  0.90007873667E+02  0.90000136800E+02 0.  0.
        -12    1    1    2    0    0 -0.11325801228E+01  0.54841342583E-01  0.32703647120E+00  0.11801263326E+01  0.00000000000E+00 0.  1.
         11    1    3    3    0    0  0.16274585132E+02 -0.32306482371E+02 -0.13475152698E+02  0.38602469673E+02  0.51100000000E-03 0. -1.
        -11    1    3    3    0    0  0.63085692340E+01 -0.27074386823E+01  0.72217721192E+01  0.99640485146E+01  0.51100000000E-03 0.  1.
        -12    1    3    3    0    0 -0.21450574243E+02  0.34959079710E+02  0.59263441072E+01  0.41441355480E+02  0.00000000000E+00 0.  1.
</event>
<event>
 7    1  0.3925070E-015  0.9000776E+02  0.7816164E-02  0.1186339E+00
        -11   -1    0    0    0    0  0.00000000000E+00  0.00000000000E+00  0.45593999997E+02  0.45594000000E+02  0.51100000000E-03 0.  1.
         11   -1    0    0    0    0 -0.00000000000E+00 -0.00000000000E+00 -0.45593999997E+02  0.45594000000E+02  0.51100000000E-03 0. -1.
    9900012    2    1    2    0    0 -0.74651086904E+00  0.73733620502E+00 -0.54039081319E+00  0.90007760453E+02  0.90000022091E+02 0.  0.
        -12    1    1    2    0    0  0.74651086904E+00 -0.73733620502E+00  0.54039081319E+00  0.11802395468E+01  0.00000000000E+00 0.  1.
         11    1    3    3    0    0  0.40266667783E+01 -0.41525494645E+02 -0.17554425043E+01  0.41757182969E+02  0.51100000000E-03 0. -1.
        -11    1    3    3    0    0 -0.14205368877E+01  0.42971408853E+01  0.83287109225E+01  0.94789646444E+01  0.51100000000E-03 0.  1.
        -12    1    3    3    0    0 -0.33526407596E+01  0.37965689965E+02 -0.71136592314E+01  0.38771612840E+02  0.00000000000E+00 0.  1.
</event>
<event>
 7    1  0.3925070E-015  0.9000794E+02  0.7816164E-02  0.1186339E+00
        -11   -1    0    0    0    0  0.00000000000E+00  0.00000000000E+00  0.45593999997E+02  0.45594000000E+02  0.51100000000E-03 0.  1.
         11   -1    0    0    0    0 -0.00000000000E+00 -0.00000000000E+00 -0.45593999997E+02  0.45594000000E+02  0.51100000000E-03 0. -1.
    9900012    2    1    2    0    0 -0.68961813145E-01  0.63542549614E+00 -0.99198285860E+00  0.90007935898E+02  0.90000199852E+02 0.  0.
        -12    1    1    2    0    0  0.68961813145E-01 -0.63542549614E+00  0.99198285860E+00  0.11800641019E+01  0.00000000000E+00 0.  1.
         11    1    3    3    0    0  0.35141234981E+02  0.78551193089E+01 -0.10878323220E+02  0.37615784077E+02  0.51100000000E-03 0. -1.
        -11    1    3    3    0    0  0.22864107527E+01 -0.16872618747E+01 -0.94317481462E+01  0.98505025313E+01  0.51100000000E-03 0.  1.
        -12    1    3    3    0    0 -0.37496607547E+02 -0.55324319380E+01  0.19318088508E+02  0.42541649290E+02  0.00000000000E+00 0.  1.
</event>
<event>
 7    1  0.3925070E-015  0.9000777E+02  0.7816164E-02  0.1186339E+00
        -11   -1    0    0    0    0  0.00000000000E+00  0.00000000000E+00  0.45593999997E+02  0.45594000000E+02  0.51100000000E-03 0. -1.
         11   -1    0    0    0    0 -0.00000000000E+00 -0.00000000000E+00 -0.45593999997E+02  0.45594000000E+02  0.51100000000E-03 0.  1.
    9900012    2    1    2    0    0  0.11271311854E+01 -0.11782205443E+00  0.32959118901E+00  0.90007772438E+02  0.90000034234E+02 0.  0.
        -12    1    1    2    0    0 -0.11271311854E+01  0.11782205443E+00 -0.32959118901E+00  0.11802275617E+01  0.00000000000E+00 0.  1.
         11    1    3    3    0    0 -0.20457900490E+02  0.34150733319E+02  0.90284042394E+01  0.40820464991E+02  0.51100000000E-03 0. -1.
        -11    1    3    3    0    0  0.93389462913E+01  0.30981143774E+00  0.42779607121E+01  0.10276811231E+02  0.51100000000E-03 0.  1.
        -12    1    3    3    0    0  0.12246085384E+02 -0.34578366811E+02 -0.12976773762E+02  0.38910496217E+02  0.00000000000E+00 0.  1.
</event>
<event>
 7    1  0.3925070E-015  0.9000781E+02  0.7816164E-02  0.1186339E+00
        -11   -1    0    0    0    0  0.00000000000E+00  0.00000000000E+00  0.45593999997E+02  0.45594000000E+02  0.51100000000E-03 0.  1.
         11   -1    0    0    0    0 -0.00000000000E+00 -0.00000000000E+00 -0.45593999997E+02  0.45594000000E+02  0.51100000000E-03 0. -1.
    9900012    2    1    2    0    0 -0.85060051114E-01  0.11567994455E+01  0.21779952069E+00  0.90007806456E+02  0.90000068701E+02 0.  0.
        -12    1    1    2    0    0  0.85060051114E-01 -0.11567994455E+01 -0.21779952069E+00  0.11801935437E+01  0.00000000000E+00 0.  1.
         11    1    3    3    0    0 -0.34876984984E+00  0.33884794029E+00  0.90889165611E+01  0.91019153396E+01  0.51100000000E-03 0. -1.
        -11    1    3    3    0    0  0.67859783104E+01 -0.22583851651E+02  0.28089830217E+02  0.36675856076E+02  0.51100000000E-03 0.  1.
         12    1    3    3    0    0 -0.65222685117E+01  0.23401803156E+02 -0.36960947258E+02  0.44230035040E+02  0.00000000000E+00 0. -1.
</event>
<event>
 7    1  0.3925070E-015  0.9000773E+02  0.7816164E-02  0.1186339E+00
        -11   -1    0    0    0    0  0.00000000000E+00  0.00000000000E+00  0.45593999997E+02  0.45594000000E+02  0.51100000000E-03 0.  1.
         11   -1    0    0    0    0 -0.00000000000E+00 -0.00000000000E+00 -0.45593999997E+02  0.45594000000E+02  0.51100000000E-03 0. -1.
    9900012    2    1    2    0    0  0.35693550377E+00  0.54875100112E+00 -0.98208913985E+00  0.90007733211E+02  0.89999994489E+02 0.  0.
        -12    1    1    2    0    0 -0.35693550377E+00 -0.54875100112E+00  0.98208913985E+00  0.11802667892E+01  0.00000000000E+00 0.  1.
         11    1    3    3    0    0 -0.14162166420E+01 -0.78667404080E+01 -0.25328331004E+02  0.26559661631E+02  0.51100000000E-03 0. -1.
        -11    1    3    3    0    0  0.27411715467E+02 -0.74931992971E+01  0.11936355509E+02  0.30822504175E+02  0.51100000000E-03 0.  1.
        -12    1    3    3    0    0 -0.25638563321E+02  0.15908690706E+02  0.12409886356E+02  0.32625567405E+02  0.00000000000E+00 0.  1.
</event>
<event>
 7    1  0.3925070E-015  0.9000769E+02  0.7816164E-02  0.1186339E+00
        -11   -1    0    0    0    0  0.00000000000E+00  0.00000000000E+00  0.45593999997E+02  0.45594000000E+02  0.51100000000E-03 0. -1.
         11   -1    0    0    0    0 -0.00000000000E+00 -0.00000000000E+00 -0.45593999997E+02  0.45594000000E+02  0.51100000000E-03 0.  1.
    9900012    2    1    2    0    0  0.10561695202E+01  0.50481500526E+00  0.15095595871E+00  0.90007694977E+02  0.89999955751E+02 0.  0.
        -12    1    1    2    0    0 -0.10561695202E+01 -0.50481500526E+00 -0.15095595871E+00  0.11803050226E+01  0.00000000000E+00 0.  1.
         11    1    3    3    0    0  0.32514808667E+02 -0.42981528394E+01  0.10801242209E+02  0.34530475438E+02  0.51100000000E-03 0. -1.
        -11    1    3    3    0    0  0.50841654042E+01 -0.11274808972E+02  0.39258412269E+01  0.12976219974E+02  0.51100000000E-03 0.  1.
        -12    1    3    3    0    0 -0.36542804551E+02  0.16077776817E+02 -0.14576127477E+02  0.42500999565E+02  0.00000000000E+00 0.  1.
</event>
<event>
 7    1  0.3925070E-015  0.9000773E+02  0.7816164E-02  0.1186339E+00
        -11   -1    0    0    0    0  0.00000000000E+00  0.00000000000E+00  0.45593999997E+02  0.45594000000E+02  0.51100000000E-03 0. -1.
         11   -1    0    0    0    0 -0.00000000000E+00 -0.00000000000E+00 -0.45593999997E+02  0.45594000000E+02  0.51100000000E-03 0.  1.
    9900012    2    1    2    0    0 -0.61758041200E+00  0.32069742620E+00 -0.95330434332E+00  0.90007728177E+02  0.89999989389E+02 0.  0.
        -12    1    1    2    0    0  0.61758041200E+00 -0.32069742620E+00  0.95330434332E+00  0.11802718227E+01  0.00000000000E+00 0.  1.
         11    1    3    3    0    0  0.28708010324E+01  0.39290017288E+01 -0.36106584669E+01  0.60593240529E+01  0.51100000000E-03 0. -1.
        -11    1    3    3    0    0 -0.30838258022E+02 -0.23111381530E+02 -0.20011631032E+02  0.43423490082E+02  0.51100000000E-03 0.  1.
         12    1    3    3    0    0  0.27349876578E+02  0.19503077227E+02  0.22668985155E+02  0.40524914042E+02  0.00000000000E+00 0. -1.
</event>
<event>
 7    1  0.3979811E-015  0.9000800E+02  0.7816164E-02  0.1186339E+00
        -11   -1    0    0    0    0  0.00000000000E+00  0.00000000000E+00  0.45593999997E+02  0.45594000000E+02  0.51100000000E-03 0.  1.
         11   -1    0    0    0    0 -0.00000000000E+00 -0.00000000000E+00 -0.45593999997E+02  0.45594000000E+02  0.51100000000E-03 0. -1.
    9900012    2    1    2    0    0 -0.98667565649E+00  0.63438012757E+00 -0.12817003378E+00  0.90008002307E+02  0.90000267137E+02 0.  0.
        -12    1    1    2    0    0  0.98667565649E+00 -0.63438012757E+00  0.12817003378E+00  0.11799976928E+01  0.00000000000E+00 0.  1.
         11    1    3    3    0    0 -0.38675441752E+02  0.59577982016E+01 -0.17815118819E+02  0.42996088344E+02  0.51100000000E-03 0. -1.
        -11    1    3    3    0    0  0.80647969463E+01 -0.41984318204E+01 -0.43441141005E+01  0.10076661506E+02  0.51100000000E-03 0.  1.
        -12    1    3    3    0    0  0.29623969149E+02 -0.11249862536E+01  0.22031062885E+02  0.36935252457E+02  0.00000000000E+00 0.  1.
</event>
<event>
 7    1  0.3925070E-015  0.9000776E+02  0.7816164E-02  0.1186339E+00
        -11   -1    0    0    0    0  0.00000000000E+00  0.00000000000E+00  0.45593999997E+02  0.45594000000E+02  0.51100000000E-03 0.  1.
         11   -1    0    0    0    0 -0.00000000000E+00 -0.00000000000E+00 -0.45593999997E+02  0.45594000000E+02  0.51100000000E-03 0. -1.
    9900012    2    1    2    0    0 -0.54233672559E+00  0.88037497489E+00 -0.56900918150E+00  0.90007762452E+02  0.90000024117E+02 0.  0.
        -12    1    1    2    0    0  0.54233672559E+00 -0.88037497489E+00  0.56900918150E+00  0.11802375477E+01  0.00000000000E+00 0.  1.
         11    1    3    3    0    0 -0.92292165531E+01  0.99223131045E+01 -0.31785689078E+01  0.13918837455E+02  0.51100000000E-03 0. -1.
        -11    1    3    3    0    0 -0.12507107759E+02  0.25068063961E+02 -0.15521598773E+02  0.32027419565E+02  0.51100000000E-03 0.  1.
         12    1    3    3    0    0  0.21193987586E+02 -0.34110002091E+02  0.18131158500E+02  0.44061505433E+02  0.00000000000E+00 0. -1.
</event>
<event>
 7    1  0.3925070E-015  0.9000774E+02  0.7816164E-02  0.1186339E+00
        -11   -1    0    0    0    0  0.00000000000E+00  0.00000000000E+00  0.45593999997E+02  0.45594000000E+02  0.51100000000E-03 0.  1.
         11   -1    0    0    0    0 -0.00000000000E+00 -0.00000000000E+00 -0.45593999997E+02  0.45594000000E+02  0.51100000000E-03 0. -1.
    9900012    2    1    2    0    0  0.16229224937E+00  0.11324161295E+00 -0.11635480660E+01  0.90007743020E+02  0.90000004428E+02 0.  0.
        -12    1    1    2    0    0 -0.16229224937E+00 -0.11324161295E+00  0.11635480660E+01  0.11802569801E+01  0.00000000000E+00 0.  1.
         11    1    3    3    0    0 -0.10924688687E+02 -0.25730439928E+02 -0.23037873580E+02  0.36223583218E+02  0.51100000000E-03 0. -1.
        -11    1    3    3    0    0 -0.52831136748E+01 -0.46022005827E+01 -0.61196415335E+01  0.93027712572E+01  0.51100000000E-03 0.  1.
        -12    1    3    3    0    0  0.16370094612E+02  0.30445882123E+02  0.27993967047E+02  0.44481388545E+02  0.00000000000E+00 0.  1.
</event>
<event>
 7    1  0.3925070E-015  0.9000683E+02  0.7816164E-02  0.1186341E+00
        -11   -1    0    0    0    0  0.00000000000E+00  0.00000000000E+00  0.45593999997E+02  0.45594000000E+02  0.51100000000E-03 0.  1.
         11   -1    0    0    0    0 -0.00000000000E+00 -0.00000000000E+00 -0.45593999997E+02  0.45594000000E+02  0.51100000000E-03 0. -1.
    9900012    2    1    2    0    0 -0.50158761946E+00  0.58407731774E+00 -0.89577900790E+00  0.90006832576E+02  0.89999081961E+02 0.  0.
        -12    1    1    2    0    0  0.50158761946E+00 -0.58407731774E+00  0.89577900790E+00  0.11811674242E+01  0.00000000000E+00 0.  1.
         11    1    3    3    0    0  0.27188803933E+02 -0.15309733037E+02 -0.24792870098E+02  0.39853549314E+02  0.51100000000E-03 0. -1.
        -11    1    3    3    0    0  0.32393337949E+01 -0.48783593021E+01  0.73203109324E+01  0.93743599954E+01  0.51100000000E-03 0.  1.
        -12    1    3    3    0    0 -0.30929725348E+02  0.20772169657E+02  0.16576780157E+02  0.40778923266E+02  0.00000000000E+00 0.  1.
</event>
<event>
 7    1  0.3925070E-015  0.9000772E+02  0.7816164E-02  0.1186339E+00
        -11   -1    0    0    0    0  0.00000000000E+00  0.00000000000E+00  0.45593999997E+02  0.45594000000E+02  0.51100000000E-03 0.  1.
         11   -1    0    0    0    0 -0.00000000000E+00 -0.00000000000E+00 -0.45593999997E+02  0.45594000000E+02  0.51100000000E-03 0. -1.
    9900012    2    1    2    0    0  0.80983733566E+00 -0.85558837679E+00  0.72073514282E-01  0.90007719282E+02  0.89999980377E+02 0.  0.
        -12    1    1    2    0    0 -0.80983733566E+00  0.85558837679E+00 -0.72073514282E-01  0.11802807175E+01  0.00000000000E+00 0.  1.
         11    1    3    3    0    0 -0.31660202894E+01  0.76694544647E+01  0.44651845500E+01  0.94224248251E+01  0.51100000000E-03 0. -1.
        -11    1    3    3    0    0 -0.27837735609E+02  0.32251894805E+01  0.23578927670E+02  0.36623861093E+02  0.51100000000E-03 0.  1.
         12    1    3    3    0    0  0.31813593235E+02 -0.11750232322E+02 -0.27972038705E+02  0.43961433364E+02  0.00000000000E+00 0. -1.
</event>
<event>
 7    1  0.3925070E-015  0.9000777E+02  0.7816164E-02  0.1186339E+00
        -11   -1    0    0    0    0  0.00000000000E+00  0.00000000000E+00  0.45593999997E+02  0.45594000000E+02  0.51100000000E-03 0.  1.
         11   -1    0    0    0    0 -0.00000000000E+00 -0.00000000000E+00 -0.45593999997E+02  0.45594000000E+02  0.51100000000E-03 0. -1.
    9900012    2    1    2    0    0  0.65128058109E+00 -0.83739421751E+00 -0.51725485461E+00  0.90007767796E+02  0.90000029531E+02 0.  0.
        -12    1    1    2    0    0 -0.65128058109E+00  0.83739421751E+00  0.51725485461E+00  0.11802322040E+01  0.00000000000E+00 0.  1.
         11    1    3    3    0    0 -0.94417684710E+01  0.19290053522E+02 -0.17840657306E+02  0.27920283131E+02  0.51100000000E-03 0. -1.
        -11    1    3    3    0    0  0.18152123959E+01 -0.21654072321E+02 -0.16466927069E+02  0.27264510476E+02  0.51100000000E-03 0.  1.
        -12    1    3    3    0    0  0.82778366562E+01  0.15266245810E+01  0.33790329520E+02  0.34822974189E+02  0.00000000000E+00 0.  1.
</event>
<event>
 7    1  0.3925070E-015  0.9000734E+02  0.7816164E-02  0.1186340E+00
        -11   -1    0    0    0    0  0.00000000000E+00  0.00000000000E+00  0.45593999997E+02  0.45594000000E+02  0.51100000000E-03 0. -1.
         11   -1    0    0    0    0 -0.00000000000E+00 -0.00000000000E+00 -0.45593999997E+02  0.45594000000E+02  0.51100000000E-03 0.  1.
    9900012    2    1    2    0    0 -0.68116138603E+00 -0.74970538269E+00 -0.60655989076E+00  0.90007341753E+02  0.89999597863E+02 0.  0.
        -12    1    1    2    0    0  0.68116138603E+00  0.74970538269E+00  0.60655989076E+00  0.11806582468E+01  0.00000000000E+00 0.  1.
         11    1    3    3    0    0  0.16731647005E+02  0.31441663356E+02  0.76288081338E+01  0.36424235337E+02  0.51100000000E-03 0. -1.
        -11    1    3    3    0    0  0.75844537677E+01  0.42171294705E+01 -0.26128067807E+01  0.90628295504E+01  0.51100000000E-03 0.  1.
        -12    1    3    3    0    0 -0.24997262159E+02 -0.36408498209E+02 -0.56225612439E+01  0.44520276866E+02  0.00000000000E+00 0.  1.
</event>
<event>
 7    1  0.3925070E-015  0.9000775E+02  0.7816164E-02  0.1186339E+00
        -11   -1    0    0    0    0  0.00000000000E+00  0.00000000000E+00  0.45593999997E+02  0.45594000000E+02  0.51100000000E-03 0. -1.
         11   -1    0    0    0    0 -0.00000000000E+00 -0.00000000000E+00 -0.45593999997E+02  0.45594000000E+02  0.51100000000E-03 0.  1.
    9900012    2    1    2    0    0  0.64474115287E+00  0.42008162864E+00 -0.89489236955E+00  0.90007749144E+02  0.90000010633E+02 0.  0.
        -12    1    1    2    0    0 -0.64474115287E+00 -0.42008162864E+00  0.89489236955E+00  0.11802508555E+01  0.00000000000E+00 0.  1.
         11    1    3    3    0    0  0.30416644848E+02  0.12225644272E+01  0.24152209530E+02  0.38858669214E+02  0.51100000000E-03 0. -1.
        -11    1    3    3    0    0 -0.33705180846E+01 -0.41300196502E+01  0.74413690633E+01  0.91537657971E+01  0.51100000000E-03 0.  1.
        -12    1    3    3    0    0 -0.26401385611E+02  0.33275368517E+01 -0.32488470963E+02  0.41995314134E+02  0.00000000000E+00 0.  1.
</event>
<event>
 7    1  0.3925070E-015  0.9000764E+02  0.7816164E-02  0.1186339E+00
        -11   -1    0    0    0    0  0.00000000000E+00  0.00000000000E+00  0.45593999997E+02  0.45594000000E+02  0.51100000000E-03 0.  1.
         11   -1    0    0    0    0 -0.00000000000E+00 -0.00000000000E+00 -0.45593999997E+02  0.45594000000E+02  0.51100000000E-03 0. -1.
    9900012    2    1    2    0    0 -0.98578294477E+00  0.64615032195E+00 -0.63049839867E-01  0.90007638388E+02  0.89999898415E+02 0.  0.
        -12    1    1    2    0    0  0.98578294477E+00 -0.64615032195E+00  0.63049839867E-01  0.11803616120E+01  0.00000000000E+00 0.  1.
         11    1    3    3    0    0  0.30645852493E+02  0.25457367502E+02  0.51337344034E+01  0.40169653525E+02  0.51100000000E-03 0. -1.
        -11    1    3    3    0    0 -0.62569816296E+01  0.63742637544E+01  0.15669996893E+01  0.90684367898E+01  0.51100000000E-03 0.  1.
        -12    1    3    3    0    0 -0.25374653808E+02 -0.31185480934E+02 -0.67637839326E+01  0.40769548073E+02  0.00000000000E+00 0.  1.
</event>
<event>
 7    1  0.3925070E-015  0.9000778E+02  0.7816164E-02  0.1186339E+00
        -11   -1    0    0    0    0  0.00000000000E+00  0.00000000000E+00  0.45593999997E+02  0.45594000000E+02  0.51100000000E-03 0.  1.
         11   -1    0    0    0    0 -0.00000000000E+00 -0.00000000000E+00 -0.45593999997E+02  0.45594000000E+02  0.51100000000E-03 0. -1.
    9900012    2    1    2    0    0  0.98034761031E+00 -0.65113447523E+00 -0.88693982599E-01  0.90007777917E+02  0.90000039786E+02 0.  0.
        -12    1    1    2    0    0 -0.98034761031E+00  0.65113447523E+00  0.88693982599E-01  0.11802220827E+01  0.00000000000E+00 0.  1.
         11    1    3    3    0    0 -0.57298240389E+01 -0.27368344168E+01 -0.38267940651E+02  0.38791190083E+02  0.51100000000E-03 0. -1.
        -11    1    3    3    0    0 -0.45097253175E+01  0.26041025818E+01 -0.46239956766E+01  0.69642163216E+01  0.51100000000E-03 0.  1.
        -12    1    3    3    0    0  0.11219896967E+02 -0.51840264028E+00  0.42803242345E+02  0.44252371513E+02  0.00000000000E+00 0.  1.
</event>
<event>
 7    1  0.3925070E-015  0.9000774E+02  0.7816164E-02  0.1186339E+00
        -11   -1    0    0    0    0  0.00000000000E+00  0.00000000000E+00  0.45593999997E+02  0.45594000000E+02  0.51100000000E-03 0.  1.
         11   -1    0    0    0    0 -0.00000000000E+00 -0.00000000000E+00 -0.45593999997E+02  0.45594000000E+02  0.51100000000E-03 0. -1.
    9900012    2    1    2    0    0  0.13937127802E-01  0.47670822861E+00 -0.10796116027E+01  0.90007743167E+02  0.90000004577E+02 0.  0.
        -12    1    1    2    0    0 -0.13937127802E-01 -0.47670822861E+00  0.10796116027E+01  0.11802568328E+01  0.00000000000E+00 0.  1.
         11    1    3    3    0    0 -0.38060242448E+00  0.56121984012E+01  0.68207145799E+01  0.88410280365E+01  0.51100000000E-03 0. -1.
        -11    1    3    3    0    0 -0.31446154401E+02 -0.30689195373E+00  0.21066190767E+02  0.37851541619E+02  0.51100000000E-03 0.  1.
         12    1    3    3    0    0  0.31840693953E+02 -0.48285982188E+01 -0.28966516949E+02  0.43315173512E+02  0.00000000000E+00 0. -1.
</event>
<event>
 7    1  0.3925070E-015  0.9000775E+02  0.7816164E-02  0.1186339E+00
        -11   -1    0    0    0    0  0.00000000000E+00  0.00000000000E+00  0.45593999997E+02  0.45594000000E+02  0.51100000000E-03 0.  1.
         11   -1    0    0    0    0 -0.00000000000E+00 -0.00000000000E+00 -0.45593999997E+02  0.45594000000E+02  0.51100000000E-03 0. -1.
    9900012    2    1    2    0    0 -0.53162189590E+00 -0.85529957797E+00 -0.61548413844E+00  0.90007754291E+02  0.90000015848E+02 0.  0.
        -12    1    1    2    0    0  0.53162189590E+00  0.85529957797E+00  0.61548413844E+00  0.11802457087E+01  0.00000000000E+00 0.  1.
         11    1    3    3    0    0  0.12790766351E+02  0.29840231189E+02 -0.16877414397E+02  0.36590848832E+02  0.51100000000E-03 0. -1.
        -11    1    3    3    0    0 -0.34827916594E+01  0.60939770568E+01 -0.60612047187E+01  0.92738663466E+01  0.51100000000E-03 0.  1.
        -12    1    3    3    0    0 -0.98395965878E+01 -0.36789507823E+02  0.22323134978E+02  0.44143039113E+02  0.00000000000E+00 0.  1.
</event>
<event>
 7    1  0.3925070E-015  0.9000758E+02  0.7816164E-02  0.1186339E+00
        -11   -1    0    0    0    0  0.00000000000E+00  0.00000000000E+00  0.45593999997E+02  0.45594000000E+02  0.51100000000E-03 0.  1.
         11   -1    0    0    0    0 -0.00000000000E+00 -0.00000000000E+00 -0.45593999997E+02  0.45594000000E+02  0.51100000000E-03 0. -1.
    9900012    2    1    2    0    0 -0.36709098396E+00  0.10660066464E+01 -0.34966795791E+00  0.90007579041E+02  0.89999838284E+02 0.  0.
        -12    1    1    2    0    0  0.36709098396E+00 -0.10660066464E+01  0.34966795791E+00  0.11804209595E+01  0.00000000000E+00 0.  1.
         11    1    3    3    0    0  0.44023010999E+01 -0.82802137534E+01 -0.35251202586E+01  0.10018416435E+02  0.51100000000E-03 0. -1.
        -11    1    3    3    0    0  0.29442663517E+02 -0.18355959105E+02  0.82874664216E+01  0.35672030634E+02  0.51100000000E-03 0.  1.
         12    1    3    3    0    0 -0.34212055601E+02  0.27702179504E+02 -0.51120141209E+01  0.44317131971E+02  0.00000000000E+00 0. -1.
</event>
<event>
 7    1  0.3925070E-015  0.9000781E+02  0.7816164E-02  0.1186339E+00
        -11   -1    0    0    0    0  0.00000000000E+00  0.00000000000E+00  0.45593999997E+02  0.45594000000E+02  0.51100000000E-03 0.  1.
         11   -1    0    0    0    0 -0.00000000000E+00 -0.00000000000E+00 -0.45593999997E+02  0.45594000000E+02  0.51100000000E-03 0. -1.
    9900012    2    1    2    0    0 -0.11307767258E+01  0.73315151575E-01 -0.32988907725E+00  0.90007805983E+02  0.90000068222E+02 0.  0.
        -12    1    1    2    0    0  0.11307767258E+01 -0.73315151575E-01  0.32988907725E+00  0.11801940172E+01  0.00000000000E+00 0.  1.
         11    1    3    3    0    0 -0.12304957935E+02  0.36550299102E+02 -0.22903587233E+00  0.38566680074E+02  0.51100000000E-03 0. -1.
        -11    1    3    3    0    0 -0.37528333600E+01  0.39533717960E+00 -0.97958390209E+01  0.10497547909E+02  0.51100000000E-03 0.  1.
        -12    1    3    3    0    0  0.14927014570E+02 -0.36872321130E+02  0.96949858159E+01  0.40943578000E+02  0.00000000000E+00 0.  1.
</event>
<event>
 7    1  0.3925070E-015  0.9000771E+02  0.7816164E-02  0.1186339E+00
        -11   -1    0    0    0    0  0.00000000000E+00  0.00000000000E+00  0.45593999997E+02  0.45594000000E+02  0.51100000000E-03 0.  1.
         11   -1    0    0    0    0 -0.00000000000E+00 -0.00000000000E+00 -0.45593999997E+02  0.45594000000E+02  0.51100000000E-03 0. -1.
    9900012    2    1    2    0    0  0.54452488161E+00  0.74022404457E+00 -0.74071376195E+00  0.90007705181E+02  0.89999966089E+02 0.  0.
        -12    1    1    2    0    0 -0.54452488161E+00 -0.74022404457E+00  0.74071376195E+00  0.11802948191E+01  0.00000000000E+00 0.  1.
         11    1    3    3    0    0 -0.38163132743E+02  0.67447231651E+01 -0.18417790884E+02  0.42908402588E+02  0.51100000000E-03 0. -1.
        -11    1    3    3    0    0  0.13303198524E+02  0.38562677545E+01 -0.12696983636E+01  0.13908918943E+02  0.51100000000E-03 0.  1.
        -12    1    3    3    0    0  0.25404459100E+02 -0.98607668751E+01  0.18946775486E+02  0.33190383650E+02  0.00000000000E+00 0.  1.
</event>
<event>
 7    1  0.3925070E-015  0.9000775E+02  0.7816164E-02  0.1186339E+00
        -11   -1    0    0    0    0  0.00000000000E+00  0.00000000000E+00  0.45593999997E+02  0.45594000000E+02  0.51100000000E-03 0.  1.
         11   -1    0    0    0    0 -0.00000000000E+00 -0.00000000000E+00 -0.45593999997E+02  0.45594000000E+02  0.51100000000E-03 0. -1.
    9900012    2    1    2    0    0 -0.84841205234E+00 -0.26504751007E+00 -0.77649221193E+00  0.90007748608E+02  0.90000010090E+02 0.  0.
        -12    1    1    2    0    0  0.84841205234E+00  0.26504751007E+00  0.77649221193E+00  0.11802513920E+01  0.00000000000E+00 0.  1.
         11    1    3    3    0    0  0.39703601218E+01 -0.54988118118E+01 -0.37521364383E+02  0.38129430579E+02  0.51100000000E-03 0. -1.
        -11    1    3    3    0    0  0.22041856876E+01  0.60920144805E+01 -0.58324521251E+01  0.87171424807E+01  0.51100000000E-03 0.  1.
        -12    1    3    3    0    0 -0.70229578617E+01 -0.85825017881E+00  0.42577324296E+02  0.43161175548E+02  0.00000000000E+00 0.  1.
</event>
<event>
 7    1  0.3925070E-015  0.9000777E+02  0.7816164E-02  0.1186339E+00
        -11   -1    0    0    0    0  0.00000000000E+00  0.00000000000E+00  0.45593999997E+02  0.45594000000E+02  0.51100000000E-03 0. -1.
         11   -1    0    0    0    0 -0.00000000000E+00 -0.00000000000E+00 -0.45593999997E+02  0.45594000000E+02  0.51100000000E-03 0.  1.
    9900012    2    1    2    0    0  0.11062177533E+01 -0.37856820744E-02 -0.41135868697E+00  0.90007767812E+02  0.90000029547E+02 0.  0.
        -12    1    1    2    0    0 -0.11062177533E+01  0.37856820744E-02  0.41135868697E+00  0.11802321884E+01  0.00000000000E+00 0.  1.
         11    1    3    3    0    0  0.61926929816E+01  0.36871556595E+02  0.33684427116E+01  0.37539413136E+02  0.51100000000E-03 0. -1.
        -11    1    3    3    0    0 -0.46067894631E+01  0.49319855033E+01  0.65461023947E+01  0.94020448300E+01  0.51100000000E-03 0.  1.
        -12    1    3    3    0    0 -0.47968576512E+00 -0.41807327780E+02 -0.10325903793E+02  0.43066309845E+02  0.00000000000E+00 0.  1.
</event>
<event>
 7    1  0.3925070E-015  0.9000770E+02  0.7816164E-02  0.1186339E+00
        -11   -1    0    0    0    0  0.00000000000E+00  0.00000000000E+00  0.45593999997E+02  0.45594000000E+02  0.51100000000E-03 0. -1.
         11   -1    0    0    0    0 -0.00000000000E+00 -0.00000000000E+00 -0.45593999997E+02  0.45594000000E+02  0.51100000000E-03 0.  1.
    9900012    2    1    2    0    0 -0.54945737857E+00  0.92939199176E+00  0.47690832465E+00  0.90007697312E+02  0.89999958116E+02 0.  0.
        -12    1    1    2    0    0  0.54945737857E+00 -0.92939199176E+00 -0.47690832465E+00  0.11803026880E+01  0.00000000000E+00 0.  1.
         11    1    3    3    0    0 -0.10394209770E+01 -0.52841810177E+01  0.21383304274E+02  0.22051046844E+02  0.51100000000E-03 0.  1.
        -11    1    3    3    0    0  0.15934192964E+02 -0.25027106671E+02 -0.11861327082E+02  0.31952240205E+02  0.51100000000E-03 0. -1.
        -12    1    3    3    0    0 -0.15444229365E+02  0.31240679680E+02 -0.90450688672E+01  0.36004410263E+02  0.00000000000E+00 0.  1.
</event>
<event>
 7    1  0.3925070E-015  0.9000771E+02  0.7816164E-02  0.1186339E+00
        -11   -1    0    0    0    0  0.00000000000E+00  0.00000000000E+00  0.45593999997E+02  0.45594000000E+02  0.51100000000E-03 0.  1.
         11   -1    0    0    0    0 -0.00000000000E+00 -0.00000000000E+00 -0.45593999997E+02  0.45594000000E+02  0.51100000000E-03 0. -1.
    9900012    2    1    2    0    0 -0.49823036783E+00  0.77846533783E+00 -0.73405876715E+00  0.90007710182E+02  0.89999971156E+02 0.  0.
        -12    1    1    2    0    0  0.49823036783E+00 -0.77846533783E+00  0.73405876715E+00  0.11802898183E+01  0.00000000000E+00 0.  1.
         11    1    3    3    0    0  0.25258623098E+01 -0.36817832894E+01  0.78536262173E+01  0.90340994914E+01  0.51100000000E-03 0. -1.
        -11    1    3    3    0    0  0.78236221715E+01 -0.13147035543E+02  0.31973145229E+02  0.35444825060E+02  0.51100000000E-03 0.  1.
         12    1    3    3    0    0 -0.10847714849E+02  0.17607284171E+02 -0.40560830214E+02  0.45528785630E+02  0.00000000000E+00 0. -1.
</event>
<event>
 7    1  0.3925070E-015  0.9000774E+02  0.7816164E-02  0.1186339E+00
        -11   -1    0    0    0    0  0.00000000000E+00  0.00000000000E+00  0.45593999997E+02  0.45594000000E+02  0.51100000000E-03 0.  1.
         11   -1    0    0    0    0 -0.00000000000E+00 -0.00000000000E+00 -0.45593999997E+02  0.45594000000E+02  0.51100000000E-03 0. -1.
    9900012    2    1    2    0    0 -0.82966199934E+00 -0.51181786188E+00 -0.66537631553E+00  0.90007736386E+02  0.89999997706E+02 0.  0.
        -12    1    1    2    0    0  0.82966199934E+00  0.51181786188E+00  0.66537631553E+00  0.11802636138E+01  0.00000000000E+00 0.  1.
         11    1    3    3    0    0 -0.36250373532E+00 -0.21047553231E+01  0.10204786579E+02  0.10425884774E+02  0.51100000000E-03 0. -1.
        -11    1    3    3    0    0 -0.45138792257E+01  0.29092677617E+02  0.21839708260E+02  0.36656948233E+02  0.51100000000E-03 0.  1.
         12    1    3    3    0    0  0.40467209617E+01 -0.27499740156E+02 -0.32709871155E+02  0.42924903380E+02  0.00000000000E+00 0. -1.
</event>
<event>
 7    1  0.3925070E-015  0.9000777E+02  0.7816164E-02  0.1186339E+00
        -11   -1    0    0    0    0  0.00000000000E+00  0.00000000000E+00  0.45593999997E+02  0.45594000000E+02  0.51100000000E-03 0. -1.
         11   -1    0    0    0    0 -0.00000000000E+00 -0.00000000000E+00 -0.45593999997E+02  0.45594000000E+02  0.51100000000E-03 0.  1.
    9900012    2    1    2    0    0 -0.50070119763E-01  0.15153111949E+00  0.11693903346E+01  0.90007770170E+02  0.90000031936E+02 0.  0.
        -12    1    1    2    0    0  0.50070119763E-01 -0.15153111949E+00 -0.11693903346E+01  0.11802298300E+01  0.00000000000E+00 0.  1.
         11    1    3    3    0    0  0.85266253804E+01 -0.25341305576E+01  0.35944058540E+02  0.37028374291E+02  0.51100000000E-03 0. -1.
        -11    1    3    3    0    0  0.13051519282E+02 -0.26908360101E+01 -0.21938401147E+01  0.13505394800E+02  0.51100000000E-03 0.  1.
        -12    1    3    3    0    0 -0.21628214782E+02  0.53764976871E+01 -0.32580828091E+02  0.39474001078E+02  0.00000000000E+00 0.  1.
</event>
<event>
 7    1  0.3925070E-015  0.9000771E+02  0.7816164E-02  0.1186339E+00
        -11   -1    0    0    0    0  0.00000000000E+00  0.00000000000E+00  0.45593999997E+02  0.45594000000E+02  0.51100000000E-03 0.  1.
         11   -1    0    0    0    0 -0.00000000000E+00 -0.00000000000E+00 -0.45593999997E+02  0.45594000000E+02  0.51100000000E-03 0. -1.
    9900012    2    1    2    0    0  0.15301380577E+00  0.11696203510E+01  0.40737799243E-01  0.90007709968E+02  0.89999970940E+02 0.  0.
        -12    1    1    2    0    0 -0.15301380577E+00 -0.11696203510E+01 -0.40737799243E-01  0.11802900316E+01  0.00000000000E+00 0.  1.
         11    1    3    3    0    0  0.38086752674E+00  0.46696661032E+01  0.87505896370E+01  0.99259085652E+01  0.51100000000E-03 0. -1.
        -11    1    3    3    0    0 -0.34042307992E+02  0.13175531093E+02  0.10201894481E+02  0.37901873361E+02  0.51100000000E-03 0.  1.
         12    1    3    3    0    0  0.33814454271E+02 -0.16675576845E+02 -0.18911746319E+02  0.42179928042E+02  0.00000000000E+00 0. -1.
</event>
<event>
 7    1  0.3925070E-015  0.9000777E+02  0.7816164E-02  0.1186339E+00
        -11   -1    0    0    0    0  0.00000000000E+00  0.00000000000E+00  0.45593999997E+02  0.45594000000E+02  0.51100000000E-03 0.  1.
         11   -1    0    0    0    0 -0.00000000000E+00 -0.00000000000E+00 -0.45593999997E+02  0.45594000000E+02  0.51100000000E-03 0. -1.
    9900012    2    1    2    0    0 -0.50558677679E-01 -0.54790161397E+00 -0.10441244664E+01  0.90007767709E+02  0.90000029443E+02 0.  0.
        -12    1    1    2    0    0  0.50558677679E-01  0.54790161397E+00  0.10441244664E+01  0.11802322906E+01  0.00000000000E+00 0.  1.
         11    1    3    3    0    0  0.18880389318E+02 -0.26557107317E+02 -0.12960804189E+02  0.35067527648E+02  0.51100000000E-03 0. -1.
        -11    1    3    3    0    0  0.95941454355E+01 -0.52537698704E+01 -0.12650950210E+00  0.10939183215E+02  0.51100000000E-03 0.  1.
        -12    1    3    3    0    0 -0.28525093431E+02  0.31262975573E+02  0.12043189225E+02  0.44001056847E+02  0.00000000000E+00 0.  1.
</event>
<event>
 7    1  0.3925070E-015  0.9000773E+02  0.7816164E-02  0.1186339E+00
        -11   -1    0    0    0    0  0.00000000000E+00  0.00000000000E+00  0.45593999997E+02  0.45594000000E+02  0.51100000000E-03 0. -1.
         11   -1    0    0    0    0 -0.00000000000E+00 -0.00000000000E+00 -0.45593999997E+02  0.45594000000E+02  0.51100000000E-03 0.  1.
    9900012    2    1    2    0    0  0.30068075434E+00 -0.45158912109E-01  0.11404356379E+01  0.90007728130E+02  0.89999989341E+02 0.  0.
        -12    1    1    2    0    0 -0.30068075434E+00  0.45158912109E-01 -0.11404356379E+01  0.11802718702E+01  0.00000000000E+00 0.  1.
         11    1    3    3    0    0  0.19139268464E+02  0.19233755396E+02 -0.19799714417E+02  0.33589844227E+02  0.51100000000E-03 0. -1.
        -11    1    3    3    0    0 -0.27060037454E+01  0.10554151549E+02 -0.65914836760E+01  0.12734214876E+02  0.51100000000E-03 0.  1.
        -12    1    3    3    0    0 -0.16132583964E+02 -0.29833065857E+02  0.27531633730E+02  0.43683669027E+02  0.00000000000E+00 0.  1.
</event>
<event>
 7    1  0.3925070E-015  0.9000778E+02  0.7816164E-02  0.1186339E+00
        -11   -1    0    0    0    0  0.00000000000E+00  0.00000000000E+00  0.45593999997E+02  0.45594000000E+02  0.51100000000E-03 0. -1.
         11   -1    0    0    0    0 -0.00000000000E+00 -0.00000000000E+00 -0.45593999997E+02  0.45594000000E+02  0.51100000000E-03 0.  1.
    9900012    2    1    2    0    0 -0.58310536009E+00  0.76607417372E+00  0.68266363475E+00  0.90007783436E+02  0.90000045377E+02 0.  0.
        -12    1    1    2    0    0  0.58310536009E+00 -0.76607417372E+00 -0.68266363475E+00  0.11802165644E+01  0.00000000000E+00 0.  1.
         11    1    3    3    0    0  0.30039516746E+02 -0.18304186212E+02 -0.97203732412E+01  0.36495225104E+02  0.51100000000E-03 0. -1.
        -11    1    3    3    0    0  0.24362375385E+01 -0.65184735750E+01 -0.54123199300E+01  0.88158356596E+01  0.51100000000E-03 0.  1.
        -12    1    3    3    0    0 -0.33058859644E+02  0.25588733961E+02  0.15815356806E+02  0.44696722672E+02  0.00000000000E+00 0.  1.
</event>
<event>
 7    1  0.3925070E-015  0.9000789E+02  0.7816164E-02  0.1186339E+00
        -11   -1    0    0    0    0  0.00000000000E+00  0.00000000000E+00  0.45593999997E+02  0.45594000000E+02  0.51100000000E-03 0.  1.
         11   -1    0    0    0    0 -0.00000000000E+00 -0.00000000000E+00 -0.45593999997E+02  0.45594000000E+02  0.51100000000E-03 0. -1.
    9900012    2    1    2    0    0  0.18408504440E+00  0.80970053203E+00 -0.83853933772E+00  0.90007893871E+02  0.90000157270E+02 0.  0.
        -12    1    1    2    0    0 -0.18408504440E+00 -0.80970053203E+00  0.83853933772E+00  0.11801061291E+01  0.00000000000E+00 0.  1.
         11    1    3    3    0    0 -0.41358221687E+02 -0.33894344201E+01  0.78084694453E+01  0.42225146088E+02  0.51100000000E-03 0. -1.
        -11    1    3    3    0    0  0.54557123054E+01  0.47918882667E+01  0.54051120338E+01  0.90521945560E+01  0.51100000000E-03 0.  1.
        -12    1    3    3    0    0  0.36086594426E+02 -0.59275331461E+00 -0.14052120817E+02  0.38730553227E+02  0.00000000000E+00 0.  1.
</event>
<event>
 7    1  0.3925070E-015  0.9000774E+02  0.7816164E-02  0.1186339E+00
        -11   -1    0    0    0    0  0.00000000000E+00  0.00000000000E+00  0.45593999997E+02  0.45594000000E+02  0.51100000000E-03 0.  1.
         11   -1    0    0    0    0 -0.00000000000E+00 -0.00000000000E+00 -0.45593999997E+02  0.45594000000E+02  0.51100000000E-03 0. -1.
    9900012    2    1    2    0    0  0.96358550712E+00  0.26656423227E+00 -0.62726478919E+00  0.90007739590E+02  0.90000000953E+02 0.  0.
        -12    1    1    2    0    0 -0.96358550712E+00 -0.26656423227E+00  0.62726478919E+00  0.11802604099E+01  0.00000000000E+00 0.  1.
         11    1    3    3    0    0  0.16173281496E+01  0.27017401944E+01  0.74079185215E+01  0.80493731125E+01  0.51100000000E-03 0. -1.
        -11    1    3    3    0    0 -0.16295934827E+02 -0.38205978741E+02 -0.10488573058E+02  0.42839986794E+02  0.51100000000E-03 0.  1.
         12    1    3    3    0    0  0.15642192184E+02  0.35770802779E+02  0.24533897473E+01  0.39118379683E+02  0.00000000000E+00 0. -1.
</event>
